Title
82242
    1SAPS     N    1   6.685   4.497  11.118 -0.5085  0.2037  0.2255
    1SAPS   HN1    2   6.757   4.465  11.186 -0.8555  0.2564  0.6216
    1SAPS   HN2    3   6.723   4.519  11.024  0.2139 -0.8467  0.2599
    1SAPS   HN3    4   6.645   4.590  11.141 -0.2409  0.3141  0.2436
    1SAPS   C12    5   6.570   4.404  11.092  0.1365  0.5826  0.1167
    1SAPS  H12A    6   6.538   4.363  11.186  1.2728  0.3063  0.3979
    1SAPS   C13    7   6.448   4.488  11.036 -0.5043 -0.0505  0.4961
    1SAPS  O13A    8   6.455   4.613  11.039  0.0894  0.5854 -0.1538
    1SAPS  O13B    9   6.336   4.431  11.013 -0.4423  1.0536  0.2041
    1SAPS   C11   10   6.602   4.294  10.990  0.1631  0.4851  0.4597
    1SAPS  H11A   11   6.628   4.339  10.891  1.1180  0.4338  0.6893
    1SAPS  H11B   12   6.507   4.237  10.979 -0.0808  1.0886 -0.7582
    1SAPS     P   13   6.752   4.079  10.986 -0.4168 -0.0386  0.4876
    1SAPS   O13   14   6.897   4.097  10.953  0.3110 -0.6026  0.2200
    1SAPS   O14   15   6.714   3.979  11.086  0.2720  0.7998  0.2364
    1SAPS   O12   16   6.708   4.219  11.038 -0.5518  0.9505 -1.0174
    1SAPS   O11   17   6.681   4.051  10.857  0.1780 -0.6846 -0.6467
    1SAPS    C1   18   6.702   3.949  10.755 -0.3511  0.3331  0.0984
    1SAPS    HA   19   6.805   3.907  10.754 -1.6249 -2.9552  0.5072
    1SAPS    HB   20   6.639   3.860  10.780 -0.1614 -0.3309 -1.7415
    1SAPS    C2   21   6.661   4.004  10.617  0.7474 -0.0490  0.0743
    1SAPS    HS   22   6.712   4.099  10.589  0.8467 -0.3873 -0.9269
    1SAPS   O21   23   6.518   4.019  10.628  0.3780  0.1954  0.6604
    1SAPS   C21   24   6.460   4.120  10.551  0.2870  0.2138 -0.6516
    1SAPS   O22   25   6.517   4.199  10.482 -0.0181 -0.2899  0.6310
    1SAPS   C22   26   6.305   4.121  10.574 -0.7569  0.0358  0.3059
    1SAPS   H2R   27   6.294   4.085  10.678 -1.5003  0.6716  0.4459
    1SAPS   H2S   28   6.280   4.229  10.583  1.2334  0.5591 -0.1790
    1SAPS    C3   29   6.700   3.910  10.497  0.5389  0.2020 -0.1550
    1SAPS    HX   30   6.648   3.816  10.527 -0.7418  1.0173  0.2314
    1SAPS    HY   31   6.810   3.895  10.504  0.3014 -1.5786  0.2185
    1SAPS   O31   32   6.646   3.961  10.374 -0.5066 -0.8812 -0.5088
    1SAPS   C31   33   6.729   4.043  10.301  0.2189  0.5138  0.4278
    1SAPS   O32   34   6.842   4.064  10.321 -0.4393  0.6430  0.3134
    1SAPS   C32   35   6.646   4.110  10.196  0.6067  0.1239  0.8650
    1SAPS   H2X   36   6.669   4.218  10.204 -0.0146  0.4724 -1.6642
    1SAPS   H2Y   37   6.536   4.090  10.198  0.0318  2.9594 -0.0311
    1SAPS   C23   38   6.216   4.031  10.479 -0.7604  0.3686  0.2126
    1SAPS   H3R   39   6.141   3.988  10.550 -0.6020 -1.5350 -0.7479
    1SAPS   H3S   40   6.256   3.945  10.422 -1.7604  0.1819 -0.2156
    1SAPS   C24   41   6.137   4.120  10.382  0.3771 -0.0207  0.2789
    1SAPS   H4R   42   6.071   4.187  10.440  2.2166  1.9967  0.1243
    1SAPS   H4S   43   6.058   4.054  10.340 -0.7570  1.2373  0.4335
    1SAPS   C25   44   6.223   4.195  10.284 -0.1070 -0.0122 -0.0623
    1SAPS   H5R   45   6.239   4.303  10.296  0.2374  0.2466 -2.4730
    1SAPS   C26   46   6.264   4.142  10.161 -0.2941 -0.5446  0.0762
    1SAPS   H6R   47   6.320   4.205  10.090  0.4849 -0.2981  0.8943
    1SAPS   C27   48   6.239   3.999  10.112 -0.2227 -0.6481 -0.2252
    1SAPS   H7R   49   6.196   3.934  10.191 -0.4311 -1.4654 -1.0040
    1SAPS   H7S   50   6.334   3.950  10.082  1.6167  2.7244 -0.1391
    1SAPS   C28   51   6.135   4.000  10.008  0.2928 -0.0656 -0.3050
    1SAPS   H8R   52   6.038   4.040  10.042 -0.2697 -1.5260 -0.1951
    1SAPS   C29   53   6.155   3.964   9.878  0.5875  0.8542 -0.0945
    1SAPS   H9R   54   6.068   3.937   9.817 -0.5680  2.7490  0.6789
    1SAPS  C210   55   6.280   3.912   9.815 -0.2878 -0.2569  0.4008
    1SAPS  H10R   56   6.262   3.803   9.807  0.4112 -0.1784 -2.5556
    1SAPS  H10S   57   6.375   3.924   9.872 -0.0796 -1.0679  0.2298
    1SAPS  C211   58   6.309   3.982   9.688 -0.1478  0.1744  0.3006
    1SAPS  H11R   59   6.319   4.091   9.696  1.2274  0.2483 -1.9212
    1SAPS  C212   60   6.344   3.917   9.573  0.2673 -0.3972 -0.0080
    1SAPS  H12R   61   6.356   3.970   9.478 -0.0679 -1.3868 -0.6194
    1SAPS  C213   62   6.354   3.769   9.546 -0.0740 -0.5550  0.0044
    1SAPS  H13R   63   6.339   3.704   9.635  1.0500 -1.0249 -0.1395
    1SAPS  H13S   64   6.455   3.746   9.505  0.9014  1.0358  1.4362
    1SAPS  C214   65   6.245   3.744   9.448 -0.9780 -0.8019 -0.2315
    1SAPS  H14R   66   6.147   3.769   9.490 -0.6355  0.3119 -0.0866
    1SAPS  C215   67   6.256   3.707   9.319 -0.6238 -0.2184  0.8980
    1SAPS  H15R   68   6.160   3.687   9.269 -0.6062 -0.8510  1.1233
    1SAPS  C216   69   6.380   3.690   9.243 -0.0171 -0.8821 -0.3288
    1SAPS  H16R   70   6.393   3.590   9.198 -2.5342 -0.0621 -2.9882
    1SAPS  H16S   71   6.466   3.710   9.311 -0.1983  0.7053 -0.5351
    1SAPS  C217   72   6.384   3.794   9.137 -0.0926 -0.7121  0.2995
    1SAPS  H17R   73   6.487   3.802   9.097 -0.5229 -0.5158 -0.7922
    1SAPS  H17S   74   6.358   3.897   9.169 -0.3111 -1.2158  1.7870
    1SAPS  C218   75   6.293   3.765   9.023  0.3466 -0.0856 -0.2478
    1SAPS  H18R   76   6.183   3.773   9.038  0.6384  2.0264  0.9191
    1SAPS  H18S   77   6.303   3.656   9.003 -0.3387 -0.1908 -0.0463
    1SAPS  C219   78   6.325   3.838   8.896 -0.2713  0.8330 -0.5223
    1SAPS  H19R   79   6.328   3.948   8.914 -0.5125  0.9863 -1.4200
    1SAPS  H19S   80   6.244   3.831   8.821  1.0472 -0.0413 -1.9052
    1SAPS  C220   81   6.465   3.804   8.837  0.2249 -0.5360  0.2836
    1SAPS  H20R   82   6.549   3.845   8.897 -1.4813 -0.5759  2.7586
    1SAPS  H20S   83   6.476   3.836   8.731 -0.2222  0.2822  0.4788
    1SAPS  H20T   84   6.485   3.695   8.845  0.3388 -0.6958 -1.7969
    1SAPS   C33   85   6.704   4.086  10.051 -0.1238 -0.0007 -0.0286
    1SAPS   H3X   86   6.815   4.093  10.051 -0.2751  3.0344 -2.2648
    1SAPS   H3Y   87   6.665   4.167   9.987  0.5674  0.4367  0.1031
    1SAPS   C34   88   6.669   3.944  10.006 -0.6849 -0.8577 -0.0722
    1SAPS   H4X   89   6.560   3.926  10.014 -0.9515  1.2198  1.3369
    1SAPS   H4Y   90   6.741   3.875  10.055  0.9061 -0.1777 -1.3824
    1SAPS   C35   91   6.688   3.919   9.854 -0.8210  0.1741 -0.3729
    1SAPS   H5X   92   6.793   3.938   9.822 -0.0494 -1.2000  1.1987
    1SAPS   H5Y   93   6.622   3.994   9.806 -1.1830 -1.4573 -2.4966
    1SAPS   C36   94   6.654   3.778   9.818 -0.4168 -0.3459 -0.3111
    1SAPS   H6X   95   6.547   3.771   9.791 -0.1590 -0.4287 -1.3388
    1SAPS   H6Y   96   6.671   3.720   9.911  0.8998  0.1822 -0.2119
    1SAPS   C37   97   6.735   3.726   9.697  0.0005 -0.6220  0.0718
    1SAPS   H7X   98   6.843   3.739   9.719  0.1063  0.8481 -1.2248
    1SAPS   H7Y   99   6.706   3.778   9.603 -1.5713 -0.1073  0.8316
    1SAPS   C38  100   6.707   3.573   9.684 -0.1688 -0.1083  0.4553
    1SAPS   H8X  101   6.598   3.554   9.680  0.1716 -1.9273 -0.7158
    1SAPS   H8Y  102   6.747   3.535   9.780 -0.2805  0.7312  0.8413
    1SAPS   C39  103   6.768   3.502   9.563 -0.2927  0.0863  0.3530
    1SAPS   H9X  104   6.762   3.391   9.573 -0.0351  0.0754  0.3883
    1SAPS   H9Y  105   6.873   3.538   9.555  0.5285 -2.3137 -0.2909
    1SAPS  C310  106   6.693   3.545   9.435  0.6558 -0.5072  0.1088
    1SAPS  H10X  107   6.702   3.656   9.432  0.5425 -0.4964  0.1381
    1SAPS  H10Y  108   6.583   3.526   9.441  0.5731  0.4567  2.5295
    1SAPS  C311  109   6.742   3.472   9.313  0.7544  0.3405 -0.3138
    1SAPS  H11X  110   6.721   3.368   9.345  1.8909  0.1029 -0.3192
    1SAPS  H11Y  111   6.849   3.481   9.286  0.7032 -0.0163 -0.6417
    1SAPS  C312  112   6.657   3.491   9.190  0.4428 -0.1001  0.6415
    1SAPS  H12X  113   6.625   3.595   9.166 -0.8452 -0.3282  1.3320
    1SAPS  H12Y  114   6.560   3.439   9.205  0.1679  0.8458  2.1927
    1SAPS  C313  115   6.710   3.443   9.060 -0.2238 -0.2601 -0.1702
    1SAPS  H13X  116   6.815   3.475   9.044  0.1092 -1.5503 -0.6650
    1SAPS  H13Y  117   6.661   3.482   8.969  3.4103  3.0225 -0.8504
    1SAPS  C314  118   6.718   3.287   9.057  0.1364  0.5547  0.6776
    1SAPS  H14X  119   6.617   3.260   9.095 -0.0616  1.4287  0.7801
    1SAPS  H14Y  120   6.800   3.255   9.126 -1.3401 -3.2452  0.8018
    1SAPS  C315  121   6.746   3.238   8.916  0.4242  0.0150  0.0416
    1SAPS  H15X  122   6.838   3.290   8.880  0.4997 -1.6176 -2.2833
    1SAPS  H15Y  123   6.659   3.257   8.850  0.6359  1.0874  0.0629
    1SAPS  C316  124   6.733   3.082   8.926  0.0409  0.0280  0.2263
    1SAPS  H16X  125   6.643   3.060   8.987 -1.2351  1.3278 -1.1493
    1SAPS  H16Y  126   6.822   3.044   8.981  1.9235  1.6400 -1.5835
    1SAPS  C317  127   6.722   3.017   8.785  0.1119  0.1648 -0.0346
    1SAPS  H17X  128   6.634   3.073   8.746  1.2205  0.8442 -1.5906
    1SAPS  H17Y  129   6.699   2.908   8.791  0.2770  0.2203  1.6396
    1SAPS  C318  130   6.846   3.041   8.702  0.0954 -0.0733 -0.2350
    1SAPS  H18X  131   6.860   3.150   8.690 -1.2501  0.2126  0.7638
    1SAPS  H18Y  132   6.834   3.003   8.598  1.5650 -0.2802 -0.3376
    1SAPS  H18Z  133   6.929   2.988   8.752 -1.9198 -0.9524  2.2836
    2SAPS     N  134   4.666   4.557  10.820  0.0642  0.6774  0.2329
    2SAPS   HN1  135   4.644   4.591  10.916 -0.0153  1.0438  0.0844
    2SAPS   HN2  136   4.764   4.590  10.809  0.9023 -1.5181  0.8533
    2SAPS   HN3  137   4.615   4.619  10.755 -0.4484 -0.3038 -0.2967
    2SAPS   C12  138   4.664   4.411  10.805 -0.5936  0.0453 -0.0220
    2SAPS  H12A  139   4.693   4.387  10.704 -3.2401 -1.2829 -0.5017
    2SAPS   C13  140   4.761   4.338  10.908  0.3906  1.0906 -0.2934
    2SAPS  O13A  141   4.835   4.411  10.976  0.4610  0.3789 -0.2948
    2SAPS  O13B  142   4.772   4.209  10.924  0.1729 -0.3990  0.3675
    2SAPS   C11  143   4.516   4.375  10.841  0.1532 -0.4166  0.2483
    2SAPS  H11A  144   4.439   4.451  10.817  1.3000  1.7162  3.0128
    2SAPS  H11B  145   4.514   4.362  10.952  2.3425  0.2720  0.3971
    2SAPS     P  146   4.396   4.215  10.659 -0.0472  0.0019  0.1685
    2SAPS   O13  147   4.341   4.078  10.653  0.5558 -0.6306  0.3936
    2SAPS   O14  148   4.308   4.331  10.649  0.0058 -0.1164  0.0226
    2SAPS   O12  149   4.477   4.242  10.791  0.1288  0.2497  0.6896
    2SAPS   O11  150   4.507   4.234  10.547  0.5389  0.1546 -0.1088
    2SAPS    C1  151   4.569   4.108  10.516  0.2113 -0.0130 -0.0565
    2SAPS    HA  152   4.629   4.071  10.602  0.7268 -0.9137 -0.7985
    2SAPS    HB  153   4.491   4.041  10.475  0.4407 -0.3869  0.1252
    2SAPS    C2  154   4.671   4.116  10.403  0.3010 -0.6436  0.0797
    2SAPS    HS  155   4.758   4.169  10.447  0.1748 -1.6985  1.6294
    2SAPS   O21  156   4.615   4.200  10.294  0.6295  0.1788 -0.6190
    2SAPS   C21  157   4.702   4.269  10.224  0.9509 -0.5234 -0.1177
    2SAPS   O22  158   4.821   4.277  10.252  0.4375 -0.5144 -0.2973
    2SAPS   C22  159   4.623   4.365  10.132 -0.1857  0.1360 -0.2747
    2SAPS   H2R  160   4.548   4.300  10.081 -1.7431 -0.8638  3.1625
    2SAPS   H2S  161   4.563   4.426  10.203  0.0508  1.9120 -1.5951
    2SAPS    C3  162   4.702   3.976  10.349 -0.5055  0.5324  0.3515
    2SAPS    HX  163   4.611   3.920  10.320  0.9198 -0.7698 -1.7712
    2SAPS    HY  164   4.750   3.919  10.432 -1.5870 -1.4312 -0.3536
    2SAPS   O31  165   4.793   3.969  10.238 -0.0075  0.5111  0.5903
    2SAPS   C31  166   4.928   3.990  10.272  0.2248  0.0755 -0.0943
    2SAPS   O32  167   4.959   4.019  10.389 -0.1541  0.3406 -0.1039
    2SAPS   C32  168   5.029   3.945  10.160  0.2609  0.2219 -0.7854
    2SAPS   H2X  169   5.001   3.845  10.120 -0.2204  0.2552 -0.5389
    2SAPS   H2Y  170   5.128   3.948  10.209  1.0780 -0.0709 -2.3789
    2SAPS   C23  171   4.709   4.453  10.043 -0.0239  0.0845 -1.2853
    2SAPS   H3R  172   4.777   4.523  10.097 -1.4018  0.4011  0.0731
    2SAPS   H3S  173   4.655   4.519   9.971  0.6659 -1.0298 -2.8625
    2SAPS   C24  174   4.801   4.366   9.954  0.3300 -0.6350  1.2447
    2SAPS   H4R  175   4.881   4.322  10.016  3.5364  2.0369 -0.8306
    2SAPS   H4S  176   4.859   4.438   9.893  0.9972  0.4118  3.0917
    2SAPS   C25  177   4.731   4.259   9.869  0.5321  1.1503 -0.2065
    2SAPS   H5R  178   4.650   4.201   9.916  1.5715 -0.5555 -0.4868
    2SAPS   C26  179   4.760   4.245   9.739 -0.0838  0.5928 -0.4927
    2SAPS   H6R  180   4.693   4.171   9.693 -0.5136  0.6974 -0.0425
    2SAPS   C27  181   4.861   4.315   9.653 -0.2911 -0.8807 -0.4722
    2SAPS   H7R  182   4.908   4.239   9.588 -1.5394 -3.0692  1.1102
    2SAPS   H7S  183   4.938   4.351   9.725  0.2880 -0.7274 -1.1672
    2SAPS   C28  184   4.809   4.436   9.585 -0.3912  0.0482 -0.3941
    2SAPS   H8R  185   4.728   4.485   9.642 -0.4319 -2.6991  2.0071
    2SAPS   C29  186   4.846   4.482   9.468  0.4959 -0.0959 -0.5064
    2SAPS   H9R  187   4.796   4.569   9.421  0.2652  0.5865  0.9874
    2SAPS  C210  188   4.950   4.421   9.379 -0.0933  0.1335  0.1063
    2SAPS  H10R  189   4.906   4.374   9.289 -2.3649  1.1650  0.6476
    2SAPS  H10S  190   5.019   4.349   9.429  0.1437  1.4913  1.7746
    2SAPS  C211  191   5.045   4.526   9.325 -0.8505  0.3321  0.8014
    2SAPS  H11R  192   5.105   4.582   9.398  0.8680 -0.9492  0.3971
    2SAPS  C212  193   5.076   4.555   9.200  0.2802 -0.5672 -0.6924
    2SAPS  H12R  194   5.143   4.641   9.186 -2.2608  1.5386 -0.4101
    2SAPS  C213  195   5.016   4.495   9.075 -0.2851 -0.7086  0.6854
    2SAPS  H13R  196   5.002   4.385   9.088  0.3192 -0.6727  1.6970
    2SAPS  H13S  197   5.085   4.508   8.989 -1.5172 -0.5747 -0.2933
    2SAPS  C214  198   4.887   4.570   9.046  0.6597 -0.0673  0.1183
    2SAPS  H14R  199   4.839   4.633   9.123  1.3981  2.9943 -1.8324
    2SAPS  C215  200   4.824   4.575   8.924  0.4727 -0.3882  0.7952
    2SAPS  H15R  201   4.725   4.622   8.911  0.1999 -1.0647  0.4007
    2SAPS  C216  202   4.878   4.508   8.799  0.0010 -0.7419  0.0394
    2SAPS  H16R  203   4.924   4.408   8.813 -0.9768 -1.2302 -0.1518
    2SAPS  H16S  204   4.964   4.566   8.759  0.4132 -0.0576  1.9048
    2SAPS  C217  205   4.779   4.492   8.682  0.3372  0.0775 -0.6699
    2SAPS  H17R  206   4.751   4.597   8.661  1.8010  0.5724 -0.2132
    2SAPS  H17S  207   4.684   4.440   8.705  2.2197 -2.8515  0.8508
    2SAPS  C218  208   4.854   4.419   8.569 -0.3532 -0.8760  0.6056
    2SAPS  H18R  209   4.853   4.313   8.600  0.4627 -0.6750  1.3150
    2SAPS  H18S  210   4.958   4.457   8.560 -1.0337  1.0195  0.4262
    2SAPS  C219  211   4.791   4.446   8.430  0.0262  0.0325 -0.7857
    2SAPS  H19R  212   4.691   4.493   8.437 -0.6067 -1.4281  0.0680
    2SAPS  H19S  213   4.769   4.352   8.375 -2.9799  0.2939 -0.0823
    2SAPS  C220  214   4.874   4.537   8.334  0.1237 -0.5605  0.0481
    2SAPS  H20R  215   4.892   4.636   8.381 -1.5231  0.5933 -1.6665
    2SAPS  H20S  216   4.816   4.565   8.244  1.8931  0.4118 -0.8113
    2SAPS  H20T  217   4.969   4.485   8.310  0.7761  0.3298  0.6935
    2SAPS   C33  218   5.022   4.034  10.035  0.1148  0.2765 -0.1550
    2SAPS   H3X  219   5.033   4.139  10.069  5.5469  0.3474 -1.6112
    2SAPS   H3Y  220   4.921   4.025   9.990 -0.1159  0.1001  0.3785
    2SAPS   C34  221   5.132   3.998   9.931 -0.3188 -0.4833  0.0420
    2SAPS   H4X  222   5.153   3.890   9.918  0.1121 -0.5533  1.2650
    2SAPS   H4Y  223   5.227   4.044   9.964  0.1509 -0.9118 -0.7113
    2SAPS   C35  224   5.105   4.058   9.797 -0.3096  0.0816  0.6219
    2SAPS   H5X  225   5.063   4.160   9.803  0.5457  0.4220  0.9105
    2SAPS   H5Y  226   5.019   4.005   9.751  0.0757  0.3077 -0.3527
    2SAPS   C36  227   5.225   4.054   9.709  0.2468  0.0249 -0.4470
    2SAPS   H6X  228   5.251   3.946   9.711 -2.1928 -0.5599  1.8350
    2SAPS   H6Y  229   5.312   4.116   9.740  0.3420  1.4743 -3.4304
    2SAPS   C37  230   5.202   4.101   9.562 -0.1760 -0.1695  0.1215
    2SAPS   H7X  231   5.191   4.211   9.563  2.0900  0.1175 -2.4667
    2SAPS   H7Y  232   5.114   4.045   9.523  0.0501 -1.2091  1.0525
    2SAPS   C38  233   5.321   4.059   9.471 -0.2957  0.8362  0.1801
    2SAPS   H8X  234   5.303   3.950   9.456  0.7949  0.5811  0.6630
    2SAPS   H8Y  235   5.422   4.066   9.518  0.1825 -2.2755 -0.2856
    2SAPS   C39  236   5.320   4.126   9.333  0.7899  0.5210  0.2630
    2SAPS   H9X  237   5.342   4.232   9.357  0.6551  0.2195  1.7908
    2SAPS   H9Y  238   5.226   4.099   9.281 -1.3966  0.8125  3.9328
    2SAPS  C310  239   5.419   4.060   9.238 -0.5610 -0.0334 -0.1060
    2SAPS  H10X  240   5.396   3.955   9.207 -0.9603  0.6634 -2.2413
    2SAPS  H10Y  241   5.513   4.049   9.296 -1.6334 -0.0957  1.6370
    2SAPS  C311  242   5.443   4.133   9.099  0.0320  0.2599 -0.0703
    2SAPS  H11X  243   5.510   4.065   9.042 -0.9515  0.8050 -1.8936
    2SAPS  H11Y  244   5.493   4.232   9.106 -0.1188  0.4265 -1.2987
    2SAPS  C312  245   5.308   4.150   9.025 -1.0635  0.3606  0.0962
    2SAPS  H12X  246   5.253   4.233   9.075 -0.2735 -0.1978  1.9070
    2SAPS  H12Y  247   5.245   4.058   9.025 -0.2697 -0.2189  3.3826
    2SAPS  C313  248   5.330   4.189   8.877 -0.1786 -0.5367 -0.1522
    2SAPS  H13X  249   5.369   4.099   8.824 -0.1903  0.3925 -1.7768
    2SAPS  H13Y  250   5.409   4.267   8.881 -0.0411 -0.7468  1.3576
    2SAPS  C314  251   5.204   4.238   8.802 -0.5426  0.0889  0.1506
    2SAPS  H14X  252   5.242   4.262   8.700 -0.7010 -0.9689 -0.1604
    2SAPS  H14Y  253   5.170   4.329   8.856  1.9162  1.2689 -0.1921
    2SAPS  C315  254   5.085   4.137   8.788 -0.6947  0.9438 -0.1742
    2SAPS  H15X  255   5.015   4.176   8.712  1.2354  0.0621 -2.4555
    2SAPS  H15Y  256   5.032   4.141   8.886  2.2373  0.1443  1.5242
    2SAPS  C316  257   5.128   3.992   8.759  0.1597 -0.0092  0.2132
    2SAPS  H16X  258   5.181   3.931   8.836  0.5591 -1.3394 -1.0916
    2SAPS  H16Y  259   5.194   3.984   8.670 -1.2164  0.7202 -0.8855
    2SAPS  C317  260   5.008   3.913   8.711  0.1094 -0.0773  0.3114
    2SAPS  H17X  261   4.981   3.948   8.609  3.0354  1.1514 -0.0916
    2SAPS  H17Y  262   4.919   3.909   8.777 -0.8128 -2.2960 -1.0240
    2SAPS  C318  263   5.056   3.765   8.704 -0.0223  0.8196 -0.1801
    2SAPS  H18X  264   5.149   3.751   8.645 -0.1888  1.5259 -0.6226
    2SAPS  H18Y  265   4.973   3.706   8.658 -0.4429  0.2424  1.2884
    2SAPS  H18Z  266   5.083   3.726   8.804 -0.5116 -0.2953 -0.4771
    3SAPS     N  267   5.377   6.481  11.228 -0.0321 -0.7740  0.5033
    3SAPS   HN1  268   5.438   6.544  11.284 -2.1307  0.2238  1.7351
    3SAPS   HN2  269   5.447   6.425  11.176 -1.4348 -1.3479 -0.8158
    3SAPS   HN3  270   5.335   6.546  11.158 -1.2846 -0.8654  1.1461
    3SAPS   C12  271   5.282   6.399  11.303 -0.6867  0.0274  0.0199
    3SAPS  H12A  272   5.346   6.351  11.376 -0.6561  0.5079  0.3116
    3SAPS   C13  273   5.175   6.475  11.385  0.1037  0.7523  0.2020
    3SAPS  O13A  274   5.188   6.598  11.402 -0.0765  0.8401 -0.0452
    3SAPS  O13B  275   5.094   6.410  11.457 -0.2681 -0.1278  0.6814
    3SAPS   C11  276   5.226   6.298  11.201 -0.4983 -0.4914 -0.2664
    3SAPS  H11A  277   5.165   6.355  11.128  3.8027  0.8722 -3.0091
    3SAPS  H11B  278   5.152   6.231  11.249 -1.2720  3.8240  4.9730
    3SAPS     P  279   5.343   6.219  10.980  0.4863 -0.0001 -0.4321
    3SAPS   O13  280   5.395   6.353  10.952  0.2778  0.3958  0.0440
    3SAPS   O14  281   5.427   6.099  10.946 -0.5724  0.0387 -0.6228
    3SAPS   O12  282   5.331   6.215  11.137 -0.0400 -0.3301  0.2208
    3SAPS   O11  283   5.192   6.201  10.916  0.3628 -0.1509  1.2498
    3SAPS    C1  284   5.109   6.085  10.944 -0.3073 -0.5131 -0.1091
    3SAPS    HA  285   5.148   6.016  11.023 -0.2824  0.9525  1.1871
    3SAPS    HB  286   5.013   6.114  10.993  0.0736 -1.2235  1.0839
    3SAPS    C2  287   5.074   6.018  10.812 -0.3440  0.1141  0.4673
    3SAPS    HS  288   5.171   5.975  10.780 -1.1295 -0.5144 -1.0968
    3SAPS   O21  289   5.007   6.113  10.728  0.1082 -0.0926  0.7730
    3SAPS   C21  290   5.086   6.165  10.632  0.0716  0.1805  0.4723
    3SAPS   O22  291   5.201   6.138  10.606 -0.3056 -0.3179 -0.2191
    3SAPS   C22  292   5.003   6.254  10.538  0.0513  0.0056  0.7068
    3SAPS   H2R  293   4.939   6.329  10.589  0.2147 -0.6992  1.9503
    3SAPS   H2S  294   5.083   6.316  10.492 -1.3748  0.3046 -1.4916
    3SAPS    C3  295   4.973   5.903  10.842 -0.6090  0.1491  0.3743
    3SAPS    HX  296   4.882   5.944  10.891  0.2965  1.1673  1.2386
    3SAPS    HY  297   5.020   5.831  10.912  0.4374 -1.4826 -1.9256
    3SAPS   O31  298   4.927   5.833  10.718 -0.5824 -0.6829 -0.5193
    3SAPS   C31  299   5.016   5.773  10.647 -0.7971  0.9495  0.0956
    3SAPS   O32  300   5.135   5.766  10.674  0.6985  0.1696  0.4104
    3SAPS   C32  301   4.959   5.715  10.520  0.1712  0.4538  0.2026
    3SAPS   H2X  302   4.897   5.798  10.479  1.0563  0.6655 -0.7307
    3SAPS   H2Y  303   4.904   5.632  10.569  0.2369  0.9126  1.0656
    3SAPS   C23  304   4.918   6.180  10.441 -0.3960 -0.3761 -0.0607
    3SAPS   H3R  305   4.841   6.254  10.411 -2.6618 -1.8489  1.9329
    3SAPS   H3S  306   4.866   6.096  10.491 -0.4366  0.7808  1.8733
    3SAPS   C24  307   4.983   6.141  10.315 -0.1250 -0.0242  0.4263
    3SAPS   H4R  308   4.899   6.091  10.264  1.2243 -1.1672 -0.7132
    3SAPS   H4S  309   5.063   6.069  10.342  3.2889  3.0788 -0.9139
    3SAPS   C25  310   5.043   6.244  10.222  0.0086 -0.3854 -1.2511
    3SAPS   H5R  311   5.139   6.280  10.262  0.6212 -1.6455 -1.5571
    3SAPS   C26  312   4.995   6.291  10.110  0.9191 -0.7062 -0.4643
    3SAPS   H6R  313   5.064   6.357  10.055  1.1893  1.2432  2.0935
    3SAPS   C27  314   4.862   6.246  10.051 -0.2197 -0.3252 -0.1460
    3SAPS   H7R  315   4.826   6.327   9.983  1.5421  0.2578 -0.4066
    3SAPS   H7S  316   4.783   6.229  10.128 -1.2961  1.4142 -0.8055
    3SAPS   C28  317   4.879   6.123   9.977 -0.1630 -0.0594  0.2002
    3SAPS   H8R  318   4.902   6.039  10.045  2.4567 -0.4706 -1.1180
    3SAPS   C29  319   4.846   6.094   9.847 -0.1217  1.0314  0.1032
    3SAPS   H9R  320   4.874   5.998   9.802  0.6986  1.4983 -0.3962
    3SAPS  C210  321   4.805   6.196   9.745  0.4676 -0.1246  0.0063
    3SAPS  H10R  322   4.720   6.250   9.791  0.1937 -0.7990  0.2975
    3SAPS  H10S  323   4.770   6.144   9.653  0.6809 -0.9111  0.3624
    3SAPS  C211  324   4.924   6.285   9.716  0.7773 -0.4454 -0.1990
    3SAPS  H11R  325   5.012   6.275   9.781  0.3356  1.6343  0.7565
    3SAPS  C212  326   4.960   6.344   9.599 -1.0439 -0.6052  0.1450
    3SAPS  H12R  327   5.048   6.410   9.608 -1.2423 -0.2824 -0.2300
    3SAPS  C213  328   4.891   6.334   9.468 -0.4108 -0.4068  0.3486
    3SAPS  H13R  329   4.790   6.380   9.460 -1.0521 -1.9730 -0.8696
    3SAPS  H13S  330   4.867   6.228   9.444  0.5728 -0.2763 -1.2694
    3SAPS  C214  331   4.977   6.399   9.360 -0.0414  0.2139 -0.0427
    3SAPS  H14R  332   5.084   6.396   9.388 -0.5493 -0.0947  1.9325
    3SAPS  C215  333   4.936   6.463   9.254  0.6073  0.1903  0.2316
    3SAPS  H15R  334   5.002   6.506   9.178  1.2004 -0.0328  0.6146
    3SAPS  C216  335   4.792   6.481   9.218  0.5164 -0.0829 -0.4505
    3SAPS  H16R  336   4.766   6.581   9.258  0.4284  0.0628 -0.8638
    3SAPS  H16S  337   4.726   6.408   9.268 -0.3075  1.4273  0.7002
    3SAPS  C217  338   4.752   6.473   9.070  0.4810 -0.6467 -0.8015
    3SAPS  H17R  339   4.641   6.475   9.074  0.4225 -2.0205 -1.5445
    3SAPS  H17S  340   4.768   6.379   9.014  1.4511  0.8174 -3.0447
    3SAPS  C218  341   4.802   6.592   8.986 -0.2998  0.1215 -1.0029
    3SAPS  H18R  342   4.912   6.605   8.980 -0.2908 -0.7388 -2.9581
    3SAPS  H18S  343   4.774   6.691   9.028  2.4758  0.4522  0.1059
    3SAPS  C219  344   4.748   6.573   8.845  0.4650  0.5222 -0.3392
    3SAPS  H19R  345   4.755   6.463   8.826  0.4973  0.0338  2.3398
    3SAPS  H19S  346   4.795   6.630   8.761 -1.5188  0.2028 -1.6952
    3SAPS  C220  347   4.598   6.608   8.836 -0.1728  0.4212 -0.1961
    3SAPS  H20R  348   4.547   6.553   8.918 -0.2924 -0.6114 -0.9519
    3SAPS  H20S  349   4.559   6.582   8.735 -0.6687  0.4888 -0.0225
    3SAPS  H20T  350   4.589   6.719   8.837  0.8854  0.4992  1.3500
    3SAPS   C33  351   5.062   5.658  10.424  0.2790  0.7247 -0.2536
    3SAPS   H3X  352   5.127   5.584  10.476 -0.3726 -0.8327 -1.6332
    3SAPS   H3Y  353   5.136   5.735  10.392  1.3934 -0.0546  0.3895
    3SAPS   C34  354   4.998   5.599  10.307 -0.1992 -0.4413 -0.4733
    3SAPS   H4X  355   4.929   5.516  10.332  1.3280 -0.9658  2.1857
    3SAPS   H4Y  356   5.082   5.565  10.242  0.5206  0.4040 -0.0003
    3SAPS   C35  357   4.924   5.711  10.227  0.1836 -0.4268 -0.6710
    3SAPS   H5X  358   4.996   5.782  10.183  0.5370 -1.3324 -1.5730
    3SAPS   H5Y  359   4.854   5.777  10.283 -0.4624 -1.6702  0.0339
    3SAPS   C36  360   4.843   5.647  10.112  0.7911  0.5508  1.3863
    3SAPS   H6X  361   4.883   5.555  10.065  0.6473  1.6598 -0.9763
    3SAPS   H6Y  362   4.845   5.722  10.030  1.6896 -0.0530  0.8402
    3SAPS   C37  363   4.696   5.604  10.152 -1.0370  0.0831  0.3209
    3SAPS   H7X  364   4.657   5.702  10.185  0.2358  1.1785 -1.3192
    3SAPS   H7Y  365   4.717   5.541  10.241  0.3429  0.6174  0.3910
    3SAPS   C38  366   4.610   5.532  10.048 -0.0899  0.2388  0.3658
    3SAPS   H8X  367   4.524   5.490  10.104 -0.6133  1.5712  0.5912
    3SAPS   H8Y  368   4.666   5.450   9.997  2.7352  1.0231  2.0802
    3SAPS   C39  369   4.560   5.615   9.936 -0.2667 -0.6422 -0.2493
    3SAPS   H9X  370   4.522   5.707   9.986 -0.4968 -0.7444 -0.2365
    3SAPS   H9Y  371   4.479   5.557   9.888 -0.2546 -1.6490  0.9439
    3SAPS  C310  372   4.656   5.647   9.817 -0.4791  0.0051  0.7976
    3SAPS  H10X  373   4.686   5.545   9.783  0.3709  0.4792  0.1162
    3SAPS  H10Y  374   4.745   5.702   9.853 -0.0692  0.4771 -0.9024
    3SAPS  C311  375   4.580   5.715   9.705  0.0022  0.0531 -0.0357
    3SAPS  H11X  376   4.514   5.784   9.762  1.0739 -0.5250  1.9884
    3SAPS  H11Y  377   4.507   5.640   9.670  0.1213  1.1767 -2.7597
    3SAPS  C312  378   4.673   5.786   9.600 -0.2405  0.0282  0.2818
    3SAPS  H12X  379   4.757   5.714   9.591 -1.2915 -1.2378  0.3482
    3SAPS  H12Y  380   4.706   5.882   9.643 -1.1536  0.4241  0.1072
    3SAPS  C313  381   4.601   5.807   9.469 -0.3158 -0.0734  0.0320
    3SAPS  H13X  382   4.505   5.854   9.497 -0.3539 -0.8103  1.1724
    3SAPS  H13Y  383   4.584   5.704   9.430  1.7423 -0.2719 -0.4244
    3SAPS  C314  384   4.672   5.895   9.368 -0.3145  1.3048 -0.0857
    3SAPS  H14X  385   4.754   5.833   9.328 -1.4429 -0.5424  0.4140
    3SAPS  H14Y  386   4.728   5.982   9.408  0.6441  1.0432 -0.8706
    3SAPS  C315  387   4.586   5.943   9.244  0.6577 -0.0505  0.0635
    3SAPS  H15X  388   4.519   6.027   9.274  1.5690  0.9074 -0.5547
    3SAPS  H15Y  389   4.515   5.862   9.216 -1.7226  2.1168 -0.4486
    3SAPS  C316  390   4.676   5.984   9.123  0.1488  0.4090  0.1473
    3SAPS  H16X  391   4.607   6.027   9.047  1.1299  0.0145 -0.9757
    3SAPS  H16Y  392   4.723   5.893   9.081  1.6968  1.1739  0.2033
    3SAPS  C317  393   4.785   6.084   9.153 -0.5403  0.6093 -0.3442
    3SAPS  H17X  394   4.851   6.047   9.235 -0.9124 -1.7634 -1.0680
    3SAPS  H17Y  395   4.748   6.178   9.200  1.6169  1.1968  0.2141
    3SAPS  C318  396   4.882   6.124   9.046  0.4254  0.5756  0.6504
    3SAPS  H18X  397   4.833   6.175   8.961  0.2980  0.4219  0.6316
    3SAPS  H18Y  398   4.933   6.039   8.995 -2.3944  0.0474 -1.3523
    3SAPS  H18Z  399   4.971   6.174   9.090  1.4563 -1.7790  1.3835
    4SAPS     N  400   6.224   0.215  10.756 -0.5877 -0.5291  0.2943
    4SAPS   HN1  401   6.137   0.249  10.710 -0.2891 -0.0621  0.0743
    4SAPS   HN2  402   6.284   0.173  10.683 -1.0892 -0.0688 -0.3862
    4SAPS   HN3  403   6.195   0.147  10.829 -1.1159 -0.8676 -0.2291
    4SAPS   C12  404   6.288   0.333  10.819 -0.3054  0.7900  0.0990
    4SAPS  H12A  405   6.305   0.412  10.747 -1.5679  0.0741 -1.0090
    4SAPS   C13  406   6.222   0.397  10.944 -0.1843 -0.4752 -0.3192
    4SAPS  O13A  407   6.104   0.358  10.966 -0.5671 -0.4592 -0.3314
    4SAPS  O13B  408   6.282   0.487  11.003  0.5044 -0.2370  0.6485
    4SAPS   C11  409   6.438   0.284  10.866 -0.0050  0.3174  0.7572
    4SAPS  H11A  410   6.435   0.210  10.948  3.6437 -3.0755 -1.9633
    4SAPS  H11B  411   6.497   0.374  10.893  1.7888 -0.2467 -1.1336
    4SAPS     P  412   6.594   0.295  10.657  0.3560  0.0273 -0.4019
    4SAPS   O13  413   6.512   0.405  10.589 -0.2702  0.0119  0.4088
    4SAPS   O14  414   6.720   0.343  10.725  0.1321 -0.9901  0.5205
    4SAPS   O12  415   6.495   0.217  10.754 -0.1012 -0.1279 -0.6261
    4SAPS   O11  416   6.627   0.190  10.556 -0.0840 -0.5614  0.5763
    4SAPS    C1  417   6.557   0.072  10.529  0.7068 -0.4076  0.1385
    4SAPS    HA  418   6.613  -0.006  10.584 -0.4177 -1.2523  0.0993
    4SAPS    HB  419   6.453   0.073  10.567  0.1888 -0.2713 -1.2585
    4SAPS    C2  420   6.557   0.061  10.376  0.3246 -0.6507 -0.0554
    4SAPS    HS  421   6.513  -0.031  10.332 -1.0836  0.7471 -1.6091
    4SAPS   O21  422   6.687   0.066  10.323  0.1262  0.2600 -0.0688
    4SAPS   C21  423   6.759  -0.037  10.361 -0.8798 -0.3986  0.1392
    4SAPS   O22  424   6.726  -0.134  10.420 -0.2425  0.3207  0.4073
    4SAPS   C22  425   6.898  -0.026  10.298  0.1901 -0.0382 -0.3692
    4SAPS   H2R  426   6.964  -0.007  10.385  0.6218  0.4806 -0.8051
    4SAPS   H2S  427   6.916  -0.130  10.265  1.9860  0.8881 -2.4118
    4SAPS    C3  428   6.479   0.176  10.304 -0.3275  0.4030 -0.0683
    4SAPS    HX  429   6.535   0.269  10.325  0.5359 -0.3739  1.1197
    4SAPS    HY  430   6.382   0.177  10.359 -1.4777  1.7622 -2.0561
    4SAPS   O31  431   6.469   0.145  10.162 -0.3101  0.3538  0.0637
    4SAPS   C31  432   6.534   0.228  10.085  0.0467 -0.6688 -0.2174
    4SAPS   O32  433   6.593   0.331  10.121 -0.0624  0.1764 -0.2306
    4SAPS   C32  434   6.538   0.193   9.935  0.7695 -0.3140 -0.6742
    4SAPS   H2X  435   6.639   0.149   9.922  1.1244  0.7285 -1.5430
    4SAPS   H2Y  436   6.534   0.289   9.880  0.1169 -0.8470 -1.5876
    4SAPS   C23  437   6.929   0.097  10.205  0.5701  0.9942  0.5364
    4SAPS   H3R  438   6.941   0.188  10.268 -1.2292  0.5378  1.5773
    4SAPS   H3S  439   6.848   0.122  10.134  1.5485 -1.5011 -1.5585
    4SAPS   C24  440   7.063   0.066  10.127  0.4333  0.3448 -0.1281
    4SAPS   H4R  441   7.030  -0.014  10.058 -0.1944  0.9151 -0.4886
    4SAPS   H4S  442   7.143   0.034  10.198 -0.7621  1.1967  1.6382
    4SAPS   C25  443   7.112   0.177  10.037 -0.4001 -0.8548 -0.2233
    4SAPS   H5R  444   7.190   0.238  10.085  0.1754 -1.2680 -0.6339
    4SAPS   C26  445   7.056   0.225   9.923 -0.0539 -0.5950  0.2185
    4SAPS   H6R  446   7.103   0.310   9.871  1.4217 -0.7877  1.2260
    4SAPS   C27  447   6.932   0.175   9.856 -0.1814 -0.0866  0.0211
    4SAPS   H7R  448   6.888   0.102   9.927 -1.3165 -0.2973 -0.8845
    4SAPS   H7S  449   6.961   0.118   9.765 -1.7295  0.3075 -0.7317
    4SAPS   C28  450   6.845   0.288   9.827 -0.2209  0.3922  0.4201
    4SAPS   H8R  451   6.813   0.337   9.921  0.0622  1.7364 -0.1668
    4SAPS   C29  452   6.802   0.327   9.705  0.2451  0.5394 -0.1923
    4SAPS   H9R  453   6.730   0.411   9.705  0.2966  0.5827 -0.3044
    4SAPS  C210  454   6.840   0.265   9.576 -0.1433  0.0008 -0.2914
    4SAPS  H10R  455   6.773   0.178   9.562  0.8462 -0.8439  0.1814
    4SAPS  H10S  456   6.941   0.219   9.583  0.7570  1.6391 -2.0468
    4SAPS  C211  457   6.833   0.346   9.443  0.1973  0.2788  0.0141
    4SAPS  H11R  458   6.931   0.387   9.411 -0.6751  1.3909 -1.2729
    4SAPS  C212  459   6.727   0.392   9.376  0.2957  0.0420 -0.2658
    4SAPS  H12R  460   6.735   0.450   9.283  1.2657  1.1051  0.4635
    4SAPS  C213  461   6.579   0.379   9.411  0.7774 -0.3731 -0.2462
    4SAPS  H13R  462   6.549   0.479   9.448  2.6719  0.3702 -0.6560
    4SAPS  H13S  463   6.559   0.314   9.499  0.3699  0.5338  0.3422
    4SAPS  C214  464   6.488   0.328   9.291 -0.1419  0.4285  0.1680
    4SAPS  H14R  465   6.445   0.230   9.315  0.7637 -0.1230 -0.4373
    4SAPS  C215  466   6.446   0.399   9.183 -0.2696 -0.2807 -0.1562
    4SAPS  H15R  467   6.391   0.352   9.101 -2.1752 -1.1679  1.5705
    4SAPS  C216  468   6.494   0.536   9.146 -0.7563  0.3056  0.7579
    4SAPS  H16R  469   6.562   0.575   9.225  0.1446 -0.0064  0.1500
    4SAPS  H16S  470   6.409   0.608   9.138 -1.1757 -0.4603 -2.0102
    4SAPS  C217  471   6.574   0.542   9.009 -1.1157  0.2347  0.3155
    4SAPS  H17R  472   6.646   0.457   9.015 -0.2618  0.8691 -0.7540
    4SAPS  H17S  473   6.626   0.640   9.013 -1.4890  0.3650  2.8536
    4SAPS  C218  474   6.488   0.534   8.886  0.2695 -0.2008  0.6520
    4SAPS  H18R  475   6.406   0.608   8.900  0.6951  0.8541 -2.0930
    4SAPS  H18S  476   6.436   0.438   8.870  2.7707 -1.2001 -1.7832
    4SAPS  C219  477   6.552   0.577   8.749 -0.4697 -0.3234  1.0447
    4SAPS  H19R  478   6.621   0.492   8.728  0.2496  0.7927 -1.2051
    4SAPS  H19S  479   6.622   0.663   8.755  2.1885 -2.3974  0.5985
    4SAPS  C220  480   6.451   0.603   8.633 -0.0697  0.6636 -0.0770
    4SAPS  H20R  481   6.516   0.619   8.545  1.3062  0.9195  0.9610
    4SAPS  H20S  482   6.384   0.687   8.661 -0.2689  0.2675  0.6720
    4SAPS  H20T  483   6.387   0.512   8.628  0.5742  0.1577  0.7514
    4SAPS   C33  484   6.425   0.096   9.884  0.1837 -0.8278 -0.3070
    4SAPS   H3X  485   6.325   0.119   9.926  0.7736  1.2265  0.0293
    4SAPS   H3Y  486   6.447  -0.011   9.905 -2.0544 -1.1101  0.7301
    4SAPS   C34  487   6.409   0.116   9.731  0.4238  0.0591 -0.2113
    4SAPS   H4X  488   6.498   0.161   9.681  0.0519  1.5437  0.4285
    4SAPS   H4Y  489   6.334   0.198   9.721  2.1647  1.6506 -0.6190
    4SAPS   C35  490   6.364  -0.011   9.656 -0.2395 -0.4737  0.2371
    4SAPS   H5X  491   6.257  -0.035   9.672 -0.4279 -1.4390 -2.2313
    4SAPS   H5Y  492   6.418  -0.096   9.702 -2.2993 -2.0847 -0.2602
    4SAPS   C36  493   6.387  -0.006   9.510 -0.1314  1.6954 -0.1666
    4SAPS   H6X  494   6.493  -0.005   9.476  0.5767  0.2252  1.8994
    4SAPS   H6Y  495   6.341   0.082   9.460 -1.0048  1.8436  0.8946
    4SAPS   C37  496   6.328  -0.136   9.450  0.5829  0.2431  0.0504
    4SAPS   H7X  497   6.217  -0.131   9.460  0.6658  0.0462  1.1797
    4SAPS   H7Y  498   6.358  -0.229   9.503  0.4499  0.2462  0.1331
    4SAPS   C38  499   6.354  -0.149   9.299  0.4933 -0.6204 -0.2769
    4SAPS   H8X  500   6.311  -0.242   9.256 -0.2852 -0.7537  0.7593
    4SAPS   H8Y  501   6.462  -0.146   9.275  0.5655 -3.5774 -0.5710
    4SAPS   C39  502   6.286  -0.038   9.211  0.1324 -0.1419 -0.2948
    4SAPS   H9X  503   6.331   0.063   9.219 -0.3170 -0.0640  1.3016
    4SAPS   H9Y  504   6.181  -0.024   9.243  1.1677  1.2538  2.5851
    4SAPS  C310  505   6.301  -0.068   9.058 -0.2585 -0.2457 -0.1149
    4SAPS  H10X  506   6.241  -0.008   8.987  0.1898 -0.8431 -1.0100
    4SAPS  H10Y  507   6.274  -0.173   9.033  0.4641 -0.9825  2.0210
    4SAPS  C311  508   6.451  -0.056   9.009 -0.5682 -0.8344  0.3890
    4SAPS  H11X  509   6.490  -0.140   8.948 -1.1581 -1.9538  1.5322
    4SAPS  H11Y  510   6.517  -0.064   9.098 -2.8895  0.7383  2.3148
    4SAPS  C312  511   6.480   0.073   8.930 -0.7166 -0.1397 -0.6152
    4SAPS  H12X  512   6.587   0.098   8.949 -0.8234 -0.3290  0.2527
    4SAPS  H12Y  513   6.418   0.155   8.973 -0.2691  0.0840 -0.3886
    4SAPS  C313  514   6.444   0.063   8.780 -0.1971  0.0308  0.1300
    4SAPS  H13X  515   6.341   0.033   8.751 -0.9651  0.8688  1.9664
    4SAPS  H13Y  516   6.514  -0.010   8.733  0.3645  1.7345 -1.7299
    4SAPS  C314  517   6.482   0.195   8.709 -0.0020 -0.2721 -1.2341
    4SAPS  H14X  518   6.589   0.222   8.723 -0.0648 -0.5008 -0.2888
    4SAPS  H14Y  519   6.424   0.278   8.754  1.8272  1.5288 -2.0979
    4SAPS  C315  520   6.448   0.192   8.564  0.7222  0.4304  0.4620
    4SAPS  H15X  521   6.492   0.287   8.525  0.8173 -0.8844 -2.7579
    4SAPS  H15Y  522   6.339   0.200   8.549  0.6345 -2.5515 -0.7196
    4SAPS  C316  523   6.507   0.076   8.484 -0.2225 -0.2622  0.0813
    4SAPS  H16X  524   6.437  -0.007   8.509  1.8092 -2.3868 -1.1595
    4SAPS  H16Y  525   6.612   0.053   8.512  0.0698  0.9845  0.0366
    4SAPS  C317  526   6.502   0.101   8.329 -0.0999  0.2211 -0.2700
    4SAPS  H17X  527   6.399   0.137   8.310 -0.2066  0.0217 -0.0665
    4SAPS  H17Y  528   6.522  -0.001   8.288 -0.1306  0.5298 -1.0660
    4SAPS  C318  529   6.611   0.191   8.268 -0.3882  0.6311  0.1061
    4SAPS  H18X  530   6.697   0.130   8.235 -0.6060 -0.3518  1.3561
    4SAPS  H18Y  531   6.648   0.258   8.349 -0.0328  0.8577 -0.2393
    4SAPS  H18Z  532   6.571   0.254   8.185  2.0661  0.2739 -1.4120
    5SAPS     N  533   4.430   5.779  11.234 -0.5199 -0.1340 -0.1089
    5SAPS   HN1  534   4.348   5.843  11.228 -0.6349 -0.3734 -1.1690
    5SAPS   HN2  535   4.407   5.698  11.295  2.5914  0.1651  1.5898
    5SAPS   HN3  536   4.509   5.824  11.284 -1.7431 -0.7500  2.4879
    5SAPS   C12  537   4.479   5.741  11.103  0.2194  0.7086  0.3086
    5SAPS  H12A  538   4.575   5.697  11.124  0.2740  0.7837  0.2206
    5SAPS   C13  539   4.380   5.634  11.029 -0.0027  0.1040  0.8207
    5SAPS  O13A  540   4.281   5.589  11.094  0.0008 -0.4304  0.6050
    5SAPS  O13B  541   4.419   5.579  10.925  0.6065 -0.4107 -0.0422
    5SAPS   C11  542   4.493   5.870  11.009  0.0828  0.3896  0.0387
    5SAPS  H11A  543   4.400   5.929  11.003  0.9071  1.5986 -0.9849
    5SAPS  H11B  544   4.507   5.830  10.907  0.2863 -0.0151  0.2218
    5SAPS     P  545   4.608   6.103  11.049 -0.1251 -0.5858 -0.5802
    5SAPS   O13  546   4.479   6.159  11.090 -0.0059  0.4263 -0.1761
    5SAPS   O14  547   4.726   6.154  11.117 -0.0112  0.1510 -0.2451
    5SAPS   O12  548   4.606   5.948  11.049 -0.0620 -0.2673 -0.0703
    5SAPS   O11  549   4.631   6.125  10.892  0.1085 -0.0638 -0.5976
    5SAPS    C1  550   4.516   6.127  10.800 -0.1989 -0.5354  0.3255
    5SAPS    HA  551   4.451   6.040  10.820 -0.0031 -0.9122 -0.6456
    5SAPS    HB  552   4.444   6.207  10.828 -0.8339 -0.8525 -0.3733
    5SAPS    C2  553   4.553   6.142  10.653  0.9194 -0.5465  0.1712
    5SAPS    HS  554   4.644   6.205  10.644  0.1098  0.9082  1.7937
    5SAPS   O21  555   4.438   6.200  10.574 -0.0849 -0.1524  0.2345
    5SAPS   C21  556   4.421   6.328  10.597 -0.5512  0.5105  0.3421
    5SAPS   O22  557   4.502   6.389  10.661  0.2288 -0.1281 -0.4757
    5SAPS   C22  558   4.306   6.377  10.517  0.2582  0.2297  0.2910
    5SAPS   H2R  559   4.227   6.419  10.583 -2.7278 -2.4443 -1.4479
    5SAPS   H2S  560   4.359   6.457  10.462 -0.9690  1.1744  0.4473
    5SAPS    C3  561   4.613   6.005  10.597  0.3525  0.1046  0.0693
    5SAPS    HX  562   4.556   5.917  10.635  1.1840  0.1175  1.3611
    5SAPS    HY  563   4.714   5.988  10.640  1.3080  1.9771 -1.3101
    5SAPS   O31  564   4.634   6.010  10.453 -0.0237 -0.2023  0.2119
    5SAPS   C31  565   4.525   5.984  10.376  0.1655  0.3890  0.7191
    5SAPS   O32  566   4.422   5.942  10.425  0.7314 -0.1205 -0.3503
    5SAPS   C32  567   4.559   6.014  10.230  0.4588  0.3441 -0.4117
    5SAPS   H2X  568   4.632   5.935  10.200 -0.4240 -0.7874  0.3657
    5SAPS   H2Y  569   4.609   6.113  10.228  1.0984  0.0794  1.4713
    5SAPS   C23  570   4.239   6.278  10.426 -0.3738  1.2803  0.7244
    5SAPS   H3R  571   4.150   6.237  10.478 -0.1036  0.8185  0.8155
    5SAPS   H3S  572   4.303   6.192  10.397 -1.2633  0.7394  0.3416
    5SAPS   C24  573   4.188   6.334  10.293 -0.0848  0.1066 -0.2676
    5SAPS   H4R  574   4.145   6.241  10.249  0.7771 -0.8762  0.9134
    5SAPS   H4S  575   4.268   6.369  10.225 -0.0522  0.1084 -0.2282
    5SAPS   C25  576   4.085   6.452  10.302 -0.4150  0.1066  0.8109
    5SAPS   H5R  577   4.095   6.511  10.394  1.3056 -2.8384  2.5893
    5SAPS   C26  578   3.983   6.473  10.219 -0.1420 -1.2252 -0.4209
    5SAPS   H6R  579   3.927   6.566  10.238  0.3543 -1.3927  2.0250
    5SAPS   C27  580   3.951   6.406  10.088 -0.4288 -0.1005 -0.6791
    5SAPS   H7R  581   3.847   6.428  10.054 -1.7610 -2.8415  1.4119
    5SAPS   H7S  582   3.946   6.297  10.105  0.2590 -0.2019 -1.1197
    5SAPS   C28  583   4.044   6.442   9.974  0.9297  0.3459 -0.6249
    5SAPS   H8R  584   4.149   6.439  10.008  0.1686 -1.1537  1.7684
    5SAPS   C29  585   4.028   6.421   9.843 -0.3580 -0.0631  0.1212
    5SAPS   H9R  586   4.110   6.449   9.775 -1.0155  2.1655  0.2066
    5SAPS  C210  587   3.900   6.380   9.779  0.2806  0.7083  0.3249
    5SAPS  H10R  588   3.853   6.453   9.709 -0.9793 -2.5060 -2.3127
    5SAPS  H10S  589   3.829   6.362   9.862 -1.1761  0.2092 -0.9982
    5SAPS  C211  590   3.911   6.257   9.700 -0.1278 -0.4674  0.0254
    5SAPS  H11R  591   3.900   6.164   9.758  0.2979  0.2924  1.3267
    5SAPS  C212  592   3.936   6.236   9.570  0.1944  0.6976 -0.9268
    5SAPS  H12R  593   3.935   6.132   9.535  4.3302  0.6521 -1.1494
    5SAPS  C213  594   3.960   6.344   9.464 -0.4590 -0.4362  0.2709
    5SAPS  H13R  595   4.044   6.308   9.401  0.1222  0.4254  0.5370
    5SAPS  H13S  596   3.987   6.440   9.513  1.0855 -1.6407  1.8260
    5SAPS  C214  597   3.839   6.375   9.371 -0.0116 -1.3106  0.1903
    5SAPS  H14R  598   3.739   6.334   9.392 -1.8665  3.6753  1.7087
    5SAPS  C215  599   3.835   6.457   9.266  0.2398 -0.2741 -0.1814
    5SAPS  H15R  600   3.734   6.473   9.224  0.5572  0.8183 -0.5401
    5SAPS  C216  601   3.946   6.536   9.208 -0.1617  0.4582  0.0261
    5SAPS  H16R  602   4.038   6.533   9.271  0.4133 -0.0575 -0.8368
    5SAPS  H16S  603   3.910   6.641   9.206  0.6012  0.6995 -0.9158
    5SAPS  C217  604   3.991   6.505   9.064 -0.4432 -0.0906  0.1947
    5SAPS  H17R  605   3.900   6.506   9.000  0.7146 -0.1926 -1.4573
    5SAPS  H17S  606   4.033   6.403   9.071 -0.3545  0.0077  1.1638
    5SAPS  C218  607   4.082   6.596   8.993 -0.2371 -0.1278 -0.0182
    5SAPS  H18R  608   4.038   6.693   8.962 -0.1590 -0.1220 -0.1129
    5SAPS  H18S  609   4.172   6.622   9.053 -0.0553  3.2609 -1.6836
    5SAPS  C219  610   4.138   6.532   8.866  0.3749 -0.3914  0.0560
    5SAPS  H19R  611   4.065   6.485   8.796  0.4075  1.0757 -0.9806
    5SAPS  H19S  612   4.215   6.456   8.893  1.7644  1.4706  1.4797
    5SAPS  C220  613   4.206   6.639   8.784 -0.7892  0.0101  0.0755
    5SAPS  H20R  614   4.124   6.701   8.741 -1.9493 -1.3183  0.3432
    5SAPS  H20S  615   4.241   6.590   8.691  0.1247 -0.3414  0.5959
    5SAPS  H20T  616   4.275   6.703   8.844  2.4267 -2.8715 -0.4130
    5SAPS   C33  617   4.447   6.015  10.126 -0.0243 -0.0842 -0.6365
    5SAPS   H3X  618   4.366   6.066  10.182  0.9046 -0.5505  1.1773
    5SAPS   H3Y  619   4.420   5.908  10.114  0.1033  0.1457 -3.3163
    5SAPS   C34  620   4.463   6.084   9.990 -0.5034 -0.2005  0.2985
    5SAPS   H4X  621   4.551   6.033   9.946  0.5914  2.1806 -0.3859
    5SAPS   H4Y  622   4.481   6.191  10.013 -0.0595  0.5304 -3.1769
    5SAPS   C35  623   4.343   6.074   9.898  0.7301  0.6684 -0.5643
    5SAPS   H5X  624   4.256   6.112   9.955  1.9463 -0.2257  1.9893
    5SAPS   H5Y  625   4.328   5.966   9.879  2.4256 -0.1363  2.2413
    5SAPS   C36  626   4.351   6.152   9.774 -0.0852  0.1640  0.3241
    5SAPS   H6X  627   4.371   6.255   9.811 -0.3392  0.2757  0.1493
    5SAPS   H6Y  628   4.262   6.154   9.707  1.0979 -0.2858 -1.2919
    5SAPS   C37  629   4.463   6.122   9.676 -0.0862  0.1194 -0.0267
    5SAPS   H7X  630   4.457   6.016   9.643 -2.9631  0.2228  0.0475
    5SAPS   H7Y  631   4.551   6.111   9.743 -0.1972  0.2771  0.1496
    5SAPS   C38  632   4.497   6.222   9.569 -0.2184  0.4269  0.2033
    5SAPS   H8X  633   4.598   6.202   9.528  0.2965 -0.5559  1.8969
    5SAPS   H8Y  634   4.502   6.322   9.617 -1.4990 -0.7218  2.8376
    5SAPS   C39  635   4.390   6.221   9.457  0.0516  1.7194  1.0206
    5SAPS   H9X  636   4.288   6.228   9.500 -0.5680 -2.0327  0.2779
    5SAPS   H9Y  637   4.400   6.118   9.416  2.5312  2.2382  0.2317
    5SAPS  C310  638   4.406   6.329   9.348  0.4474 -0.2183 -0.0170
    5SAPS  H10X  639   4.513   6.321   9.316  0.6450 -2.8655  1.1506
    5SAPS  H10Y  640   4.405   6.429   9.396 -1.4399 -0.5010  0.5653
    5SAPS  C311  641   4.310   6.312   9.228 -0.3754 -1.0030 -0.1816
    5SAPS  H11X  642   4.343   6.380   9.146  0.7862  1.4025  2.1895
    5SAPS  H11Y  643   4.203   6.336   9.246 -0.1491 -0.1967  0.1120
    5SAPS  C312  644   4.305   6.167   9.171 -0.1401 -0.3018 -0.1905
    5SAPS  H12X  645   4.256   6.099   9.244 -3.2594  0.2477 -1.6967
    5SAPS  H12Y  646   4.412   6.138   9.161  0.6092  2.0534  0.3949
    5SAPS  C313  647   4.237   6.153   9.032  0.4427  0.7969  0.2205
    5SAPS  H13X  648   4.262   6.230   8.955 -0.4204 -0.0746 -0.9567
    5SAPS  H13Y  649   4.127   6.167   9.035  0.5317  1.7009 -0.4999
    5SAPS  C314  650   4.258   6.007   8.978 -0.8937  0.2363  0.0335
    5SAPS  H14X  651   4.188   5.930   9.015 -0.0373 -2.0752 -2.9402
    5SAPS  H14Y  652   4.354   5.961   9.010 -0.5805  1.9326  1.5670
    5SAPS  C315  653   4.244   6.001   8.823  0.4430  0.6242  0.0738
    5SAPS  H15X  654   4.317   6.066   8.771  0.3104  1.3070  0.7314
    5SAPS  H15Y  655   4.145   6.050   8.811 -1.5374 -2.9413  1.2504
    5SAPS  C316  656   4.237   5.859   8.785 -0.0101 -0.1410 -1.2627
    5SAPS  H16X  657   4.133   5.821   8.795  0.4235 -1.1681 -0.6760
    5SAPS  H16Y  658   4.312   5.812   8.851  0.1166  0.2071 -1.1596
    5SAPS  C317  659   4.261   5.824   8.639  0.4040 -0.6823  0.1814
    5SAPS  H17X  660   4.355   5.863   8.594  0.2690 -2.1492 -1.4111
    5SAPS  H17Y  661   4.179   5.879   8.589  0.4389 -0.3018  0.5430
    5SAPS  C318  662   4.240   5.677   8.599 -0.7009 -0.0211 -0.0348
    5SAPS  H18X  663   4.135   5.640   8.598 -0.1621 -1.7254  2.6658
    5SAPS  H18Y  664   4.290   5.604   8.666 -1.8063  0.8595  1.7968
    5SAPS  H18Z  665   4.268   5.653   8.494 -0.2972 -1.0423  0.3116
    6SAPS     N  666   4.142   5.452  10.867  0.1508 -0.2597  0.5950
    6SAPS   HN1  667   4.161   5.517  10.946  2.2661  0.5939 -0.5579
    6SAPS   HN2  668   4.235   5.431  10.824 -0.5455 -1.1967 -0.4718
    6SAPS   HN3  669   4.082   5.492  10.792  1.2724  2.0127  0.8807
    6SAPS   C12  670   4.069   5.325  10.891 -1.2285 -0.1938 -0.2292
    6SAPS  H12A  671   4.137   5.252  10.932  1.0507  2.3535  0.6800
    6SAPS   C13  672   3.960   5.332  11.003 -0.1344  0.4146 -0.7476
    6SAPS  O13A  673   3.914   5.440  11.046  0.1249  0.2682 -0.1463
    6SAPS  O13B  674   3.910   5.224  11.043 -0.2950 -0.7498  0.4419
    6SAPS   C11  675   3.998   5.285  10.760 -0.2313  0.0227  0.1939
    6SAPS  H11A  676   3.940   5.191  10.771  0.7024 -1.1226 -3.8606
    6SAPS  H11B  677   4.084   5.258  10.695  1.0650  2.8571  0.6244
    6SAPS     P  678   3.766   5.364  10.648 -0.0983  0.2536  0.0516
    6SAPS   O13  679   3.669   5.372  10.762  0.2201  0.0614  0.0162
    6SAPS   O14  680   3.743   5.454  10.527  0.5494 -0.0989  0.4792
    6SAPS   O12  681   3.918   5.386  10.703 -0.2905  0.2833  0.1126
    6SAPS   O11  682   3.763   5.217  10.591 -0.5570  0.5310  0.2342
    6SAPS    C1  683   3.835   5.175  10.472  0.3816 -0.3729 -0.1931
    6SAPS    HA  684   3.921   5.238  10.441 -0.6801  0.2366 -1.9642
    6SAPS    HB  685   3.871   5.073  10.498  2.9596  0.4540 -0.4198
    6SAPS    C2  686   3.745   5.164  10.343 -0.0070  0.1433  0.9572
    6SAPS    HS  687   3.803   5.115  10.262 -0.5147 -1.2417  1.4241
    6SAPS   O21  688   3.688   5.287  10.305  0.2873  0.2477 -0.3519
    6SAPS   C21  689   3.769   5.370  10.238 -0.2472 -0.1516  0.3822
    6SAPS   O22  690   3.889   5.364  10.226  0.0092  0.2051  0.1198
    6SAPS   C22  691   3.682   5.475  10.171  0.9252 -0.1335  0.8459
    6SAPS   H2R  692   3.585   5.424  10.153  1.9602 -1.9322  0.2481
    6SAPS   H2S  693   3.666   5.554  10.248 -3.9309 -1.4802  1.4241
    6SAPS    C3  694   3.619   5.080  10.374 -0.2665 -0.4473 -1.3078
    6SAPS    HX  695   3.557   5.140  10.443  1.6114 -1.8294  1.6516
    6SAPS    HY  696   3.657   4.998  10.438 -1.7102  0.0144  0.1517
    6SAPS   O31  697   3.561   5.020  10.260  0.2466 -0.4286 -0.0525
    6SAPS   C31  698   3.458   5.086  10.224  0.1153  0.0439  0.4316
    6SAPS   O32  699   3.404   5.179  10.281  0.1345 -0.5511 -0.0468
    6SAPS   C32  700   3.408   5.031  10.087 -0.3070 -0.0822  0.6263
    6SAPS   H2X  701   3.392   4.921  10.099  0.7191 -0.4650 -1.2806
    6SAPS   H2Y  702   3.500   5.038  10.026 -1.7432 -0.3156 -1.6387
    6SAPS   C23  703   3.744   5.537  10.045  0.2222  0.1266 -0.1970
    6SAPS   H3R  704   3.849   5.569  10.060  0.0435  0.9010 -0.6125
    6SAPS   H3S  705   3.685   5.631  10.038  0.7139  0.5250  0.8991
    6SAPS   C24  706   3.725   5.469   9.910  0.4681 -0.9249  0.8107
    6SAPS   H4R  707   3.758   5.536   9.827 -0.6320  1.8768  2.5813
    6SAPS   H4S  708   3.616   5.458   9.894  0.1062  2.8050  0.1341
    6SAPS   C25  709   3.805   5.337   9.902  0.6345 -0.0228 -0.0375
    6SAPS   H5R  710   3.885   5.319   9.976  0.3139  3.0560  1.1362
    6SAPS   C26  711   3.777   5.236   9.824  0.0813  0.3383 -0.4011
    6SAPS   H6R  712   3.836   5.143   9.822  0.5639  0.6669 -2.5692
    6SAPS   C27  713   3.666   5.235   9.717  0.0501 -0.5408 -0.0847
    6SAPS   H7R  714   3.573   5.247   9.776 -1.0582  0.5900 -2.0066
    6SAPS   H7S  715   3.658   5.129   9.685  1.9656 -0.5073 -0.7656
    6SAPS   C28  716   3.654   5.340   9.604  0.1634 -0.1252 -0.0125
    6SAPS   H8R  717   3.695   5.440   9.626 -1.1130  0.7889 -1.7622
    6SAPS   C29  718   3.598   5.320   9.484  0.8480  0.0430 -0.0334
    6SAPS   H9R  719   3.589   5.402   9.411 -1.8813 -0.2256 -0.0382
    6SAPS  C210  720   3.533   5.188   9.444  0.0142  0.0112  0.1149
    6SAPS  H10R  721   3.434   5.216   9.402 -0.8280 -3.5690 -0.4956
    6SAPS  H10S  722   3.499   5.119   9.523  0.3992 -1.6842 -1.1686
    6SAPS  C211  723   3.615   5.108   9.350 -0.0473  1.2101  1.3335
    6SAPS  H11R  724   3.720   5.088   9.374  0.0072 -0.4995 -0.2270
    6SAPS  C212  725   3.574   5.048   9.239 -0.1484  0.5620 -0.3744
    6SAPS  H12R  726   3.646   4.998   9.173 -1.2568 -0.1143 -1.0958
    6SAPS  C213  727   3.431   5.037   9.192 -0.1849  0.4095 -0.1252
    6SAPS  H13R  728   3.353   5.056   9.268  0.4013 -1.0220  0.8652
    6SAPS  H13S  729   3.409   4.934   9.157 -0.9699 -0.1264  1.8852
    6SAPS  C214  730   3.397   5.138   9.082  0.7394  0.4717  0.3122
    6SAPS  H14R  731   3.374   5.241   9.113 -1.1886  0.7380 -1.9165
    6SAPS  C215  732   3.390   5.102   8.950 -0.2324 -0.9015 -0.3771
    6SAPS  H15R  733   3.348   5.179   8.883 -1.0158 -1.5726 -0.6716
    6SAPS  C216  734   3.414   4.972   8.883 -0.1308  0.1535 -0.2133
    6SAPS  H16R  735   3.467   4.895   8.943  1.7284  1.4410 -0.1682
    6SAPS  H16S  736   3.476   4.975   8.791  0.6236 -1.9286  0.2050
    6SAPS  C217  737   3.281   4.902   8.840  0.2943 -0.2392 -1.1968
    6SAPS  H17R  738   3.220   4.856   8.921  0.2442  0.3981 -0.8694
    6SAPS  H17S  739   3.297   4.806   8.787  0.8374 -1.7089  1.5507
    6SAPS  C218  740   3.189   4.987   8.754 -0.2515  0.4780 -0.7118
    6SAPS  H18R  741   3.149   5.079   8.801 -2.3472 -1.3175  1.1424
    6SAPS  H18S  742   3.106   4.915   8.736  0.1675 -0.0754 -0.4692
    6SAPS  C219  743   3.254   5.012   8.615 -0.2904  0.5527 -0.2109
    6SAPS  H19R  744   3.305   4.918   8.588  0.5706  0.9473  0.0195
    6SAPS  H19S  745   3.324   5.097   8.630  0.2935 -0.0752  0.6491
    6SAPS  C220  746   3.149   5.063   8.516 -0.3787 -0.4538 -0.0721
    6SAPS  H20R  747   3.081   5.137   8.562 -0.3187 -1.9307  2.4803
    6SAPS  H20S  748   3.072   4.988   8.486 -1.0709  0.0108  0.5196
    6SAPS  H20T  749   3.184   5.093   8.415  3.2014  2.6345  1.9604
    6SAPS   C33  750   3.292   5.104  10.023  0.5514  1.0884  0.3643
    6SAPS   H3X  751   3.228   5.159  10.095 -0.8111  0.6486 -0.4979
    6SAPS   H3Y  752   3.228   5.029   9.972 -1.3990  1.8910  1.5737
    6SAPS   C34  753   3.336   5.224   9.933 -0.2654  0.4491  1.4770
    6SAPS   H4X  754   3.376   5.187   9.836 -0.6062  0.0577  1.4876
    6SAPS   H4Y  755   3.413   5.280   9.990  0.0963  1.4070  0.0855
    6SAPS   C35  756   3.223   5.320   9.898 -0.2937 -0.2858 -0.6479
    6SAPS   H5X  757   3.246   5.394   9.819 -1.9271 -0.6881 -1.5394
    6SAPS   H5Y  758   3.201   5.384   9.986  4.3876 -0.5676  0.8663
    6SAPS   C36  759   3.093   5.261   9.843 -0.2563 -0.0799  0.3139
    6SAPS   H6X  760   3.021   5.345   9.837 -1.9518 -1.3750  1.7037
    6SAPS   H6Y  761   3.054   5.188   9.917 -1.2347  0.0177 -0.1023
    6SAPS   C37  762   3.105   5.199   9.708  0.3040  0.1595 -0.3235
    6SAPS   H7X  763   3.002   5.187   9.667 -1.4949 -0.2479  4.0129
    6SAPS   H7Y  764   3.156   5.100   9.709 -0.9844 -0.5308 -1.0006
    6SAPS   C38  765   3.170   5.290   9.600 -0.2132 -0.8997  0.0578
    6SAPS   H8X  766   3.279   5.304   9.618 -0.0186 -1.7163 -0.4962
    6SAPS   H8Y  767   3.119   5.387   9.621  2.1112  0.6541 -1.1720
    6SAPS   C39  768   3.137   5.255   9.459  0.0203  0.2406 -0.0861
    6SAPS   H9X  769   3.033   5.217   9.452 -0.3573  1.0668  0.9164
    6SAPS   H9Y  770   3.197   5.166   9.428 -0.6715  0.9244 -3.5111
    6SAPS  C310  771   3.172   5.350   9.346  1.1130 -0.3104 -0.5380
    6SAPS  H10X  772   3.282   5.340   9.335  1.3942 -1.6611  2.8144
    6SAPS  H10Y  773   3.146   5.454   9.378 -0.8405 -0.6803 -0.8874
    6SAPS  C311  774   3.116   5.321   9.204  0.4212 -0.3706 -0.0964
    6SAPS  H11X  775   3.005   5.321   9.197  0.5742 -1.4637 -3.2734
    6SAPS  H11Y  776   3.154   5.226   9.162 -0.1042  0.1444 -1.7486
    6SAPS  C312  777   3.167   5.436   9.110  0.3003  0.4101 -0.1690
    6SAPS  H12X  778   3.276   5.413   9.118 -0.0304 -0.0590  3.7604
    6SAPS  H12Y  779   3.140   5.531   9.160 -3.0500 -1.5486  1.9591
    6SAPS  C313  780   3.111   5.424   8.967  0.7811 -0.0114 -0.4224
    6SAPS  H13X  781   3.017   5.480   8.947  1.6863  1.8139  0.2477
    6SAPS  H13Y  782   3.089   5.320   8.934 -1.1317  0.8981 -2.1328
    6SAPS  C314  783   3.205   5.477   8.866 -0.4538 -0.0695  0.0573
    6SAPS  H14X  784   3.307   5.445   8.894 -0.1322  0.9943  0.1298
    6SAPS  H14Y  785   3.204   5.587   8.882 -0.6349 -0.3007  1.6834
    6SAPS  C315  786   3.171   5.441   8.719  0.0782 -0.5354 -0.1537
    6SAPS  H15X  787   3.061   5.426   8.720  0.2165 -1.5408  0.4651
    6SAPS  H15Y  788   3.216   5.344   8.687  0.9967  0.1629 -1.0348
    6SAPS  C316  789   3.192   5.547   8.618 -0.9666  0.3406  0.2408
    6SAPS  H16X  790   3.147   5.638   8.665 -1.2580  0.0096  0.6041
    6SAPS  H16Y  791   3.141   5.514   8.525 -1.2084 -0.3480  0.6206
    6SAPS  C317  792   3.337   5.567   8.597  0.3235 -0.1905 -0.2156
    6SAPS  H17X  793   3.401   5.476   8.605  0.8251  0.1749 -0.0170
    6SAPS  H17Y  794   3.375   5.643   8.668  2.6458 -0.2752 -1.3089
    6SAPS  C318  795   3.369   5.629   8.459 -0.4761  0.1651  0.1744
    6SAPS  H18X  796   3.468   5.679   8.459 -1.8235  3.0079 -1.0897
    6SAPS  H18Y  797   3.295   5.704   8.421  1.0492  1.3060 -0.5999
    6SAPS  H18Z  798   3.372   5.546   8.386 -1.6822 -0.8040  1.1995
    7SAPS     N  799   5.301   6.553  10.817  0.1945  0.2590 -0.1813
    7SAPS   HN1  800   5.359   6.504  10.888  1.3430  2.2295  0.2468
    7SAPS   HN2  801   5.201   6.527  10.829 -0.1546  1.5370 -0.2774
    7SAPS   HN3  802   5.340   6.521  10.726 -0.8543  1.2315 -0.9935
    7SAPS   C12  803   5.323   6.693  10.829  0.2043  0.3093  0.1221
    7SAPS  H12A  804   5.262   6.747  10.757 -0.7597 -0.7357  0.1329
    7SAPS   C13  805   5.301   6.753  10.972 -0.3968  0.2463 -0.5229
    7SAPS  O13A  806   5.291   6.668  11.064 -0.1923 -0.0828 -0.7233
    7SAPS  O13B  807   5.311   6.875  10.994  0.5050 -0.6150 -0.0641
    7SAPS   C11  808   5.464   6.730  10.780 -0.5454 -0.4869 -0.1870
    7SAPS  H11A  809   5.540   6.701  10.856 -2.2022  2.9403  2.9239
    7SAPS  H11B  810   5.475   6.840  10.791 -0.7035 -0.3714 -1.1142
    7SAPS     P  811   5.574   6.567  10.608  0.0144  0.2048 -0.0478
    7SAPS   O13  812   5.702   6.559  10.690  0.0640 -0.1085  0.0160
    7SAPS   O14  813   5.483   6.454  10.622  0.5791 -0.3943 -0.5186
    7SAPS   O12  814   5.495   6.700  10.643 -0.7285 -0.3867 -0.1550
    7SAPS   O11  815   5.609   6.585  10.454  0.5258 -0.0305 -0.5526
    7SAPS    C1  816   5.733   6.656  10.423  0.3884  0.3668  0.7149
    7SAPS    HA  817   5.715   6.761  10.451  0.5102  0.4273  0.5675
    7SAPS    HB  818   5.824   6.616  10.474 -0.4385 -0.5654  1.4967
    7SAPS    C2  819   5.755   6.649  10.269  0.5866 -0.3209 -0.2763
    7SAPS    HS  820   5.830   6.724  10.237  0.2316 -0.6679 -1.9527
    7SAPS   O21  821   5.633   6.670  10.195  0.6697 -0.1901 -0.3688
    7SAPS   C21  822   5.565   6.783  10.219 -0.0251 -0.4991 -0.0069
    7SAPS   O22  823   5.592   6.875  10.297 -0.0169 -0.0101 -0.0497
    7SAPS   C22  824   5.447   6.787  10.123 -0.0632 -0.1060 -0.7570
    7SAPS   H2R  825   5.356   6.804  10.186  1.8553 -0.2789  2.1478
    7SAPS   H2S  826   5.463   6.879  10.063  1.9487  0.5287  0.7239
    7SAPS    C3  827   5.818   6.510  10.223  0.2688  0.1760 -0.6942
    7SAPS    HX  828   5.765   6.422  10.265 -0.4489  0.5084 -0.8796
    7SAPS    HY  829   5.918   6.528  10.269 -0.6366 -0.7907  1.7321
    7SAPS   O31  830   5.842   6.492  10.080 -0.0196  0.4807 -0.0716
    7SAPS   C31  831   5.741   6.444  10.009  0.3068  0.0530  0.0653
    7SAPS   O32  832   5.632   6.412  10.052  0.4059 -0.0914 -0.0842
    7SAPS   C32  833   5.784   6.421   9.859  0.5602 -0.2956 -0.7810
    7SAPS   H2X  834   5.893   6.403   9.868  0.7909  1.0409 -0.7557
    7SAPS   H2Y  835   5.766   6.503   9.786  0.1621 -0.8016 -1.2553
    7SAPS   C23  836   5.419   6.666  10.039  0.2775 -0.1312  0.0102
    7SAPS   H3R  837   5.391   6.583  10.108 -3.3648  0.1876 -0.9694
    7SAPS   H3S  838   5.506   6.628   9.983  0.3502  0.4480 -0.2707
    7SAPS   C24  839   5.305   6.680   9.940 -0.0034 -0.0587 -0.0137
    7SAPS   H4R  840   5.329   6.760   9.867 -2.1776 -1.0419 -1.9101
    7SAPS   H4S  841   5.208   6.713   9.984 -2.0417 -1.1651 -3.4427
    7SAPS   C25  842   5.270   6.550   9.871  0.1268 -0.1135 -0.4161
    7SAPS   H5R  843   5.207   6.481   9.928 -0.3372 -1.9450 -3.0282
    7SAPS   C26  844   5.307   6.519   9.743  0.1568 -0.0562 -0.6421
    7SAPS   H6R  845   5.277   6.420   9.708 -0.1107  0.5637 -2.2074
    7SAPS   C27  846   5.391   6.592   9.645  0.1294  0.4976  0.2428
    7SAPS   H7R  847   5.458   6.667   9.692  1.6045 -0.2808 -0.5949
    7SAPS   H7S  848   5.325   6.644   9.572  1.4058  1.3784 -0.3095
    7SAPS   C28  849   5.466   6.486   9.572  0.4449  0.2088  0.2803
    7SAPS   H8R  850   5.543   6.431   9.629  0.5604 -0.9031 -0.9251
    7SAPS   C29  851   5.469   6.456   9.445 -0.2723 -0.4836  0.4264
    7SAPS   H9R  852   5.545   6.381   9.419 -2.0835 -1.7192 -1.4949
    7SAPS  C210  853   5.381   6.519   9.336  0.2818 -0.1908  0.2687
    7SAPS  H10R  854   5.434   6.605   9.289 -1.2713 -0.3613 -1.8477
    7SAPS  H10S  855   5.288   6.567   9.374 -0.1479 -1.6812  1.1355
    7SAPS  C211  856   5.344   6.418   9.236 -0.0850 -0.2169  0.5007
    7SAPS  H11R  857   5.237   6.395   9.240 -0.6876  2.5227  1.4799
    7SAPS  C212  858   5.420   6.363   9.134  0.8137  0.3902 -0.0286
    7SAPS  H12R  859   5.370   6.291   9.067 -0.5676  0.2878  1.0844
    7SAPS  C213  860   5.570   6.391   9.113 -0.9675 -1.2570 -0.4842
    7SAPS  H13R  861   5.611   6.443   9.203  0.1112 -1.6843 -0.7222
    7SAPS  H13S  862   5.582   6.459   9.026 -0.8011 -0.7328 -0.0592
    7SAPS  C214  863   5.650   6.256   9.108  1.0252 -0.3251 -0.2610
    7SAPS  H14R  864   5.680   6.220   9.207 -0.1494 -0.3789  0.0843
    7SAPS  C215  865   5.669   6.177   9.006 -0.7383 -0.0894 -1.0452
    7SAPS  H15R  866   5.729   6.084   9.016  1.0060  0.8999 -2.0142
    7SAPS  C216  867   5.631   6.207   8.868 -0.2053  0.1981  0.7679
    7SAPS  H16R  868   5.723   6.223   8.808 -0.7469  1.6456  0.2973
    7SAPS  H16S  869   5.581   6.306   8.866  0.0679  0.3806  2.1148
    7SAPS  C217  870   5.539   6.104   8.807 -0.0808  0.4676 -0.5711
    7SAPS  H17R  871   5.530   6.115   8.696  0.7906  1.1013 -0.5856
    7SAPS  H17S  872   5.440   6.113   8.855 -0.3588 -2.0849 -0.6158
    7SAPS  C218  873   5.591   5.961   8.832  0.8028 -0.3301  0.1386
    7SAPS  H18R  874   5.580   5.937   8.940  1.0499 -3.0816 -0.4068
    7SAPS  H18S  875   5.702   5.961   8.822  1.0482  2.2389  2.1555
    7SAPS  C219  876   5.518   5.850   8.758  0.4182 -0.4079 -0.5993
    7SAPS  H19R  877   5.412   5.831   8.783  0.3523  2.6122  1.6518
    7SAPS  H19S  878   5.555   5.754   8.800  1.5321  0.3622  0.2173
    7SAPS  C220  879   5.535   5.852   8.607 -0.6316  0.1016  0.9730
    7SAPS  H20R  880   5.519   5.953   8.562  0.2475 -0.0617  0.2579
    7SAPS  H20S  881   5.467   5.781   8.556 -1.5163 -0.5198  2.9930
    7SAPS  H20T  882   5.644   5.841   8.584 -1.0490  1.3401 -1.8165
    7SAPS   C33  883   5.734   6.294   9.794  0.0183  0.3014  0.4490
    7SAPS   H3X  884   5.624   6.308   9.779  0.2557 -0.4366 -2.4475
    7SAPS   H3Y  885   5.756   6.213   9.867 -2.8051 -2.2864 -1.3972
    7SAPS   C34  886   5.803   6.260   9.658  0.1630  0.7480  0.4183
    7SAPS   H4X  887   5.911   6.234   9.656 -0.1479 -0.4935 -0.9299
    7SAPS   H4Y  888   5.797   6.350   9.594  0.0675  1.0816  0.8955
    7SAPS   C35  889   5.730   6.147   9.578 -0.1303  0.1004  0.2248
    7SAPS   H5X  890   5.643   6.194   9.527 -1.3558  0.1605  2.2936
    7SAPS   H5Y  891   5.707   6.065   9.650 -1.4401 -1.0338 -1.4255
    7SAPS   C36  892   5.819   6.075   9.484  0.0026  0.3462 -0.6571
    7SAPS   H6X  893   5.903   6.035   9.543  1.1197  0.5559 -2.0655
    7SAPS   H6Y  894   5.854   6.139   9.399 -0.2078 -1.2745 -1.9869
    7SAPS   C37  895   5.744   5.961   9.421  0.0955  0.2556  0.4267
    7SAPS   H7X  896   5.643   5.989   9.385  1.1093  2.5262 -0.7716
    7SAPS   H7Y  897   5.732   5.876   9.491 -1.1531 -0.1652 -0.2789
    7SAPS   C38  898   5.818   5.912   9.286 -0.1125  0.3422 -0.4160
    7SAPS   H8X  899   5.921   5.882   9.311 -1.1893 -2.6873  0.6136
    7SAPS   H8Y  900   5.821   5.999   9.217 -2.2406 -1.0113 -2.2854
    7SAPS   C39  901   5.750   5.792   9.225 -0.3169 -0.6197 -0.4683
    7SAPS   H9X  902   5.642   5.818   9.219 -0.4571 -0.6226  1.6908
    7SAPS   H9Y  903   5.759   5.717   9.307  0.1068 -1.0845 -0.9383
    7SAPS  C310  904   5.806   5.742   9.095 -0.4383 -0.2502 -0.3042
    7SAPS  H10X  905   5.916   5.731   9.094 -0.3161  0.9376 -0.8140
    7SAPS  H10Y  906   5.767   5.809   9.016  0.4046  2.8174  1.7827
    7SAPS  C311  907   5.759   5.597   9.070 -0.2888  0.2022  0.0647
    7SAPS  H11X  908   5.650   5.588   9.084 -0.3211 -0.9458 -0.8053
    7SAPS  H11Y  909   5.804   5.530   9.147 -1.4481 -0.0307  0.5370
    7SAPS  C312  910   5.810   5.534   8.936  0.4672  0.3019  0.2241
    7SAPS  H12X  911   5.767   5.587   8.848  2.3487  1.1859 -0.1851
    7SAPS  H12Y  912   5.777   5.428   8.937 -0.4185  0.5401  4.4647
    7SAPS  C313  913   5.968   5.539   8.913  0.1641 -0.3814 -0.2071
    7SAPS  H13X  914   6.010   5.507   9.011  0.9534  1.2776  0.0168
    7SAPS  H13Y  915   5.996   5.646   8.905 -0.8770 -0.0638  0.3009
    7SAPS  C314  916   6.007   5.459   8.792 -0.6953 -0.0169 -0.5054
    7SAPS  H14X  917   5.963   5.357   8.788  1.0027 -0.8572  1.7738
    7SAPS  H14Y  918   6.118   5.460   8.785 -0.4427  1.1805  3.0503
    7SAPS  C315  919   5.956   5.526   8.655 -0.0425 -0.2228 -0.3570
    7SAPS  H15X  920   5.975   5.636   8.659  3.0731 -0.7218 -0.1658
    7SAPS  H15Y  921   5.846   5.511   8.650  0.1763 -1.3985 -1.9394
    7SAPS  C316  922   6.005   5.458   8.522  0.4311  0.0852  0.5091
    7SAPS  H16X  923   5.972   5.526   8.441 -0.3836  0.6413  1.2787
    7SAPS  H16Y  924   5.955   5.359   8.514 -1.9124  1.0578  2.4714
    7SAPS  C317  925   6.152   5.421   8.516 -0.3353  0.4455  0.0929
    7SAPS  H17X  926   6.170   5.351   8.600  2.0206  1.5533  0.5622
    7SAPS  H17Y  927   6.207   5.512   8.550  2.2291 -0.1311 -2.2562
    7SAPS  C318  928   6.211   5.355   8.391  0.2195  0.1022  0.1036
    7SAPS  H18X  929   6.321   5.367   8.401  0.3823 -0.4994 -0.9190
    7SAPS  H18Y  930   6.189   5.411   8.298 -1.2195  0.2200  0.5119
    7SAPS  H18Z  931   6.185   5.247   8.388  0.6524 -0.0262  0.6783
    8SAPS     N  932   3.190   1.857  11.091 -0.0670  0.0455 -0.0891
    8SAPS   HN1  933   3.272   1.800  11.065  0.9527  1.2719  0.3820
    8SAPS   HN2  934   3.127   1.878  11.011  0.3326 -1.5944 -0.8373
    8SAPS   HN3  935   3.234   1.944  11.129 -0.3105  0.3737 -0.5518
    8SAPS   C12  936   3.099   1.792  11.186  0.7922 -0.0140  0.2176
    8SAPS  H12A  937   3.159   1.753  11.268  1.2453  0.3846  0.0820
    8SAPS   C13  938   2.998   1.875  11.266 -0.5300 -0.6237  0.4647
    8SAPS  O13A  939   2.975   1.997  11.229 -0.0419  0.5653 -0.2810
    8SAPS  O13B  940   2.938   1.829  11.361  0.1372 -0.3032  0.0544
    8SAPS   C11  941   3.034   1.671  11.112  0.1135  0.2357 -0.1354
    8SAPS  H11A  942   2.985   1.730  11.033 -0.8755 -0.9941 -0.4653
    8SAPS  H11B  943   2.948   1.626  11.168  0.0728 -1.4654 -1.5224
    8SAPS     P  944   3.093   1.480  10.943 -0.1248 -0.1935 -0.0333
    8SAPS   O13  945   3.050   1.355  11.013  0.2879 -0.1393  0.7937
    8SAPS   O14  946   3.012   1.549  10.841 -0.0786 -0.0322  0.6107
    8SAPS   O12  947   3.121   1.579  11.062  0.3118  0.4225 -0.8295
    8SAPS   O11  948   3.242   1.461  10.895 -0.2054  0.1598 -0.0709
    8SAPS    C1  949   3.315   1.568  10.839 -0.3934 -0.5389  0.5644
    8SAPS    HA  950   3.270   1.668  10.850 -0.3649 -0.6593  1.8497
    8SAPS    HB  951   3.417   1.569  10.884  0.4374 -0.8138 -1.2982
    8SAPS    C2  952   3.336   1.527  10.689  0.3177 -0.3129  0.5934
    8SAPS    HS  953   3.236   1.527  10.643 -0.1663 -0.4959  1.6179
    8SAPS   O21  954   3.401   1.399  10.678 -0.0050  0.0890  0.0153
    8SAPS   C21  955   3.319   1.293  10.659  0.3728 -0.0538  0.0095
    8SAPS   O22  956   3.205   1.289  10.627  0.3378  0.6940  0.2407
    8SAPS   C22  957   3.405   1.169  10.697  0.1326  0.4752  0.5001
    8SAPS   H2R  958   3.512   1.201  10.690  0.2693 -0.0620  0.1107
    8SAPS   H2S  959   3.396   1.156  10.807 -0.2265  2.8189  0.7856
    8SAPS    C3  960   3.424   1.626  10.614 -0.0214  0.4473 -0.0621
    8SAPS    HX  961   3.527   1.606  10.650 -0.1278 -0.9308 -0.5076
    8SAPS    HY  962   3.407   1.731  10.644 -0.5668  0.7967 -1.5888
    8SAPS   O31  963   3.418   1.595  10.474 -0.3157  0.7729 -0.1242
    8SAPS   C31  964   3.325   1.669  10.409 -0.2125  0.0439 -0.0691
    8SAPS   O32  965   3.228   1.720  10.462 -0.4999 -0.2829  0.2025
    8SAPS   C32  966   3.346   1.659  10.254 -0.1081  0.2068  0.0004
    8SAPS   H2X  967   3.359   1.550  10.233 -1.9048  0.3282 -1.9114
    8SAPS   H2Y  968   3.435   1.712  10.214 -0.5820  0.1149 -1.1981
    8SAPS   C23  969   3.377   1.038  10.605  0.0821  0.4030 -0.8090
    8SAPS   H3R  970   3.375   1.065  10.497  0.1066 -1.3731 -1.2691
    8SAPS   H3S  971   3.274   1.002  10.630  0.7761 -0.5259  0.7991
    8SAPS   C24  972   3.479   0.924  10.607 -0.0627 -1.2574 -0.0640
    8SAPS   H4R  973   3.507   0.891  10.710 -0.1116 -0.2586  0.2787
    8SAPS   H4S  974   3.568   0.974  10.563  0.4813 -1.2100  1.0590
    8SAPS   C25  975   3.429   0.813  10.516 -0.0750  0.8543 -1.0136
    8SAPS   H5R  976   3.366   0.741  10.570 -0.7490  1.4574 -0.9886
    8SAPS   C26  977   3.452   0.800  10.383 -0.5160 -0.0669 -0.2082
    8SAPS   H6R  978   3.415   0.716  10.323  0.0866  0.1599 -0.8968
    8SAPS   C27  979   3.522   0.898  10.296 -0.5971 -0.5180 -0.4804
    8SAPS   H7R  980   3.581   0.969  10.358  0.4921 -0.3645 -1.6812
    8SAPS   H7S  981   3.445   0.947  10.234 -1.9078 -0.4949  1.1399
    8SAPS   C28  982   3.626   0.814  10.216 -0.3887 -0.0636 -0.0711
    8SAPS   H8R  983   3.720   0.791  10.267  0.0461  0.7694 -0.4841
    8SAPS   C29  984   3.623   0.765  10.091  0.0790 -0.6666  0.1075
    8SAPS   H9R  985   3.704   0.699  10.056 -1.5557 -1.7266 -1.7753
    8SAPS  C210  986   3.515   0.793   9.997  0.5068 -0.2639 -0.4320
    8SAPS  H10R  987   3.494   0.902  10.008  0.8052 -0.3584  1.1216
    8SAPS  H10S  988   3.424   0.737  10.028  1.3881 -1.5583 -0.1626
    8SAPS  C211  989   3.541   0.777   9.847  1.0955  0.0888 -0.0113
    8SAPS  H11R  990   3.624   0.711   9.816  1.1259  1.3875 -2.8272
    8SAPS  C212  991   3.473   0.828   9.744  0.1948 -0.2351 -0.5685
    8SAPS  H12R  992   3.496   0.796   9.641 -3.2529  0.4518 -1.6036
    8SAPS  C213  993   3.351   0.913   9.747 -0.7808  0.2975 -0.3362
    8SAPS  H13R  994   3.350   0.981   9.659 -0.4326 -0.6277 -1.0736
    8SAPS  H13S  995   3.372   0.984   9.829  2.4804 -3.1326  1.9737
    8SAPS  C214  996   3.235   0.824   9.765  0.7441  0.1846  0.4410
    8SAPS  H14R  997   3.252   0.725   9.810  0.8462 -0.1167 -0.2636
    8SAPS  C215  998   3.114   0.836   9.711  0.5464 -0.2271  0.2370
    8SAPS  H15R  999   3.034   0.766   9.738 -0.1206  0.4205 -0.0474
    8SAPS  C216 1000   3.069   0.952   9.625  1.2116 -0.7041 -0.1454
    8SAPS  H16R 1001   3.038   0.905   9.529  1.1812  0.8784 -0.9137
    8SAPS  H16S 1002   3.149   1.026   9.604  1.5182  0.0420  3.2656
    8SAPS  C217 1003   2.965   1.054   9.685 -0.2032  0.2286 -0.2645
    8SAPS  H17R 1004   2.950   1.120   9.597 -1.2335 -1.4969 -1.4046
    8SAPS  H17S 1005   3.004   1.106   9.775 -1.8044 -0.8367  1.0516
    8SAPS  C218 1006   2.828   0.989   9.722  0.6211 -0.2161  0.0170
    8SAPS  H18R 1007   2.827   0.937   9.820 -1.0412 -0.7720 -0.2910
    8SAPS  H18S 1008   2.811   0.901   9.657 -2.7179 -0.9474  1.7740
    8SAPS  C219 1009   2.716   1.090   9.696 -0.2195  0.7738  0.7721
    8SAPS  H19R 1010   2.615   1.044   9.702  1.2627 -3.0874 -1.5128
    8SAPS  H19S 1011   2.733   1.126   9.592  0.7083 -3.8249 -0.7666
    8SAPS  C220 1012   2.723   1.215   9.792  0.1674 -0.3332 -0.0276
    8SAPS  H20R 1013   2.791   1.295   9.757 -1.2952  0.7807 -0.3707
    8SAPS  H20S 1014   2.756   1.177   9.891  0.5405 -0.4537 -0.1933
    8SAPS  H20T 1015   2.620   1.252   9.808 -1.1338 -2.4665 -2.9721
    8SAPS   C33 1016   3.220   1.710  10.178 -0.0743 -0.6737 -0.3240
    8SAPS   H3X 1017   3.199   1.815  10.208 -0.6638 -0.3009 -1.9848
    8SAPS   H3Y 1018   3.133   1.650  10.214 -0.1196 -0.0554  0.6122
    8SAPS   C34 1019   3.232   1.686  10.026  0.3477  0.0260 -0.0200
    8SAPS   H4X 1020   3.333   1.711   9.987 -0.1912 -1.0568 -2.1828
    8SAPS   H4Y 1021   3.156   1.746   9.970  0.5657  1.3701  1.1014
    8SAPS   C35 1022   3.203   1.543   9.985 -0.2924 -0.1333 -0.0977
    8SAPS   H5X 1023   3.094   1.523   9.975 -0.3943  1.1505 -1.9097
    8SAPS   H5Y 1024   3.236   1.473  10.064  0.4018 -2.4704 -2.4018
    8SAPS   C36 1025   3.274   1.503   9.857  0.6315 -0.0986  0.7605
    8SAPS   H6X 1026   3.385   1.499   9.868  0.4046  0.0338  3.3640
    8SAPS   H6Y 1027   3.239   1.578   9.782 -0.1081 -1.6927 -0.5291
    8SAPS   C37 1028   3.230   1.367   9.823 -0.5834  0.8793  0.2663
    8SAPS   H7X 1029   3.121   1.351   9.839 -0.2278  0.0208  2.0088
    8SAPS   H7Y 1030   3.282   1.295   9.890  0.4819  3.0428  1.8282
    8SAPS   C38 1031   3.253   1.325   9.678  0.4572 -0.5681 -0.5274
    8SAPS   H8X 1032   3.226   1.218   9.664 -1.8479  0.0758 -1.3013
    8SAPS   H8Y 1033   3.361   1.346   9.665  0.0338  2.5349  0.5471
    8SAPS   C39 1034   3.179   1.412   9.568 -0.0958  0.6111  0.7629
    8SAPS   H9X 1035   3.214   1.516   9.580 -0.9520  1.0861 -0.7412
    8SAPS   H9Y 1036   3.069   1.402   9.576 -0.0225 -1.9797 -0.7313
    8SAPS  C310 1037   3.231   1.380   9.425  0.4150 -0.4050 -0.3717
    8SAPS  H10X 1038   3.222   1.270   9.411 -0.8978 -0.5919  1.7124
    8SAPS  H10Y 1039   3.341   1.396   9.425  0.5461 -1.2760 -0.8870
    8SAPS  C311 1040   3.157   1.452   9.308  0.0067  0.1531  0.2999
    8SAPS  H11X 1041   3.189   1.559   9.307 -0.6321  0.3593  1.5547
    8SAPS  H11Y 1042   3.047   1.447   9.314  0.0375 -1.5287 -0.3189
    8SAPS  C312 1043   3.173   1.401   9.166 -0.0682  0.1670  0.3876
    8SAPS  H12X 1044   3.275   1.440   9.146  0.2673 -0.4456  0.9011
    8SAPS  H12Y 1045   3.109   1.438   9.083  0.1446  1.1183  0.6367
    8SAPS  C313 1046   3.192   1.252   9.148  0.2496  1.1843 -0.1620
    8SAPS  H13X 1047   3.116   1.193   9.204  1.0381  1.7864  1.5725
    8SAPS  H13Y 1048   3.286   1.233   9.204 -0.6122  0.3555  1.0169
    8SAPS  C314 1049   3.213   1.200   9.007  0.1521  0.8416 -0.1200
    8SAPS  H14X 1050   3.288   1.119   9.016 -1.3495 -0.5326  0.2768
    8SAPS  H14Y 1051   3.254   1.284   8.945 -0.0664  2.3482  1.7409
    8SAPS  C315 1052   3.088   1.144   8.933 -0.0807  0.6049  0.0205
    8SAPS  H15X 1053   3.012   1.224   8.918  0.1583  1.0737  1.2001
    8SAPS  H15Y 1054   3.031   1.067   8.989  0.2758  0.6118  0.4037
    8SAPS  C316 1055   3.122   1.100   8.785 -0.0777 -0.3819 -0.2824
    8SAPS  H16X 1056   3.173   1.186   8.736  0.5126 -1.0043 -0.7717
    8SAPS  H16Y 1057   3.025   1.083   8.733 -0.1316 -0.6578 -0.0902
    8SAPS  C317 1058   3.219   0.984   8.769 -0.6908 -0.5827  0.9615
    8SAPS  H17X 1059   3.185   0.884   8.801 -0.6114 -1.2357 -0.9138
    8SAPS  H17Y 1060   3.315   1.002   8.823 -0.1739 -2.4120  0.6812
    8SAPS  C318 1061   3.247   0.949   8.628 -0.2158  0.0943 -0.0467
    8SAPS  H18X 1062   3.160   0.911   8.569  0.2701 -2.6360  0.9391
    8SAPS  H18Y 1063   3.337   0.888   8.607  0.9310  0.6147  3.0226
    8SAPS  H18Z 1064   3.277   1.042   8.575  1.0507 -0.7021 -0.7425
    9SAPS     N 1065   4.728   3.283   6.319  0.2505 -0.1455 -0.1620
    9SAPS   HN1 1066   4.637   3.235   6.334  0.9839 -1.1770  1.1419
    9SAPS   HN2 1067   4.713   3.372   6.372 -0.6001 -1.0401  1.1317
    9SAPS   HN3 1068   4.755   3.304   6.221  0.2351 -1.1690 -0.3930
    9SAPS   C12 1069   4.837   3.219   6.393 -0.3973  0.2790 -0.3089
    9SAPS  H12A 1070   4.801   3.199   6.493 -0.6213 -3.1533 -1.0049
    9SAPS   C13 1071   4.901   3.097   6.329 -0.0035  0.9451  0.7762
    9SAPS  O13A 1072   4.856   3.051   6.220 -0.1041  0.1454  0.5477
    9SAPS  O13B 1073   4.979   3.025   6.403 -0.1036  0.2158  0.1339
    9SAPS   C11 1074   4.958   3.327   6.404  0.3704 -0.0022 -0.2324
    9SAPS  H11A 1075   5.019   3.331   6.311  2.4005  1.1403  1.0992
    9SAPS  H11B 1076   5.026   3.307   6.489  2.7901  3.6158 -1.1998
    9SAPS     P 1077   4.986   3.596   6.454  0.0684  0.1647  0.0680
    9SAPS   O13 1078   5.062   3.615   6.333  0.2138  0.1981 -0.0204
    9SAPS   O14 1079   4.892   3.698   6.497  1.1621  0.0383 -0.6301
    9SAPS   O12 1080   4.913   3.461   6.426  0.3350 -0.4444  0.3258
    9SAPS   O11 1081   5.081   3.558   6.575  0.2675  0.4047  0.1715
    9SAPS    C1 1082   5.020   3.520   6.698 -0.2440  0.5803 -0.4881
    9SAPS    HA 1083   4.925   3.466   6.681 -0.2970  0.2727  0.7200
    9SAPS    HB 1084   5.086   3.448   6.751 -0.0192  0.8387 -0.4149
    9SAPS    C2 1085   5.015   3.639   6.794 -0.3049  0.7136 -0.3088
    9SAPS    HS 1086   4.942   3.703   6.741 -1.9907 -0.5756  0.3760
    9SAPS   O21 1087   5.145   3.703   6.826  0.1361 -0.2309 -0.3510
    9SAPS   C21 1088   5.140   3.831   6.819  0.0411  0.3523 -0.1675
    9SAPS   O22 1089   5.044   3.898   6.788 -0.3465 -0.2267 -0.1483
    9SAPS   C22 1090   5.268   3.899   6.878 -0.6373  0.0521  0.3228
    9SAPS   H2R 1091   5.343   3.854   6.810 -1.7114 -0.1488 -0.7485
    9SAPS   H2S 1092   5.263   4.009   6.861  0.4061  0.2702  1.3615
    9SAPS    C3 1093   4.936   3.606   6.922 -0.0080  0.2080  0.2232
    9SAPS    HX 1094   4.997   3.532   6.980 -2.1098 -3.7425 -2.3568
    9SAPS    HY 1095   4.841   3.554   6.897 -0.5141  0.9851  0.5542
    9SAPS   O31 1096   4.930   3.721   7.008  0.7056 -0.5687 -0.1983
    9SAPS   C31 1097   4.821   3.801   6.991 -0.0768  0.0814 -0.1810
    9SAPS   O32 1098   4.727   3.773   6.917  0.7781  0.5625 -0.4139
    9SAPS   C32 1099   4.833   3.926   7.086 -0.2437 -0.3348 -0.1306
    9SAPS   H2X 1100   4.802   4.013   7.024  0.3706  0.7882  1.1065
    9SAPS   H2Y 1101   4.942   3.937   7.109 -0.1158 -0.5892 -0.6155
    9SAPS   C23 1102   5.296   3.877   7.028 -0.5889 -0.0178 -0.1594
    9SAPS   H3R 1103   5.299   3.770   7.057  1.4647  0.2693  0.7222
    9SAPS   H3S 1104   5.204   3.910   7.081 -1.2624 -2.3120  0.1611
    9SAPS   C24 1105   5.417   3.943   7.083 -0.0797 -0.0805 -0.4321
    9SAPS   H4R 1106   5.407   3.942   7.194 -0.2436  1.7419 -0.4163
    9SAPS   H4S 1107   5.421   4.051   7.057  0.1365  0.1457  0.5325
    9SAPS   C25 1108   5.543   3.868   7.040  0.2888  0.0497  0.3095
    9SAPS   H5R 1109   5.582   3.894   6.941 -0.4485  1.1358  0.2863
    9SAPS   C26 1110   5.602   3.768   7.111  0.0324 -0.1939  0.5027
    9SAPS   H6R 1111   5.687   3.723   7.058  0.7662  1.1724  0.4863
    9SAPS   C27 1112   5.568   3.717   7.247 -0.3424 -0.5958  0.3909
    9SAPS   H7R 1113   5.484   3.765   7.302  0.3284  1.8184 -0.6184
    9SAPS   H7S 1114   5.660   3.731   7.308 -1.0183  0.6745  1.1573
    9SAPS   C28 1115   5.527   3.571   7.237  0.9302  0.4320 -0.2696
    9SAPS   H8R 1116   5.467   3.549   7.148 -0.7054 -1.5644  1.2595
    9SAPS   C29 1117   5.568   3.467   7.315  0.6118 -0.0169  0.1989
    9SAPS   H9R 1118   5.524   3.370   7.285 -1.4671  1.5843 -2.2406
    9SAPS  C210 1119   5.653   3.479   7.435  0.1068 -0.2952  0.3312
    9SAPS  H10R 1120   5.596   3.526   7.518 -0.2777  0.2928 -0.2593
    9SAPS  H10S 1121   5.742   3.541   7.411  0.1108 -0.2501  0.4645
    9SAPS  C211 1122   5.696   3.338   7.479 -0.5609 -1.1057  0.5259
    9SAPS  H11R 1123   5.704   3.263   7.399 -1.0032 -1.9269  1.2518
    9SAPS  C212 1124   5.738   3.298   7.594 -0.2644 -0.1478 -0.6077
    9SAPS  H12R 1125   5.789   3.200   7.592 -0.4848 -0.2420 -1.8240
    9SAPS  C213 1126   5.764   3.368   7.727  0.2953 -0.5209 -0.5955
    9SAPS  H13R 1127   5.718   3.309   7.809 -0.7669 -2.3100 -2.4280
    9SAPS  H13S 1128   5.729   3.473   7.726 -0.3072 -0.7113  0.5132
    9SAPS  C214 1129   5.911   3.394   7.739 -0.7403 -0.2347 -0.3283
    9SAPS  H14R 1130   5.958   3.456   7.661  0.2214 -0.0893  0.3548
    9SAPS  C215 1131   6.000   3.345   7.829 -0.2970  0.6475  0.0336
    9SAPS  H15R 1132   6.108   3.369   7.824 -0.0794 -0.2267  0.3709
    9SAPS  C216 1133   5.963   3.247   7.940 -0.2074  0.2333  0.5226
    9SAPS  H16R 1134   6.049   3.178   7.958 -0.9871 -1.0711 -0.6207
    9SAPS  H16S 1135   5.879   3.177   7.916  0.3126 -0.2477  0.0781
    9SAPS  C217 1136   5.942   3.305   8.086 -0.1644 -0.7229  0.3137
    9SAPS  H17R 1137   6.032   3.362   8.117 -0.6483  0.1731  0.1104
    9SAPS  H17S 1138   5.946   3.220   8.157 -2.4448  0.8361  2.4144
    9SAPS  C218 1139   5.806   3.388   8.106 -0.4712  0.4903 -0.1958
    9SAPS  H18R 1140   5.725   3.318   8.076 -0.0336  0.0099 -0.2628
    9SAPS  H18S 1141   5.811   3.477   8.040  0.5836 -0.4793 -1.4320
    9SAPS  C219 1142   5.797   3.439   8.250  0.6741 -0.3681  0.0277
    9SAPS  H19R 1143   5.792   3.342   8.304 -1.4653 -0.5071 -0.3589
    9SAPS  H19S 1144   5.703   3.491   8.279  0.1742 -1.0696 -0.3055
    9SAPS  C220 1145   5.916   3.528   8.299 -0.1907 -0.0400 -0.5735
    9SAPS  H20R 1146   5.918   3.524   8.410 -0.3499  1.8324 -0.4978
    9SAPS  H20S 1147   5.890   3.633   8.272  0.6728  0.7860  1.6864
    9SAPS  H20T 1148   6.016   3.510   8.255  0.8313 -1.7084  2.3319
    9SAPS   C33 1149   4.766   3.926   7.220  0.2140  0.1430 -0.8879
    9SAPS   H3X 1150   4.797   4.020   7.271 -1.7056 -0.0052  0.5781
    9SAPS   H3Y 1151   4.806   3.837   7.272 -2.6341  0.3872  1.8683
    9SAPS   C34 1152   4.611   3.935   7.202  0.7582 -0.1798 -0.3188
    9SAPS   H4X 1153   4.580   3.841   7.153 -0.9329 -0.8520  1.9409
    9SAPS   H4Y 1154   4.582   4.022   7.140 -0.5862 -0.7757 -0.5490
    9SAPS   C35 1155   4.538   3.938   7.337  0.3667  1.1584  0.6509
    9SAPS   H5X 1156   4.427   3.936   7.324  0.8085 -1.6432 -3.6606
    9SAPS   H5Y 1157   4.570   4.028   7.393  0.0308  1.4033  0.4457
    9SAPS   C36 1158   4.581   3.820   7.427 -0.0067  0.2908 -0.6272
    9SAPS   H6X 1159   4.692   3.828   7.436 -0.0599  0.3616 -0.0593
    9SAPS   H6Y 1160   4.569   3.719   7.380  0.4995  0.8198 -1.9150
    9SAPS   C37 1161   4.491   3.827   7.549  0.3507  0.1384  0.4793
    9SAPS   H7X 1162   4.384   3.821   7.520  0.3748 -0.6819  0.5435
    9SAPS   H7Y 1163   4.505   3.919   7.611  4.3460 -2.0483  3.0857
    9SAPS   C38 1164   4.529   3.722   7.665 -0.6195  0.0962  0.3740
    9SAPS   H8X 1165   4.531   3.615   7.634 -1.1550 -0.0076  0.6951
    9SAPS   H8Y 1166   4.446   3.735   7.738  1.0046  0.8352  2.1287
    9SAPS   C39 1167   4.658   3.750   7.743  0.3687  0.3560  0.4368
    9SAPS   H9X 1168   4.657   3.858   7.770  0.4457 -0.1346  2.4799
    9SAPS   H9Y 1169   4.741   3.741   7.670  0.6722  0.9361  0.7049
    9SAPS  C310 1170   4.679   3.652   7.860 -0.4650 -0.1521 -0.5266
    9SAPS  H10X 1171   4.705   3.557   7.809  2.0978  0.1640  0.1222
    9SAPS  H10Y 1172   4.582   3.639   7.912  0.9719  0.7651  2.5003
    9SAPS  C311 1173   4.792   3.702   7.950  0.4489  0.0522 -0.0429
    9SAPS  H11X 1174   4.870   3.750   7.887  0.4206 -0.5268 -0.5187
    9SAPS  H11Y 1175   4.843   3.612   7.989 -0.8467 -0.6401  0.0807
    9SAPS  C312 1176   4.757   3.782   8.079 -0.3963 -0.5340 -0.6174
    9SAPS  H12X 1177   4.717   3.720   8.162  2.1471 -1.7249 -0.2233
    9SAPS  H12Y 1178   4.687   3.864   8.051 -1.1288 -1.3021 -1.0302
    9SAPS  C313 1179   4.875   3.847   8.143 -0.5219 -0.4800 -0.3856
    9SAPS  H13X 1180   4.937   3.899   8.068 -2.1349  2.7521  0.4563
    9SAPS  H13Y 1181   4.939   3.761   8.173 -0.4145 -1.2291 -2.6945
    9SAPS  C314 1182   4.830   3.956   8.247 -0.0117 -0.3470  0.5997
    9SAPS  H14X 1183   4.759   3.908   8.318  2.3731 -0.6487  2.8653
    9SAPS  H14Y 1184   4.777   4.038   8.194  1.8362 -0.7554 -1.9572
    9SAPS  C315 1185   4.948   4.020   8.316 -1.1824 -0.1348  0.4289
    9SAPS  H15X 1186   5.014   3.942   8.360 -0.9061  0.8685  1.7970
    9SAPS  H15Y 1187   4.915   4.068   8.410  1.2350  1.2896  0.6107
    9SAPS  C316 1188   5.036   4.105   8.231  0.1649 -0.1011  1.2034
    9SAPS  H16X 1189   4.978   4.175   8.166  0.2887 -1.1981 -0.1091
    9SAPS  H16Y 1190   5.096   4.037   8.167 -1.3358  2.4372 -3.1884
    9SAPS  C317 1191   5.115   4.215   8.303 -0.6477  0.2317 -0.3373
    9SAPS  H17X 1192   5.046   4.292   8.344  1.3545  2.6488 -1.3949
    9SAPS  H17Y 1193   5.174   4.271   8.227 -1.2736  0.1342 -0.8947
    9SAPS  C318 1194   5.199   4.177   8.427  0.1683 -0.4590  0.4265
    9SAPS  H18X 1195   5.147   4.136   8.516 -1.2082  0.5578  0.1112
    9SAPS  H18Y 1196   5.250   4.269   8.464  0.1510  0.5203 -1.8631
    9SAPS  H18Z 1197   5.272   4.098   8.399 -0.6294  0.4147 -4.5713
   10SAPS     N 1198   5.167   2.989   6.173 -0.2179 -0.1186  0.1969
   10SAPS   HN1 1199   5.172   2.885   6.178 -3.2548 -0.1776  3.3264
   10SAPS   HN2 1200   5.087   3.012   6.235 -1.4189  0.6459 -1.5891
   10SAPS   HN3 1201   5.158   3.026   6.076 -0.4330 -0.4225  0.0973
   10SAPS   C12 1202   5.293   3.033   6.231 -0.5363 -0.7000 -0.8193
   10SAPS  H12A 1203   5.373   2.970   6.192  1.1940  0.0815  1.3283
   10SAPS   C13 1204   5.335   3.183   6.214 -0.4793 -0.2707  0.0163
   10SAPS  O13A 1205   5.254   3.269   6.165 -0.4225 -0.5435 -0.0924
   10SAPS  O13B 1206   5.456   3.210   6.228 -0.4408 -0.0801 -0.4514
   10SAPS   C11 1207   5.295   3.000   6.385 -0.2098 -0.6436 -0.2717
   10SAPS  H11A 1208   5.227   3.064   6.445 -1.7439 -2.4884  0.0090
   10SAPS  H11B 1209   5.396   3.019   6.428 -0.6421 -0.7884  0.8040
   10SAPS     P 1210   5.338   2.754   6.462  0.1991  0.3847  0.2488
   10SAPS   O13 1211   5.259   2.630   6.470  0.0416  0.5000 -0.0146
   10SAPS   O14 1212   5.465   2.748   6.386  0.1031  0.0559  0.3108
   10SAPS   O12 1213   5.246   2.861   6.393 -0.2756 -0.3373  0.4330
   10SAPS   O11 1214   5.365   2.814   6.605 -0.0429  0.4668 -0.6310
   10SAPS    C1 1215   5.493   2.811   6.668 -0.2285  0.4955 -0.6233
   10SAPS    HA 1216   5.521   2.709   6.702  1.9075  1.4776  0.6857
   10SAPS    HB 1217   5.566   2.871   6.609 -1.1207  1.1338 -1.0941
   10SAPS    C2 1218   5.491   2.891   6.806 -0.1618 -0.7278 -0.1729
   10SAPS    HS 1219   5.598   2.891   6.837 -0.4669  0.8170  0.9124
   10SAPS   O21 1220   5.414   2.812   6.901  0.5391  0.0403  0.4278
   10SAPS   C21 1221   5.481   2.707   6.949 -0.3415  0.1517 -0.4720
   10SAPS   O22 1222   5.598   2.677   6.932 -0.3649 -0.2787  0.1232
   10SAPS   C22 1223   5.375   2.609   7.017  0.5265 -0.5884  0.3495
   10SAPS   H2R 1224   5.322   2.667   7.095 -2.8914  0.4056 -2.5663
   10SAPS   H2S 1225   5.301   2.577   6.940 -0.5770  1.4385  0.5437
   10SAPS    C3 1226   5.426   3.035   6.798  0.1505 -0.6734  0.0681
   10SAPS    HX 1227   5.324   3.019   6.757  0.5920 -4.5443  0.2196
   10SAPS    HY 1228   5.490   3.083   6.721 -0.2458  0.4863  0.4592
   10SAPS   O31 1229   5.425   3.106   6.920 -0.0850  0.0513  0.0063
   10SAPS   C31 1230   5.319   3.089   6.997 -0.1743 -1.0422 -0.0691
   10SAPS   O32 1231   5.223   3.013   6.974  0.1891  0.2465 -0.0273
   10SAPS   C32 1232   5.344   3.155   7.132 -0.0517  0.8465  0.6691
   10SAPS   H2X 1233   5.387   3.255   7.108 -0.6936  0.7313 -1.0115
   10SAPS   H2Y 1234   5.412   3.094   7.195  1.5270  1.0698 -0.7684
   10SAPS   C23 1235   5.431   2.495   7.103 -1.6126 -0.3826  0.1009
   10SAPS   H3R 1236   5.496   2.531   7.186  0.3963 -0.3787 -1.4106
   10SAPS   H3S 1237   5.503   2.439   7.039 -0.2668  0.9177  0.4412
   10SAPS   C24 1238   5.324   2.406   7.161  0.3869  0.3580  0.0036
   10SAPS   H4R 1239   5.259   2.395   7.072  1.7629 -2.3148 -0.7252
   10SAPS   H4S 1240   5.258   2.462   7.231 -0.1078  1.8112 -1.5643
   10SAPS   C25 1241   5.375   2.271   7.204  0.4642 -0.2230 -0.2818
   10SAPS   H5R 1242   5.414   2.205   7.125  1.7686  0.4518 -0.2072
   10SAPS   C26 1243   5.372   2.231   7.333  0.0774 -0.2914 -0.6513
   10SAPS   H6R 1244   5.409   2.129   7.349 -1.6778 -0.6103  1.5276
   10SAPS   C27 1245   5.316   2.314   7.456 -0.4051 -0.8219  0.4263
   10SAPS   H7R 1246   5.295   2.423   7.444  2.8060 -0.1210  0.8909
   10SAPS   H7S 1247   5.409   2.321   7.516  2.1061 -1.5804 -3.2163
   10SAPS   C28 1248   5.194   2.250   7.516  0.0395  0.6275  0.3810
   10SAPS   H8R 1249   5.137   2.197   7.438  0.5385 -1.5786  1.4577
   10SAPS   C29 1250   5.137   2.272   7.636 -0.2639  0.3748 -0.2007
   10SAPS   H9R 1251   5.043   2.217   7.653 -0.4880  1.0048  0.6424
   10SAPS  C210 1252   5.190   2.372   7.734 -0.2498  0.0934  0.3979
   10SAPS  H10R 1253   5.225   2.467   7.689  2.3791 -1.0289 -0.0362
   10SAPS  H10S 1254   5.283   2.340   7.787 -1.0524  0.4531  2.0652
   10SAPS  C211 1255   5.085   2.402   7.842 -0.3143 -0.3334 -0.4707
   10SAPS  H11R 1256   5.015   2.484   7.820 -1.7163 -0.8469  1.9299
   10SAPS  C212 1257   5.079   2.342   7.967 -0.7690 -0.6338 -0.0196
   10SAPS  H12R 1258   4.986   2.363   8.022  0.1099 -0.1804  1.3285
   10SAPS  C213 1259   5.171   2.233   8.011  0.5124  0.6072  0.2186
   10SAPS  H13R 1260   5.267   2.282   8.036  1.7132 -1.9097  0.6944
   10SAPS  H13S 1261   5.189   2.156   7.933 -0.2213 -2.3704  2.8832
   10SAPS  C214 1262   5.133   2.161   8.137 -0.4810 -0.5329 -0.1026
   10SAPS  H14R 1263   5.074   2.071   8.112  0.2728 -1.3427  0.9403
   10SAPS  C215 1264   5.167   2.185   8.269  0.5134  0.4974 -0.2783
   10SAPS  H15R 1265   5.125   2.118   8.346  2.1678  0.8899  1.0048
   10SAPS  C216 1266   5.252   2.298   8.326  0.0173  0.0461 -0.1251
   10SAPS  H16R 1267   5.303   2.359   8.248  2.0388 -1.4396 -0.0102
   10SAPS  H16S 1268   5.324   2.250   8.396 -0.1732  0.2133  0.1866
   10SAPS  C217 1269   5.157   2.372   8.420 -0.0584 -0.2260  0.6673
   10SAPS  H17R 1270   5.218   2.441   8.483  2.9994 -1.0575 -1.3042
   10SAPS  H17S 1271   5.109   2.301   8.491 -2.8543  0.7669 -0.1769
   10SAPS  C218 1272   5.041   2.450   8.359 -0.2820 -1.3215 -0.1300
   10SAPS  H18R 1273   4.986   2.503   8.439  0.4968  0.6352 -0.8447
   10SAPS  H18S 1274   4.969   2.380   8.312 -0.0625 -0.8712 -1.1495
   10SAPS  C219 1275   5.075   2.558   8.254  0.0467 -0.4188  0.1906
   10SAPS  H19R 1276   4.975   2.602   8.233  0.9012  1.9325  0.8767
   10SAPS  H19S 1277   5.118   2.513   8.162 -2.6447  0.2132 -1.4243
   10SAPS  C220 1278   5.171   2.660   8.310  0.1413 -0.1848  1.0317
   10SAPS  H20R 1279   5.265   2.614   8.347  3.2960  2.6460 -2.9457
   10SAPS  H20S 1280   5.120   2.700   8.400  2.1615 -1.6828  2.9006
   10SAPS  H20T 1281   5.198   2.742   8.240 -3.2380  0.4283  0.3690
   10SAPS   C33 1282   5.208   3.168   7.210  0.0254 -1.5398 -0.0453
   10SAPS   H3X 1283   5.154   3.073   7.230  1.1766 -2.0586  0.6795
   10SAPS   H3Y 1284   5.140   3.236   7.155  1.0500 -0.7909 -0.4071
   10SAPS   C34 1285   5.234   3.230   7.352 -0.0875 -0.0367 -0.1646
   10SAPS   H4X 1286   5.143   3.269   7.402 -0.3449  0.8637 -1.3291
   10SAPS   H4Y 1287   5.302   3.317   7.339 -2.5266  2.0603  0.6782
   10SAPS   C35 1288   5.292   3.123   7.449  0.0593 -0.2603 -0.1060
   10SAPS   H5X 1289   5.394   3.099   7.414 -0.2093 -1.4699 -0.0913
   10SAPS   H5Y 1290   5.234   3.028   7.453  0.4888 -0.5190 -0.0375
   10SAPS   C36 1291   5.318   3.186   7.587 -0.0895 -0.8463 -0.8656
   10SAPS   H6X 1292   5.228   3.207   7.650  1.8856  1.6246  1.2585
   10SAPS   H6Y 1293   5.355   3.291   7.584  2.0402 -1.3209  4.2197
   10SAPS   C37 1294   5.422   3.109   7.676  0.1644  0.2944 -0.3344
   10SAPS   H7X 1295   5.523   3.103   7.629 -0.8742 -1.4096 -2.4719
   10SAPS   H7Y 1296   5.368   3.013   7.686 -1.6742  1.4680  1.5292
   10SAPS   C38 1297   5.453   3.171   7.810  0.7131 -0.5400  0.3604
   10SAPS   H8X 1298   5.484   3.277   7.798 -2.8122  0.5633  0.3580
   10SAPS   H8Y 1299   5.528   3.107   7.862  1.8106 -0.0184 -0.5885
   10SAPS   C39 1300   5.330   3.178   7.900 -0.4534  0.0783 -0.5538
   10SAPS   H9X 1301   5.288   3.076   7.908 -0.5602  0.2679  1.3747
   10SAPS   H9Y 1302   5.248   3.243   7.864 -1.4483 -1.1302 -0.5009
   10SAPS  C310 1303   5.355   3.222   8.039 -0.3866 -0.0084  0.8659
   10SAPS  H10X 1304   5.393   3.325   8.056  1.3920 -0.4941 -0.0505
   10SAPS  H10Y 1305   5.428   3.150   8.082 -0.6090 -1.3874 -1.0190
   10SAPS  C311 1306   5.233   3.206   8.129 -0.1216  0.3801  0.1801
   10SAPS  H11X 1307   5.198   3.101   8.120 -3.0133  1.4469 -1.7220
   10SAPS  H11Y 1308   5.146   3.272   8.107  0.4339  0.3272 -2.3117
   10SAPS  C312 1309   5.275   3.218   8.277 -0.5180 -0.0990  0.7332
   10SAPS  H12X 1310   5.296   3.325   8.300 -0.2996 -0.0130  0.1577
   10SAPS  H12Y 1311   5.376   3.171   8.284 -0.8135 -0.5540  2.0491
   10SAPS  C313 1312   5.187   3.140   8.378  0.6428  0.8618 -0.2770
   10SAPS  H13X 1313   5.207   3.031   8.373  0.3173  0.8026 -0.3246
   10SAPS  H13Y 1314   5.079   3.144   8.354  0.3560  0.5146  0.9072
   10SAPS  C314 1315   5.196   3.195   8.522 -0.3482  0.7730  0.1729
   10SAPS  H14X 1316   5.302   3.226   8.533  0.1924 -0.6169 -0.9908
   10SAPS  H14Y 1317   5.167   3.113   8.591 -0.0460  0.6829  0.1952
   10SAPS  C315 1318   5.109   3.309   8.557 -0.8631  0.6998  0.3235
   10SAPS  H15X 1319   5.003   3.276   8.563 -1.1664  0.8295 -3.1217
   10SAPS  H15Y 1320   5.123   3.391   8.483  1.0736  0.0261 -0.0710
   10SAPS  C316 1321   5.127   3.378   8.695  0.9957 -0.2707 -0.8007
   10SAPS  H16X 1322   5.061   3.467   8.702 -2.5177 -2.7040 -1.9582
   10SAPS  H16Y 1323   5.232   3.414   8.703  1.0036 -0.4434 -0.1299
   10SAPS  C317 1324   5.110   3.298   8.827 -0.8427 -0.8827 -0.4085
   10SAPS  H17X 1325   5.180   3.211   8.826  0.3380  0.0374  0.4036
   10SAPS  H17Y 1326   5.007   3.259   8.832  0.1526 -3.9790 -2.3375
   10SAPS  C318 1327   5.153   3.378   8.951  0.1915  0.1880  0.7042
   10SAPS  H18X 1328   5.164   3.310   9.038  1.0796  1.1091  1.3169
   10SAPS  H18Y 1329   5.065   3.443   8.970  0.1801  0.8881 -1.6309
   10SAPS  H18Z 1330   5.249   3.431   8.932  1.4247 -2.3989 -0.6806
   11SAPS     N 1331   0.693   6.681   5.589  0.4713 -0.8920 -0.2293
   11SAPS   HN1 1332   0.795   6.668   5.572  0.4497  0.4402 -1.4102
   11SAPS   HN2 1333   0.636   6.659   5.505 -0.3032  0.2954 -0.0252
   11SAPS   HN3 1334   0.678   6.783   5.595  1.9247 -0.6799  0.0603
   11SAPS   C12 1335   0.631   6.615   5.708 -0.0269 -0.1443  0.0749
   11SAPS  H12A 1336   0.685   6.637   5.799  0.3593  1.3139 -0.5021
   11SAPS   C13 1337   0.486   6.656   5.737  0.0067  0.6189 -0.0950
   11SAPS  O13A 1338   0.435   6.749   5.668 -0.0786 -0.0909  0.3734
   11SAPS  O13B 1339   0.424   6.600   5.836 -0.3515  0.1330  0.1365
   11SAPS   C11 1340   0.643   6.463   5.695 -0.1389 -0.4850  0.2856
   11SAPS  H11A 1341   0.588   6.443   5.600  0.3155 -0.8188  0.0922
   11SAPS  H11B 1342   0.579   6.417   5.773 -2.0132  2.9262  0.8668
   11SAPS     P 1343   0.825   6.306   5.807 -0.3004 -0.1960 -0.0757
   11SAPS   O13 1344   0.733   6.187   5.789  0.0439 -0.4273 -0.5933
   11SAPS   O14 1345   0.972   6.297   5.774  0.5647  0.0979  0.5626
   11SAPS   O12 1346   0.781   6.425   5.702  0.5847  0.4879 -0.6023
   11SAPS   O11 1347   0.800   6.369   5.947 -1.0284 -0.0343 -0.8103
   11SAPS    C1 1348   0.887   6.361   6.057 -0.4236 -0.3150 -0.1369
   11SAPS    HA 1349   0.992   6.394   6.038 -0.6151  0.6673  0.4587
   11SAPS    HB 1350   0.848   6.433   6.132  0.7501 -2.1422  2.3079
   11SAPS    C2 1351   0.884   6.219   6.126 -0.4963 -0.4094 -0.1875
   11SAPS    HS 1352   0.928   6.150   6.051  1.0071 -0.1544  0.4589
   11SAPS   O21 1353   0.743   6.180   6.145 -0.7351  0.2326 -0.1315
   11SAPS   C21 1354   0.720   6.054   6.164 -0.3851  0.5324  0.0789
   11SAPS   O22 1355   0.806   5.968   6.176 -0.1096  0.1205  0.0128
   11SAPS   C22 1356   0.573   6.023   6.182  0.3888  0.5094  0.3058
   11SAPS   H2R 1357   0.520   6.087   6.257 -1.9886 -1.9326  0.7960
   11SAPS   H2S 1358   0.518   6.020   6.086  0.5114 -0.7313  0.2709
   11SAPS    C3 1359   0.976   6.220   6.256 -0.6359 -0.2559  0.0314
   11SAPS    HX 1360   1.074   6.239   6.209 -0.2923  1.8374  1.5383
   11SAPS    HY 1361   0.985   6.118   6.298  0.8577 -1.9530 -4.2040
   11SAPS   O31 1362   0.951   6.325   6.346 -0.3955 -0.6147 -0.1305
   11SAPS   C31 1363   0.855   6.306   6.439 -0.1658 -0.0208 -0.2188
   11SAPS   O32 1364   0.797   6.202   6.461  0.1792  0.5447 -0.0732
   11SAPS   C32 1365   0.846   6.424   6.524  0.3828 -0.1266  0.6376
   11SAPS   H2X 1366   0.755   6.478   6.490 -0.7511 -2.8524 -0.7263
   11SAPS   H2Y 1367   0.923   6.502   6.504 -0.5519  0.5520 -0.3731
   11SAPS   C23 1368   0.556   5.869   6.224  0.9164  0.0230 -0.2588
   11SAPS   H3R 1369   0.625   5.855   6.310  0.9941 -0.4008 -0.3907
   11SAPS   H3S 1370   0.575   5.803   6.136 -2.7407 -1.0760 -0.2966
   11SAPS   C24 1371   0.412   5.842   6.283  0.1753  0.0092 -0.0792
   11SAPS   H4R 1372   0.348   5.841   6.192  0.8953 -2.9777 -0.6063
   11SAPS   H4S 1373   0.384   5.925   6.351 -2.8224  0.2452 -1.4966
   11SAPS   C25 1374   0.394   5.706   6.338 -0.3188  0.3473  0.1316
   11SAPS   H5R 1375   0.432   5.621   6.280  1.8785 -0.4442  2.6575
   11SAPS   C26 1376   0.352   5.678   6.465  0.0728  0.1861  0.5072
   11SAPS   H6R 1377   0.380   5.577   6.498 -1.1504 -0.0658  0.7866
   11SAPS   C27 1378   0.307   5.760   6.582  0.1660 -0.1826  0.0210
   11SAPS   H7R 1379   0.296   5.865   6.547 -2.1364  0.1053  1.5341
   11SAPS   H7S 1380   0.373   5.741   6.669  1.0087  1.5648 -0.2200
   11SAPS   C28 1381   0.168   5.712   6.628  0.0509 -0.6980  0.0056
   11SAPS   H8R 1382   0.095   5.702   6.547 -1.0093 -0.0955  0.8710
   11SAPS   C29 1383   0.130   5.691   6.755  0.4060 -0.8330  0.1591
   11SAPS   H9R 1384   0.028   5.654   6.772 -0.0177 -0.8410 -2.2383
   11SAPS  C210 1385   0.221   5.704   6.880  0.0227  0.2695 -0.4943
   11SAPS  H10R 1386   0.305   5.777   6.871  1.8120 -1.3405  2.2047
   11SAPS  H10S 1387   0.267   5.607   6.908 -2.0411 -0.3132  1.0216
   11SAPS  C211 1388   0.140   5.768   6.990  0.7384  0.0651 -0.4213
   11SAPS  H11R 1389   0.122   5.874   6.969  1.0150  0.3363  0.6519
   11SAPS  C212 1390   0.084   5.709   7.100  0.3117  0.6836 -0.1820
   11SAPS  H12R 1391   0.030   5.771   7.172  0.1711 -0.3035  0.5791
   11SAPS  C213 1392   0.094   5.566   7.139  0.2106  0.0922  0.2291
   11SAPS  H13R 1393   0.097   5.510   7.044  0.4221  0.4780  0.0059
   11SAPS  H13S 1394  -0.004   5.535   7.180  0.8412 -0.1307  1.5971
   11SAPS  C214 1395   0.215   5.538   7.234  0.3114 -0.3566 -0.9322
   11SAPS  H14R 1396   0.316   5.567   7.201  0.6797 -0.6840 -0.1193
   11SAPS  C215 1397   0.209   5.486   7.357  0.3255 -0.3747 -0.5108
   11SAPS  H15R 1398   0.299   5.476   7.421 -1.3442 -0.2983  1.9250
   11SAPS  C216 1399   0.083   5.443   7.429 -0.5128  0.1540 -0.3109
   11SAPS  H16R 1400   0.111   5.351   7.486  1.0938 -0.3614 -1.8666
   11SAPS  H16S 1401  -0.004   5.415   7.365 -1.7049  2.0368  0.4461
   11SAPS  C217 1402   0.029   5.547   7.526  0.3233 -0.1421  0.9121
   11SAPS  H17R 1403   0.109   5.566   7.600  0.3392  0.5150  0.7305
   11SAPS  H17S 1404  -0.048   5.489   7.582  1.9886 -0.5373  2.8398
   11SAPS  C218 1405  -0.033   5.676   7.468 -0.0865 -0.0487  0.5171
   11SAPS  H18R 1406  -0.089   5.660   7.373  3.0603 -1.3094 -1.2113
   11SAPS  H18S 1407   0.056   5.734   7.434 -0.0511 -0.3182  0.1443
   11SAPS  C219 1408  -0.101   5.762   7.573 -1.0373 -0.1586 -0.6107
   11SAPS  H19R 1409  -0.085   5.870   7.557 -2.3102  0.2964  1.0596
   11SAPS  H19S 1410  -0.057   5.749   7.674  1.1743  0.4109 -1.4881
   11SAPS  C220 1411  -0.253   5.722   7.572  0.3126  0.4819  0.6199
   11SAPS  H20R 1412  -0.256   5.624   7.624  0.1213 -0.3795 -0.9844
   11SAPS  H20S 1413  -0.278   5.711   7.465  3.0038  0.3304 -0.0359
   11SAPS  H20T 1414  -0.313   5.798   7.627  0.5312 -0.4418  2.1535
   11SAPS   C33 1415   0.831   6.409   6.682 -0.1904 -0.9083  0.0396
   11SAPS   H3X 1416   0.741   6.349   6.708 -1.2297  0.3028 -0.7570
   11SAPS   H3Y 1417   0.816   6.509   6.727 -0.1894 -1.0356  0.3310
   11SAPS   C34 1418   0.941   6.323   6.753 -0.0916  0.5773  0.4393
   11SAPS   H4X 1419   1.040   6.374   6.750  0.8728 -1.3144 -1.2111
   11SAPS   H4Y 1420   0.950   6.219   6.714 -0.7628  0.2596  1.1128
   11SAPS   C35 1421   0.924   6.297   6.904 -0.0341 -0.2390  0.3202
   11SAPS   H5X 1422   0.897   6.391   6.957 -0.0338  1.2390 -2.2191
   11SAPS   H5Y 1423   1.012   6.240   6.940 -1.1075 -0.4474  2.6961
   11SAPS   C36 1424   0.813   6.197   6.937  0.3913  1.2479 -0.3864
   11SAPS   H6X 1425   0.831   6.098   6.890  0.4879 -0.9554  4.0422
   11SAPS   H6Y 1426   0.713   6.216   6.892  0.5493  3.0723  0.0286
   11SAPS   C37 1427   0.800   6.174   7.091  0.8120 -0.1811 -0.0766
   11SAPS   H7X 1428   0.740   6.081   7.103 -0.2419  0.0482 -3.0005
   11SAPS   H7Y 1429   0.748   6.257   7.143  1.0833 -0.1041  0.0677
   11SAPS   C38 1430   0.929   6.155   7.172 -0.5828 -0.9863 -0.7114
   11SAPS   H8X 1431   1.003   6.227   7.132  0.0424  0.0110  2.1475
   11SAPS   H8Y 1432   0.978   6.061   7.138 -1.5813 -1.8160  0.1220
   11SAPS   C39 1433   0.904   6.161   7.315 -0.1733 -0.0666  0.0070
   11SAPS   H9X 1434   0.819   6.092   7.334 -1.5296  1.6530  0.2615
   11SAPS   H9Y 1435   0.851   6.255   7.341  0.3953  0.4305 -0.6195
   11SAPS  C310 1436   1.013   6.131   7.421  0.2613  0.4338 -0.0010
   11SAPS  H10X 1437   1.104   6.188   7.392  2.2700 -2.3339  0.7160
   11SAPS  H10Y 1438   1.029   6.021   7.421  0.9688  0.5390  0.2437
   11SAPS  C311 1439   0.969   6.178   7.563  0.4535 -0.2034  0.2155
   11SAPS  H11X 1440   0.875   6.124   7.588  0.5889  0.7227  2.9493
   11SAPS  H11Y 1441   0.953   6.288   7.563  1.0747 -0.1072  0.4232
   11SAPS  C312 1442   1.069   6.139   7.671 -0.0927 -0.2021  0.0959
   11SAPS  H12X 1443   1.145   6.220   7.672 -1.2948  0.9413  1.0087
   11SAPS  H12Y 1444   1.110   6.039   7.646  0.8326  0.1416  0.2283
   11SAPS  C313 1445   0.995   6.135   7.806  0.4132 -0.2842 -0.4723
   11SAPS  H13X 1446   0.909   6.065   7.808  1.2373 -1.2890  0.6759
   11SAPS  H13Y 1447   0.960   6.234   7.841 -0.0649 -1.0777  1.3603
   11SAPS  C314 1448   1.096   6.092   7.913 -0.0982 -0.1166  0.4635
   11SAPS  H14X 1449   1.193   6.147   7.913 -1.0718  1.6589  1.7087
   11SAPS  H14Y 1450   1.124   5.989   7.882 -0.4852 -0.7528  2.1928
   11SAPS  C315 1451   1.037   6.061   8.052  0.1171  0.4070  0.9102
   11SAPS  H15X 1452   1.110   6.007   8.116 -0.5148 -0.2252  1.0994
   11SAPS  H15Y 1453   0.945   5.999   8.044 -0.6122  1.6272 -0.4780
   11SAPS  C316 1454   1.010   6.192   8.132  0.6732  0.2853  0.3929
   11SAPS  H16X 1455   0.970   6.272   8.067  0.3778 -1.2462 -1.3496
   11SAPS  H16Y 1456   1.109   6.234   8.161  0.7517  0.1968  0.2497
   11SAPS  C317 1457   0.912   6.168   8.244 -0.1318  0.3832 -0.2259
   11SAPS  H17X 1458   0.943   6.074   8.295  1.4261  0.5136 -0.9084
   11SAPS  H17Y 1459   0.814   6.151   8.195 -0.4488 -1.0917  0.8563
   11SAPS  C318 1460   0.914   6.274   8.356 -0.2066 -0.4564 -0.0344
   11SAPS  H18X 1461   0.881   6.369   8.308  0.5854  0.3845  1.0634
   11SAPS  H18Y 1462   1.017   6.285   8.397 -0.9266  3.1702  1.0279
   11SAPS  H18Z 1463   0.854   6.249   8.445  0.5238  0.3671  0.6988
   12SAPS     N 1464   6.236   0.988   5.767 -0.8998 -0.2160  0.2615
   12SAPS   HN1 1465   6.238   0.897   5.817  0.8421 -0.3204  0.0263
   12SAPS   HN2 1466   6.155   0.989   5.701 -0.8144  0.2807  0.1610
   12SAPS   HN3 1467   6.328   1.003   5.721 -0.7017  0.5177  0.8883
   12SAPS   C12 1468   6.210   1.112   5.855 -0.7362  0.6297  0.6510
   12SAPS  H12A 1469   6.262   1.200   5.822  2.0043  0.2949  3.8284
   12SAPS   C13 1470   6.059   1.147   5.872  1.0543  0.1450  0.4000
   12SAPS  O13A 1471   5.974   1.085   5.802 -0.6739  0.4773 -0.1506
   12SAPS  O13B 1472   6.034   1.248   5.940 -0.3085 -0.0432 -0.3237
   12SAPS   C11 1473   6.281   1.087   5.994  0.2160 -0.2726 -0.2257
   12SAPS  H11A 1474   6.271   1.178   6.057 -1.3212  0.1871 -1.1161
   12SAPS  H11B 1475   6.391   1.082   5.975  0.6978  0.3786  2.2091
   12SAPS     P 1476   6.353   0.886   6.151  0.0313  0.1052  0.1157
   12SAPS   O13 1477   6.297   0.825   6.271 -0.6669  0.1743  0.5730
   12SAPS   O14 1478   6.413   0.796   6.050  0.1052 -0.1551  0.4143
   12SAPS   O12 1479   6.237   0.972   6.071 -0.2445  0.2529  0.4330
   12SAPS   O11 1480   6.467   0.997   6.179 -0.2408 -0.5115 -0.3254
   12SAPS    C1 1481   6.452   1.102   6.272 -0.1492 -0.7453 -0.7678
   12SAPS    HA 1482   6.478   1.200   6.227  0.7792 -0.0843  1.1386
   12SAPS    HB 1483   6.346   1.109   6.307  0.0322 -0.2161 -0.3185
   12SAPS    C2 1484   6.545   1.077   6.391 -0.1114  0.4832 -0.2835
   12SAPS    HS 1485   6.647   1.086   6.348  0.6525 -0.2553  1.3497
   12SAPS   O21 1486   6.522   0.945   6.442 -0.1652 -0.1561 -0.0753
   12SAPS   C21 1487   6.617   0.850   6.440 -0.1406  0.0656 -0.5150
   12SAPS   O22 1488   6.728   0.874   6.398  0.1449 -0.1755 -0.2549
   12SAPS   C22 1489   6.581   0.725   6.517 -0.5223 -0.0756 -0.2626
   12SAPS   H2R 1490   6.510   0.756   6.596  0.9891  2.3271  0.2056
   12SAPS   H2S 1491   6.525   0.660   6.446 -3.1568  0.2500  1.4694
   12SAPS    C3 1492   6.539   1.185   6.495 -0.1778  0.0072 -0.1005
   12SAPS    HX 1493   6.435   1.194   6.531 -0.4795 -0.7726 -0.7570
   12SAPS    HY 1494   6.560   1.285   6.450 -2.4927  1.3319  1.6808
   12SAPS   O31 1495   6.635   1.156   6.604 -0.2360  0.3285  0.9854
   12SAPS   C31 1496   6.577   1.089   6.704 -0.5121 -0.0328 -0.5360
   12SAPS   O32 1497   6.458   1.068   6.713 -0.1058 -0.2230 -0.7662
   12SAPS   C32 1498   6.686   1.046   6.796  0.4305 -0.0083  0.5516
   12SAPS   H2X 1499   6.757   1.128   6.820  1.8805 -0.8987 -0.6498
   12SAPS   H2Y 1500   6.737   0.968   6.736 -1.2235 -0.9171  0.2915
   12SAPS   C23 1501   6.713   0.660   6.581 -0.1899 -0.1303 -0.2490
   12SAPS   H3R 1502   6.757   0.744   6.638 -0.1319 -1.0335  1.0617
   12SAPS   H3S 1503   6.793   0.634   6.509 -0.2184  0.2259 -0.4106
   12SAPS   C24 1504   6.678   0.545   6.678  1.0662  0.4438 -0.0251
   12SAPS   H4R 1505   6.614   0.486   6.609 -0.3223  2.2672 -0.3391
   12SAPS   H4S 1506   6.615   0.576   6.765 -1.1002 -2.1001 -0.6287
   12SAPS   C25 1507   6.795   0.462   6.743  0.3285 -0.1854  0.3807
   12SAPS   H5R 1508   6.824   0.373   6.685  1.7800 -1.3059  2.7536
   12SAPS   C26 1509   6.869   0.498   6.848  0.6979 -0.3169 -0.4920
   12SAPS   H6R 1510   6.951   0.431   6.877  1.9922  1.0328 -0.9470
   12SAPS   C27 1511   6.852   0.618   6.949 -0.0307 -0.3371  0.3161
   12SAPS   H7R 1512   6.835   0.572   7.048  1.6138 -1.2973  0.1579
   12SAPS   H7S 1513   6.774   0.692   6.920 -0.4211 -1.0445 -0.4499
   12SAPS   C28 1514   6.971   0.706   6.967 -0.1427  1.0040  0.1629
   12SAPS   H8R 1515   7.029   0.715   6.874  2.4052 -0.1305  1.5789
   12SAPS   C29 1516   7.020   0.761   7.077  0.3884 -0.8905  1.0061
   12SAPS   H9R 1517   7.110   0.824   7.071 -1.0188  1.2072  1.3579
   12SAPS  C210 1518   6.974   0.764   7.214  0.0967 -0.1101  0.0195
   12SAPS  H10R 1519   7.026   0.841   7.274  0.7473 -1.9102  1.8299
   12SAPS  H10S 1520   6.996   0.664   7.257 -1.3229 -0.4176  0.0778
   12SAPS  C211 1521   6.824   0.780   7.234  0.2539  0.9455 -0.3956
   12SAPS  H11R 1522   6.761   0.772   7.144  1.1175 -2.8060 -0.7697
   12SAPS  C212 1523   6.764   0.793   7.350  0.2769 -0.8591  0.2470
   12SAPS  H12R 1524   6.655   0.808   7.351  0.6117  2.1423 -0.7138
   12SAPS  C213 1525   6.822   0.808   7.490 -0.2081  0.3083 -0.0204
   12SAPS  H13R 1526   6.843   0.912   7.524  1.5275  0.0762 -0.3308
   12SAPS  H13S 1527   6.925   0.767   7.491 -0.8839 -1.4019  1.0861
   12SAPS  C214 1528   6.741   0.738   7.600  0.4450  0.0581 -0.1697
   12SAPS  H14R 1529   6.738   0.630   7.580 -2.8220  0.1375 -0.2787
   12SAPS  C215 1530   6.692   0.790   7.716 -0.0603 -0.4395 -0.1568
   12SAPS  H15R 1531   6.649   0.731   7.798 -0.0272  2.0979  1.7408
   12SAPS  C216 1532   6.695   0.937   7.749 -0.1659  0.3599 -0.5890
   12SAPS  H16R 1533   6.596   0.984   7.734  1.0809  2.6728 -1.7983
   12SAPS  H16S 1534   6.755   0.999   7.678  0.6313  0.0218 -0.2250
   12SAPS  C217 1535   6.734   0.956   7.896  0.9866  0.1105  0.5013
   12SAPS  H17R 1536   6.685   0.887   7.967 -0.0362 -1.9802 -2.1410
   12SAPS  H17S 1537   6.702   1.058   7.927  0.4062  0.2281 -0.4443
   12SAPS  C218 1538   6.891   0.940   7.926  0.9471  0.2221  0.3433
   12SAPS  H18R 1539   6.962   0.997   7.861  1.6340 -0.6867  0.2807
   12SAPS  H18S 1540   6.913   0.832   7.910 -0.2973  0.1723 -1.1675
   12SAPS  C219 1541   6.919   1.001   8.060  0.1803 -0.1431 -0.1396
   12SAPS  H19R 1542   6.862   0.954   8.143  1.4146 -1.4260 -0.0142
   12SAPS  H19S 1543   6.892   1.109   8.068 -1.3604 -0.6272  1.4908
   12SAPS  C220 1544   7.070   0.967   8.088 -0.0957  0.1070  0.2504
   12SAPS  H20R 1545   7.131   0.975   7.996 -3.2790  0.0416 -1.9678
   12SAPS  H20S 1546   7.072   0.862   8.124  0.2066  1.1246  3.3191
   12SAPS  H20T 1547   7.112   1.029   8.170 -1.1423 -0.0105  0.8964
   12SAPS   C33 1548   6.627   0.972   6.919  0.1882 -0.3227  0.8737
   12SAPS   H3X 1549   6.697   0.888   6.940  1.6509 -0.1806 -3.0719
   12SAPS   H3Y 1550   6.538   0.921   6.876  0.8190 -0.8774  0.2151
   12SAPS   C34 1551   6.596   1.061   7.038  0.0767 -0.2364 -0.0071
   12SAPS   H4X 1552   6.546   0.988   7.106 -0.8712 -0.4441 -0.9146
   12SAPS   H4Y 1553   6.527   1.142   7.005 -1.1641 -2.1963 -2.3409
   12SAPS   C35 1554   6.727   1.110   7.110 -0.1119  0.6536 -0.1624
   12SAPS   H5X 1555   6.777   1.190   7.050  1.1469  1.4109  1.8574
   12SAPS   H5Y 1556   6.805   1.035   7.086  0.3568  1.1085 -0.0667
   12SAPS   C36 1557   6.716   1.145   7.259  0.3207  0.2421  0.3583
   12SAPS   H6X 1558   6.657   1.070   7.316 -0.1803 -0.9240 -1.6458
   12SAPS   H6Y 1559   6.661   1.241   7.267  0.1083  0.1416  0.1055
   12SAPS   C37 1560   6.857   1.157   7.326 -0.6520 -0.7046  0.0212
   12SAPS   H7X 1561   6.933   1.216   7.270  0.4026  0.8191  2.9366
   12SAPS   H7Y 1562   6.899   1.054   7.334  3.1661  0.7298 -0.6014
   12SAPS   C38 1563   6.856   1.210   7.469 -0.5468 -0.1902  0.4501
   12SAPS   H8X 1564   6.764   1.174   7.520 -2.0613 -1.2462 -2.8380
   12SAPS   H8Y 1565   6.840   1.320   7.468 -0.9054 -0.2434 -1.0047
   12SAPS   C39 1566   6.980   1.183   7.554 -0.1990  0.4859 -0.0566
   12SAPS   H9X 1567   7.060   1.200   7.479  1.2129 -2.1796  0.7994
   12SAPS   H9Y 1568   6.984   1.073   7.566  3.5664  0.0203 -4.3585
   12SAPS  C310 1569   6.982   1.266   7.675  0.3157 -0.0594 -0.3420
   12SAPS  H10X 1570   6.887   1.239   7.726  0.1356  2.0146  0.4439
   12SAPS  H10Y 1571   6.984   1.375   7.658  1.1817 -0.1297 -0.7485
   12SAPS  C311 1572   7.094   1.226   7.777  0.1845  0.9719  0.2763
   12SAPS  H11X 1573   7.084   1.116   7.788 -2.1273  0.8026 -2.8674
   12SAPS  H11Y 1574   7.073   1.269   7.877 -0.1885  1.2091  0.0975
   12SAPS  C312 1575   7.229   1.278   7.732  0.1987 -0.4793  0.2793
   12SAPS  H12X 1576   7.227   1.387   7.710  2.2974 -0.7563 -1.4905
   12SAPS  H12Y 1577   7.264   1.229   7.638  1.7779 -0.2842  0.7563
   12SAPS  C313 1578   7.325   1.260   7.840 -0.1041  0.1101 -0.3932
   12SAPS  H13X 1579   7.320   1.155   7.878 -1.1201 -0.3261 -1.7042
   12SAPS  H13Y 1580   7.291   1.320   7.927  1.6240 -0.2605  0.5539
   12SAPS  C314 1581   7.468   1.294   7.801  0.4887 -0.1837 -0.0152
   12SAPS  H14X 1582   7.470   1.400   7.769  0.3653 -0.0282  0.5024
   12SAPS  H14Y 1583   7.501   1.219   7.726 -0.5777  0.3087 -0.9928
   12SAPS  C315 1584   7.558   1.288   7.920 -0.0969  0.3681  0.3992
   12SAPS  H15X 1585   7.515   1.357   7.996 -1.0727  0.0028  0.1841
   12SAPS  H15Y 1586   7.661   1.310   7.883 -0.7165 -1.4102 -2.5533
   12SAPS  C316 1587   7.557   1.148   7.991  0.3654 -0.2002 -0.3268
   12SAPS  H16X 1588   7.560   1.065   7.918 -2.5666  0.6882 -1.5201
   12SAPS  H16Y 1589   7.458   1.137   8.040 -0.1981  1.1552 -1.1333
   12SAPS  C317 1590   7.656   1.126   8.107 -0.3329 -0.0440  0.6953
   12SAPS  H17X 1591   7.624   1.041   8.170 -2.5848  1.2451  1.3643
   12SAPS  H17Y 1592   7.654   1.217   8.171 -0.4630  0.8621 -0.5752
   12SAPS  C318 1593   7.805   1.100   8.084  0.2878  0.2590 -0.3907
   12SAPS  H18X 1594   7.863   1.092   8.178  1.1875 -2.4458 -1.1162
   12SAPS  H18Y 1595   7.850   1.180   8.022 -1.7323  1.4018 -0.4058
   12SAPS  H18Z 1596   7.820   1.010   8.020 -2.3508  0.3507 -1.1869
   13SAPS     N 1597   1.025   4.465   5.803 -0.6458 -0.3337 -0.7552
   13SAPS   HN1 1598   1.030   4.449   5.700  0.2899 -2.0009 -0.4685
   13SAPS   HN2 1599   1.119   4.469   5.848 -0.4514  0.9466 -1.2446
   13SAPS   HN3 1600   0.970   4.386   5.842 -1.4170  0.2257 -0.7054
   13SAPS   C12 1601   0.958   4.601   5.820  0.8818 -0.2475  0.4902
   13SAPS  H12A 1602   1.029   4.675   5.786  1.2015 -1.0755 -0.7047
   13SAPS   C13 1603   0.836   4.611   5.725 -0.4912 -0.4818 -0.3218
   13SAPS  O13A 1604   0.804   4.519   5.649 -0.4294 -0.1024 -0.2172
   13SAPS  O13B 1605   0.768   4.710   5.752  0.0575 -0.0376  0.0208
   13SAPS   C11 1606   0.917   4.620   5.968 -0.2679  0.0863  0.6919
   13SAPS  H11A 1607   0.827   4.560   5.992 -1.3684  1.3081 -0.3111
   13SAPS  H11B 1608   0.890   4.727   5.980 -2.7975 -0.5171  0.6108
   13SAPS     P 1609   1.023   4.592   6.213  0.1554 -0.0848  0.2854
   13SAPS   O13 1610   1.062   4.453   6.250  0.2525  0.2607 -0.4028
   13SAPS   O14 1611   1.115   4.702   6.258 -0.2766  0.1681 -0.4452
   13SAPS   O12 1612   1.014   4.585   6.057 -0.1008 -0.1794  0.0558
   13SAPS   O11 1613   0.872   4.630   6.266 -0.0348  0.1134 -0.9765
   13SAPS    C1 1614   0.786   4.513   6.289  0.0568  0.4130 -0.3275
   13SAPS    HA 1615   0.794   4.446   6.201  0.0100  0.6707 -0.5315
   13SAPS    HB 1616   0.821   4.456   6.377  0.1894  1.6676  0.4512
   13SAPS    C2 1617   0.635   4.545   6.308 -0.2695 -0.2649 -0.8453
   13SAPS    HS 1618   0.607   4.624   6.235  0.0490 -0.8935 -1.6569
   13SAPS   O21 1619   0.627   4.597   6.446 -0.8342  0.6170 -0.0104
   13SAPS   C21 1620   0.525   4.679   6.465 -0.8435  0.1376 -0.2836
   13SAPS   O22 1621   0.429   4.687   6.386 -0.3117  0.0011  0.3248
   13SAPS   C22 1622   0.533   4.755   6.592 -0.2815  0.1744  0.3846
   13SAPS   H2R 1623   0.451   4.712   6.654 -0.3402 -0.8311 -0.3732
   13SAPS   H2S 1624   0.630   4.740   6.643 -0.6086 -0.3807  0.8445
   13SAPS    C3 1625   0.544   4.425   6.265 -0.3680 -0.4438  0.3717
   13SAPS    HX 1626   0.568   4.401   6.159 -2.3449  1.5950 -0.5923
   13SAPS    HY 1627   0.435   4.445   6.265 -0.7911 -2.5133 -2.2409
   13SAPS   O31 1628   0.577   4.310   6.343 -0.2068  0.9753 -0.1255
   13SAPS   C31 1629   0.533   4.316   6.467 -0.0729  0.3603  0.5165
   13SAPS   O32 1630   0.454   4.396   6.507  0.2822  0.0197 -0.1320
   13SAPS   C32 1631   0.609   4.206   6.549  0.1403 -0.0863  0.2292
   13SAPS   H2X 1632   0.713   4.199   6.511 -0.0803 -1.5378 -0.1408
   13SAPS   H2Y 1633   0.555   4.111   6.526 -2.8690  1.1447  1.9147
   13SAPS   C23 1634   0.517   4.905   6.565 -0.2779  0.0765  0.5165
   13SAPS   H3R 1635   0.436   4.925   6.492  1.5989  0.2177 -1.5895
   13SAPS   H3S 1636   0.607   4.943   6.511  0.0543 -0.3978  0.7331
   13SAPS   C24 1637   0.496   4.985   6.701  0.8643 -0.8236 -0.7138
   13SAPS   H4R 1638   0.391   4.976   6.736  0.2030  1.2922 -2.1043
   13SAPS   H4S 1639   0.518   5.091   6.676 -0.5402 -0.3510 -0.0212
   13SAPS   C25 1640   0.602   4.937   6.805  0.1727 -0.5128 -0.0218
   13SAPS   H5R 1641   0.709   4.943   6.780  0.0256  0.0951 -0.5407
   13SAPS   C26 1642   0.582   4.897   6.932  0.3227  0.5668 -0.1265
   13SAPS   H6R 1643   0.673   4.875   6.991 -1.8877  0.9153  3.5757
   13SAPS   C27 1644   0.448   4.890   6.998  0.1661 -0.5082  0.0473
   13SAPS   H7R 1645   0.369   4.954   6.953  2.0062  0.3141 -2.0931
   13SAPS   H7S 1646   0.450   4.945   7.094  2.6346  2.5077 -1.6825
   13SAPS   C28 1647   0.414   4.738   7.013 -0.6272 -0.0894 -0.7649
   13SAPS   H8R 1648   0.400   4.687   6.916  0.2662 -0.3877 -0.7440
   13SAPS   C29 1649   0.427   4.662   7.127 -0.4092 -0.3486  0.1592
   13SAPS   H9R 1650   0.425   4.554   7.111 -0.2517 -0.1281 -1.4172
   13SAPS  C210 1651   0.461   4.709   7.267  0.4217  0.1294 -0.1968
   13SAPS  H10R 1652   0.400   4.802   7.271 -0.7125 -0.3838 -3.5287
   13SAPS  H10S 1653   0.570   4.730   7.277  1.0408 -1.9611 -2.0897
   13SAPS  C211 1654   0.420   4.619   7.380 -0.4870 -0.6192 -0.1495
   13SAPS  H11R 1655   0.310   4.608   7.383 -0.7986  2.4342  1.9107
   13SAPS  C212 1656   0.492   4.564   7.481  0.5949 -0.5781 -0.7958
   13SAPS  H12R 1657   0.441   4.509   7.561  0.4596  1.0140  0.2326
   13SAPS  C213 1658   0.642   4.576   7.500 -0.8693  0.1294 -0.3456
   13SAPS  H13R 1659   0.663   4.673   7.549  0.4435 -0.6422  0.6409
   13SAPS  H13S 1660   0.691   4.582   7.401 -0.6819 -1.3110 -0.3486
   13SAPS  C214 1661   0.706   4.462   7.575  0.7076  0.4331  0.1135
   13SAPS  H14R 1662   0.775   4.404   7.513  1.7113  0.8738  0.7990
   13SAPS  C215 1663   0.691   4.428   7.702  0.1998 -0.4170  0.0165
   13SAPS  H15R 1664   0.748   4.347   7.749 -0.4592 -0.5270  0.6350
   13SAPS  C216 1665   0.600   4.500   7.796 -0.0301 -0.1600  0.7314
   13SAPS  H16R 1666   0.513   4.432   7.811 -0.1198 -0.3703 -0.6414
   13SAPS  H16S 1667   0.564   4.599   7.761 -0.4400 -0.0875  1.3392
   13SAPS  C217 1668   0.670   4.539   7.931  0.1396 -0.4504  0.3567
   13SAPS  H17R 1669   0.600   4.610   7.981 -1.0364 -0.9890 -0.4887
   13SAPS  H17S 1670   0.771   4.580   7.910 -0.1932  0.4779  0.5120
   13SAPS  C218 1671   0.686   4.420   8.029 -0.3022 -0.1131 -0.0109
   13SAPS  H18R 1672   0.779   4.452   8.079  0.1960  2.9264 -2.6866
   13SAPS  H18S 1673   0.705   4.318   7.989 -0.4525 -0.0795 -0.1712
   13SAPS  C219 1674   0.563   4.400   8.111  0.3808 -0.1013  0.2036
   13SAPS  H19R 1675   0.483   4.360   8.044  1.0210 -4.0556  1.6634
   13SAPS  H19S 1676   0.520   4.496   8.144 -2.4677 -1.6251  1.0938
   13SAPS  C220 1677   0.587   4.294   8.224  0.0894  0.4738 -0.0293
   13SAPS  H20R 1678   0.501   4.301   8.294  1.0270  1.9974  0.9857
   13SAPS  H20S 1679   0.666   4.338   8.288 -0.0849  1.0054 -0.1817
   13SAPS  H20T 1680   0.607   4.188   8.197  1.3114  0.3253  1.4505
   13SAPS   C33 1681   0.611   4.224   6.703  0.6402 -0.9360  0.4071
   13SAPS   H3X 1682   0.656   4.129   6.739 -0.7695 -0.8516  2.4681
   13SAPS   H3Y 1683   0.505   4.235   6.733  0.2170 -0.6134 -1.1653
   13SAPS   C34 1684   0.687   4.345   6.751 -0.2123 -0.0771 -0.4484
   13SAPS   H4X 1685   0.626   4.429   6.711 -0.4413  0.5305  1.1519
   13SAPS   H4Y 1686   0.790   4.340   6.711 -0.3018 -3.0754 -0.3995
   13SAPS   C35 1687   0.689   4.354   6.902  0.8620  0.5736  0.0681
   13SAPS   H5X 1688   0.584   4.367   6.935  0.7250  1.8122 -0.8307
   13SAPS   H5Y 1689   0.749   4.441   6.935 -0.6092  0.4384  3.2798
   13SAPS   C36 1690   0.754   4.240   6.975  0.7176  0.2320 -0.1969
   13SAPS   H6X 1691   0.858   4.225   6.942  0.3148 -3.2341 -0.1025
   13SAPS   H6Y 1692   0.702   4.142   6.969  1.2191 -0.2571  2.6339
   13SAPS   C37 1693   0.748   4.275   7.125  0.3150 -0.3359  0.4665
   13SAPS   H7X 1694   0.656   4.328   7.155  0.0388  0.6695 -2.0413
   13SAPS   H7Y 1695   0.817   4.356   7.157 -1.3101  0.6180  1.6263
   13SAPS   C38 1696   0.786   4.147   7.214 -0.0002 -0.6363  0.8222
   13SAPS   H8X 1697   0.886   4.124   7.173 -1.2556 -1.6004 -1.8196
   13SAPS   H8Y 1698   0.718   4.066   7.180  1.4921 -1.1341 -1.0076
   13SAPS   C39 1699   0.781   4.175   7.362 -0.0589  0.5867  0.0691
   13SAPS   H9X 1700   0.675   4.207   7.378 -0.2268  0.9079 -1.5618
   13SAPS   H9Y 1701   0.843   4.263   7.390  0.8957  0.2534 -0.9852
   13SAPS  C310 1702   0.807   4.045   7.428  0.3297  0.2882  0.0243
   13SAPS  H10X 1703   0.914   4.015   7.430 -0.4314 -2.5177  0.5146
   13SAPS  H10Y 1704   0.747   3.965   7.380  1.1339 -1.4404  1.8792
   13SAPS  C311 1705   0.770   4.060   7.570 -0.6043  0.2647  0.5368
   13SAPS  H11X 1706   0.660   4.051   7.580 -0.2994 -3.4984  1.3557
   13SAPS  H11Y 1707   0.803   4.163   7.595  0.8891 -0.3829  1.2585
   13SAPS  C312 1708   0.825   3.966   7.681  0.2196 -0.0814 -0.6680
   13SAPS  H12X 1709   0.932   3.984   7.707 -0.4676  1.8743  0.9377
   13SAPS  H12Y 1710   0.820   3.859   7.652  2.2158 -0.4440  0.2244
   13SAPS  C313 1711   0.758   3.987   7.815 -0.7560 -0.7421 -0.0154
   13SAPS  H13X 1712   0.649   3.972   7.798 -0.8534  0.5700 -0.6513
   13SAPS  H13Y 1713   0.752   4.097   7.830  0.1883 -0.9556  1.9601
   13SAPS  C314 1714   0.819   3.904   7.929 -0.8897 -0.4421 -0.1545
   13SAPS  H14X 1715   0.924   3.938   7.939 -1.2576  1.0933 -1.3779
   13SAPS  H14Y 1716   0.834   3.798   7.900  0.4082 -0.6549  1.2648
   13SAPS  C315 1717   0.743   3.919   8.070  0.3853  0.6198  0.0472
   13SAPS  H15X 1718   0.641   3.882   8.045 -0.1029  2.0870 -0.2350
   13SAPS  H15Y 1719   0.744   4.028   8.092  1.5709  0.5226  0.4997
   13SAPS  C316 1720   0.810   3.831   8.179 -0.1402  0.2955 -0.5744
   13SAPS  H16X 1721   0.919   3.850   8.188  0.2231 -1.7551 -0.5175
   13SAPS  H16Y 1722   0.788   3.726   8.152  2.3820 -0.5239  0.4545
   13SAPS  C317 1723   0.735   3.860   8.315 -0.1565  0.3025 -0.5530
   13SAPS  H17X 1724   0.630   3.825   8.316 -0.9653  2.5874 -1.2000
   13SAPS  H17Y 1725   0.734   3.969   8.335 -1.5157  0.0143  0.9906
   13SAPS  C318 1726   0.807   3.793   8.431 -0.6556 -0.4929  0.2203
   13SAPS  H18X 1727   0.795   3.683   8.436 -0.1155 -0.7159 -2.6038
   13SAPS  H18Y 1728   0.769   3.848   8.520  0.6628  1.1411 -0.1910
   13SAPS  H18Z 1729   0.915   3.816   8.423 -1.5516  4.2238  0.2067
   14SAPS     N 1730   0.478   0.186   5.664 -0.5342 -0.4857 -0.4157
   14SAPS   HN1 1731   0.509   0.217   5.758 -1.4061 -2.2849  0.4884
   14SAPS   HN2 1732   0.467   0.083   5.662 -1.3206 -0.3973 -3.8548
   14SAPS   HN3 1733   0.557   0.215   5.603 -0.3383  0.4686  0.2879
   14SAPS   C12 1734   0.356   0.239   5.587 -0.3788 -0.4075 -0.3172
   14SAPS  H12A 1735   0.364   0.346   5.591 -0.9493 -0.3518 -0.5898
   14SAPS   C13 1736   0.359   0.198   5.444  0.4497 -0.2291  0.9998
   14SAPS  O13A 1737   0.457   0.133   5.390  0.0363 -0.4625  0.1769
   14SAPS  O13B 1738   0.263   0.233   5.370 -0.5390 -0.0307  0.6154
   14SAPS   C11 1739   0.218   0.188   5.650 -0.6632 -0.7781 -0.0433
   14SAPS  H11A 1740   0.208   0.080   5.623 -0.0322 -1.1275  1.0867
   14SAPS  H11B 1741   0.141   0.247   5.596 -0.0521  0.3723  0.3410
   14SAPS     P 1742   0.122   0.303   5.854 -0.1666 -0.5913 -0.2143
   14SAPS   O13 1743   0.172   0.439   5.831 -0.6352  0.3201 -0.0868
   14SAPS   O14 1744  -0.020   0.280   5.824 -0.4002  0.0840 -0.1951
   14SAPS   O12 1745   0.223   0.211   5.789 -0.3575  0.9161 -0.0471
   14SAPS   O11 1746   0.142   0.265   6.001  0.3247  0.1615 -0.2210
   14SAPS    C1 1747   0.284   0.237   6.047 -0.7463 -0.1993 -0.1403
   14SAPS    HA 1748   0.333   0.144   6.009 -1.1764 -0.2621 -0.5483
   14SAPS    HB 1749   0.353   0.320   6.021  1.4744 -2.2909 -1.0774
   14SAPS    C2 1750   0.297   0.218   6.202  0.2789 -0.0671  0.2356
   14SAPS    HS 1751   0.228   0.133   6.219 -0.9454  0.8325 -0.0640
   14SAPS   O21 1752   0.247   0.335   6.265 -0.2694 -0.0868 -0.2018
   14SAPS   C21 1753   0.227   0.352   6.391 -0.1255  0.3434  0.8088
   14SAPS   O22 1754   0.195   0.265   6.471 -0.0101  0.3408  0.1541
   14SAPS   C22 1755   0.230   0.505   6.419 -1.1172 -0.1063 -0.2664
   14SAPS   H2R 1756   0.175   0.550   6.334 -0.0033  1.1858 -0.3267
   14SAPS   H2S 1757   0.179   0.535   6.513 -2.7943  0.2021 -1.2498
   14SAPS    C3 1758   0.435   0.170   6.243 -0.1348  0.2795  0.0891
   14SAPS    HX 1759   0.498   0.259   6.266 -0.0942 -0.0577  1.2956
   14SAPS    HY 1760   0.500   0.112   6.174  1.9345  0.9879  1.4022
   14SAPS   O31 1761   0.443   0.113   6.378  0.3486  0.2908  0.3152
   14SAPS   C31 1762   0.387  -0.005   6.390  0.3482  0.3276  0.3563
   14SAPS   O32 1763   0.353  -0.076   6.298 -0.0096  0.1687 -0.3943
   14SAPS   C32 1764   0.373  -0.043   6.533  1.0230  0.1253  0.0463
   14SAPS   H2X 1765   0.330   0.043   6.587  1.1528  1.5924 -2.1101
   14SAPS   H2Y 1766   0.473  -0.072   6.571 -0.1805 -0.5604  2.8196
   14SAPS   C23 1767   0.373   0.560   6.419  0.0876  0.3799 -0.1686
   14SAPS   H3R 1768   0.356   0.669   6.410 -0.4005  0.2796 -0.5175
   14SAPS   H3S 1769   0.424   0.539   6.323  0.4508 -2.6523  0.6237
   14SAPS   C24 1770   0.467   0.535   6.537  0.3266  0.4196  0.3610
   14SAPS   H4R 1771   0.552   0.600   6.506  0.4967 -0.5755 -1.3157
   14SAPS   H4S 1772   0.506   0.431   6.528 -3.1121 -0.7742 -1.5851
   14SAPS   C25 1773   0.422   0.579   6.671 -0.6083  0.2120 -0.0331
   14SAPS   H5R 1774   0.402   0.687   6.672 -1.5630  0.0487  2.9027
   14SAPS   C26 1775   0.422   0.508   6.789  0.2432  0.2185 -0.2084
   14SAPS   H6R 1776   0.388   0.556   6.882 -0.2133  0.0211 -0.2746
   14SAPS   C27 1777   0.477   0.372   6.821 -0.5461  0.2971  0.3013
   14SAPS   H7R 1778   0.535   0.388   6.914 -0.2399 -0.0146  0.1648
   14SAPS   H7S 1779   0.551   0.352   6.741 -2.2374 -1.3652 -0.9097
   14SAPS   C28 1780   0.368   0.263   6.827  0.5911  0.0236  0.3682
   14SAPS   H8R 1781   0.311   0.242   6.736  1.5171  0.4564 -0.3217
   14SAPS   C29 1782   0.327   0.193   6.937 -0.7509 -0.2712 -0.1614
   14SAPS   H9R 1783   0.240   0.128   6.923 -1.2511  0.7486 -1.8134
   14SAPS  C210 1784   0.372   0.194   7.079 -0.9380 -0.4268  1.0989
   14SAPS  H10R 1785   0.479   0.163   7.085 -1.3956 -2.3573 -0.0860
   14SAPS  H10S 1786   0.323   0.109   7.131 -0.0474 -1.8086 -0.2728
   14SAPS  C211 1787   0.360   0.325   7.155 -0.2562 -0.4104  0.3618
   14SAPS  H11R 1788   0.320   0.411   7.100 -0.6076  0.7631  2.3924
   14SAPS  C212 1789   0.410   0.356   7.277  0.2508 -0.0588 -0.6408
   14SAPS  H12R 1790   0.407   0.458   7.318  1.7981 -0.0427 -0.5456
   14SAPS  C213 1791   0.485   0.260   7.364 -0.4238  0.3960 -0.9940
   14SAPS  H13R 1792   0.586   0.303   7.380 -1.4259  2.0563  0.9715
   14SAPS  H13S 1793   0.502   0.161   7.317  4.3153  0.3656  0.5448
   14SAPS  C214 1794   0.404   0.234   7.488 -0.2845  0.1003  0.1665
   14SAPS  H14R 1795   0.311   0.178   7.466 -0.8720  0.9029  0.5685
   14SAPS  C215 1796   0.448   0.267   7.617  0.7178 -0.2767 -0.0260
   14SAPS  H15R 1797   0.379   0.243   7.699 -1.9119  0.5048 -1.8979
   14SAPS  C216 1798   0.572   0.340   7.667 -0.0336 -0.3191 -0.2283
   14SAPS  H16R 1799   0.534   0.430   7.720 -1.2955 -1.7272  1.3468
   14SAPS  H16S 1800   0.636   0.371   7.582 -0.8198 -1.4860 -1.2653
   14SAPS  C217 1801   0.664   0.260   7.768  0.6384 -0.0325  0.7719
   14SAPS  H17R 1802   0.688   0.162   7.722 -0.4402  0.1232 -0.1556
   14SAPS  H17S 1803   0.603   0.237   7.857  0.6566 -0.1124  0.7632
   14SAPS  C218 1804   0.792   0.327   7.813 -0.5962 -0.0655  0.5966
   14SAPS  H18R 1805   0.768   0.410   7.883  0.1189 -0.6916  1.5944
   14SAPS  H18S 1806   0.836   0.370   7.720  1.2145 -0.3672  1.2889
   14SAPS  C219 1807   0.869   0.219   7.891 -0.3529 -0.1330  0.0291
   14SAPS  H19R 1808   0.924   0.160   7.815  0.9135  1.9452 -0.6915
   14SAPS  H19S 1809   0.808   0.142   7.944 -1.4472 -0.7137 -2.0261
   14SAPS  C220 1810   0.958   0.285   7.998  0.0630  0.1202 -0.4994
   14SAPS  H20R 1811   0.899   0.310   8.089  0.2878 -0.3693 -0.2160
   14SAPS  H20S 1812   1.000   0.376   7.949 -0.1966  0.6977  0.3351
   14SAPS  H20T 1813   1.043   0.221   8.033  0.1639  0.7195  0.3838
   14SAPS   C33 1814   0.286  -0.163   6.537 -0.4414  0.8508  0.4165
   14SAPS   H3X 1815   0.295  -0.237   6.455 -1.1347  1.1238  0.0854
   14SAPS   H3Y 1816   0.180  -0.131   6.531  0.2265  3.2789  1.1019
   14SAPS   C34 1817   0.315  -0.243   6.674 -0.5137 -0.2471  0.3568
   14SAPS   H4X 1818   0.421  -0.266   6.699  0.0604 -0.0107 -1.7491
   14SAPS   H4Y 1819   0.256  -0.337   6.671  2.2660 -2.0612  0.6233
   14SAPS   C35 1820   0.248  -0.165   6.791  0.2637  0.2720  0.4203
   14SAPS   H5X 1821   0.140  -0.145   6.770  0.4923  1.2950  0.2022
   14SAPS   H5Y 1822   0.295  -0.066   6.810  0.6238  0.2111 -0.1527
   14SAPS   C36 1823   0.260  -0.247   6.931 -0.0248 -0.2383  0.1442
   14SAPS   H6X 1824   0.370  -0.257   6.943 -0.1187 -1.4686 -0.0551
   14SAPS   H6Y 1825   0.212  -0.346   6.921 -0.8094 -0.0261  1.7223
   14SAPS   C37 1826   0.197  -0.179   7.050 -0.1730 -0.0962 -0.1591
   14SAPS   H7X 1827   0.087  -0.189   7.038 -0.0597 -0.9215 -0.5555
   14SAPS   H7Y 1828   0.222  -0.071   7.059  1.6296 -0.3133 -2.1628
   14SAPS   C38 1829   0.232  -0.257   7.171  0.3362 -0.8501 -0.6689
   14SAPS   H8X 1830   0.343  -0.259   7.174  0.3044 -0.7546  0.9818
   14SAPS   H8Y 1831   0.190  -0.360   7.173 -1.5712 -0.1204 -1.2716
   14SAPS   C39 1832   0.185  -0.177   7.298 -0.1824  0.0205 -0.0446
   14SAPS   H9X 1833   0.075  -0.166   7.305 -0.2287  0.8427 -1.8386
   14SAPS   H9Y 1834   0.233  -0.076   7.296 -1.9634  0.9034  0.6529
   14SAPS  C310 1835   0.237  -0.248   7.426  0.3548 -0.3783 -0.6566
   14SAPS  H10X 1836   0.336  -0.284   7.393  0.9045  0.6153 -0.1156
   14SAPS  H10Y 1837   0.171  -0.333   7.453 -1.1369  0.9148 -0.1153
   14SAPS  C311 1838   0.248  -0.152   7.543  0.3829 -0.5029 -0.3392
   14SAPS  H11X 1839   0.145  -0.113   7.559  0.7823 -0.1295  1.4073
   14SAPS  H11Y 1840   0.309  -0.060   7.535 -0.3727  0.1667  1.2223
   14SAPS  C312 1841   0.286  -0.221   7.669 -0.6422  0.4711 -0.3134
   14SAPS  H12X 1842   0.383  -0.273   7.650 -1.1693 -0.6723  0.0525
   14SAPS  H12Y 1843   0.210  -0.301   7.681 -0.0626  0.2760  2.3341
   14SAPS  C313 1844   0.295  -0.119   7.791  0.0189  0.0741 -0.1986
   14SAPS  H13X 1845   0.194  -0.074   7.795  0.0406  0.1290 -0.2749
   14SAPS  H13Y 1846   0.363  -0.033   7.773 -0.1078  0.8603  2.8328
   14SAPS  C314 1847   0.325  -0.179   7.930 -0.1535  1.3273  0.1791
   14SAPS  H14X 1848   0.383  -0.108   7.993  0.3497 -0.5813  1.9204
   14SAPS  H14Y 1849   0.399  -0.261   7.915 -0.6031  1.4100 -2.6307
   14SAPS  C315 1850   0.202  -0.243   8.005  0.0344  0.0880  0.1250
   14SAPS  H15X 1851   0.237  -0.344   8.036 -2.1059 -1.0589 -1.0863
   14SAPS  H15Y 1852   0.120  -0.252   7.931  0.7165  0.6261 -0.7204
   14SAPS  C316 1853   0.165  -0.167   8.130  0.5008 -0.3692  0.3804
   14SAPS  H16X 1854   0.147  -0.059   8.113 -1.1810 -0.5035  1.1951
   14SAPS  H16Y 1855   0.246  -0.169   8.205  0.8155 -0.3421  0.0415
   14SAPS  C317 1856   0.034  -0.220   8.189 -0.0129 -0.3719 -0.3056
   14SAPS  H17X 1857   0.036  -0.331   8.197  1.5264 -0.3686 -0.6522
   14SAPS  H17Y 1858  -0.047  -0.198   8.116 -1.0335 -1.0240  0.6019
   14SAPS  C318 1859  -0.009  -0.147   8.318  0.1177 -0.7616 -0.4099
   14SAPS  H18X 1860  -0.114  -0.171   8.343  0.2026 -0.4021  0.3053
   14SAPS  H18Y 1861  -0.007  -0.038   8.296 -0.9932 -0.3579  1.3875
   14SAPS  H18Z 1862   0.059  -0.172   8.402 -0.8183 -0.0134  0.5875
   15SAPS     N 1863   1.526   6.628   5.659  0.2589 -0.4920 -0.6383
   15SAPS   HN1 1864   1.550   6.550   5.595 -0.8810 -1.2305 -0.1765
   15SAPS   HN2 1865   1.593   6.634   5.738  0.3994  1.7763 -0.8811
   15SAPS   HN3 1866   1.433   6.618   5.705  0.4289 -0.8483 -0.3743
   15SAPS   C12 1867   1.532   6.753   5.592 -0.2410  0.4885  0.1800
   15SAPS  H12A 1868   1.630   6.765   5.549 -0.8481 -0.3444 -1.4336
   15SAPS   C13 1869   1.429   6.775   5.482  0.0134  0.1128 -0.2088
   15SAPS  O13A 1870   1.344   6.679   5.469 -0.4815  0.2391 -0.4641
   15SAPS  O13B 1871   1.429   6.879   5.413 -0.6071  0.5830  0.3478
   15SAPS   C11 1872   1.508   6.861   5.703 -0.1102  0.0397  0.2610
   15SAPS  H11A 1873   1.496   6.963   5.661 -0.6915 -0.4343 -0.7262
   15SAPS  H11B 1874   1.604   6.856   5.760  0.6480  0.0035 -1.0011
   15SAPS     P 1875   1.338   6.918   5.895 -0.0587 -0.0630 -0.1642
   15SAPS   O13 1876   1.432   7.024   5.934 -0.0160 -0.0896  0.3429
   15SAPS   O14 1877   1.199   6.957   5.859  0.0016 -0.6774  0.2760
   15SAPS   O12 1878   1.401   6.834   5.785  0.0225  0.1407 -0.1632
   15SAPS   O11 1879   1.318   6.828   6.026  0.6782  0.3527 -0.6410
   15SAPS    C1 1880   1.417   6.744   6.084 -0.0848  0.6947 -0.0416
   15SAPS    HA 1881   1.421   6.645   6.032 -0.7686  0.7168 -0.1296
   15SAPS    HB 1882   1.517   6.791   6.068 -0.0043  0.3750 -0.5229
   15SAPS    C2 1883   1.372   6.700   6.232  0.8423 -0.0854  0.4926
   15SAPS    HS 1884   1.283   6.638   6.206  0.9638 -0.8548  1.8663
   15SAPS   O21 1885   1.346   6.811   6.317  0.2061  0.3786 -0.9559
   15SAPS   C21 1886   1.252   6.795   6.399  0.4708  0.3693  0.1874
   15SAPS   O22 1887   1.173   6.700   6.413  0.3385  0.2831 -0.0987
   15SAPS   C22 1888   1.234   6.924   6.472 -0.0696  0.0360  0.4122
   15SAPS   H2R 1889   1.233   6.999   6.389 -3.3095 -1.6380 -1.1653
   15SAPS   H2S 1890   1.135   6.923   6.522 -0.0374  1.7896  0.5414
   15SAPS    C3 1891   1.478   6.601   6.309 -0.7830  0.3420 -0.0613
   15SAPS    HX 1892   1.565   6.656   6.351  0.9125 -0.5665 -2.2946
   15SAPS    HY 1893   1.520   6.526   6.239  0.1079  0.3262  0.4930
   15SAPS   O31 1894   1.420   6.534   6.422 -0.2774  0.4321 -0.1541
   15SAPS   C31 1895   1.348   6.422   6.404  0.0509 -0.3223  0.3166
   15SAPS   O32 1896   1.318   6.375   6.298 -0.9283 -0.1053 -0.0613
   15SAPS   C32 1897   1.284   6.388   6.534 -0.3831 -0.6852 -1.0324
   15SAPS   H2X 1898   1.180   6.355   6.509 -0.0153 -3.3205  0.7546
   15SAPS   H2Y 1899   1.287   6.479   6.598 -1.7622 -0.9559 -0.5620
   15SAPS   C23 1900   1.337   6.954   6.585  0.6870 -0.1347 -0.4532
   15SAPS   H3R 1901   1.335   7.060   6.618 -0.4026  0.3525 -2.0083
   15SAPS   H3S 1902   1.443   6.943   6.554  0.5870  2.4556 -1.8702
   15SAPS   C24 1903   1.300   6.869   6.714  0.6305  0.4312 -0.2785
   15SAPS   H4R 1904   1.384   6.859   6.786  1.9733  2.3050 -1.5424
   15SAPS   H4S 1905   1.278   6.764   6.687 -0.9082  1.0150 -1.3946
   15SAPS   C25 1906   1.169   6.923   6.778 -0.0425 -0.2699  0.1084
   15SAPS   H5R 1907   1.076   6.886   6.733  2.0833 -3.9830 -1.4680
   15SAPS   C26 1908   1.165   6.985   6.900  0.0683 -0.1151  0.1214
   15SAPS   H6R 1909   1.066   7.021   6.932 -0.1715 -0.7342  0.0884
   15SAPS   C27 1910   1.281   7.024   6.985  0.5463 -0.0984 -0.0614
   15SAPS   H7R 1911   1.361   6.947   6.986 -2.1434 -3.0059  0.2023
   15SAPS   H7S 1912   1.237   7.029   7.087  0.0602 -1.7084 -0.1829
   15SAPS   C28 1913   1.326   7.160   6.950  0.0560 -0.0486  0.8552
   15SAPS   H8R 1914   1.341   7.166   6.841  1.2250  0.2475  1.0300
   15SAPS   C29 1915   1.359   7.266   7.027  0.5991  0.1604 -0.1447
   15SAPS   H9R 1916   1.410   7.351   6.979  0.0760  0.9687  0.7053
   15SAPS  C210 1917   1.360   7.273   7.180 -0.0102 -0.0568  0.0028
   15SAPS  H10R 1918   1.463   7.303   7.210 -1.1302  3.0413  0.9603
   15SAPS  H10S 1919   1.344   7.171   7.220 -2.0550  1.3300  2.9534
   15SAPS  C211 1920   1.260   7.364   7.247  0.2333 -0.6760  0.1263
   15SAPS  H11R 1921   1.158   7.368   7.206 -0.0303 -0.9032  0.7424
   15SAPS  C212 1922   1.277   7.450   7.347  0.5306 -0.0363  0.0230
   15SAPS  H12R 1923   1.196   7.522   7.363  0.6740  0.5227 -1.7207
   15SAPS  C213 1924   1.407   7.467   7.428  0.6071 -0.1739  0.3926
   15SAPS  H13R 1925   1.444   7.363   7.438 -1.3589 -0.9755 -0.3128
   15SAPS  H13S 1926   1.384   7.503   7.530  0.5091 -2.6033  1.2513
   15SAPS  C214 1927   1.532   7.545   7.381  0.0141  0.3641  0.6167
   15SAPS  H14R 1928   1.617   7.488   7.338 -2.4513 -1.0083 -2.6171
   15SAPS  C215 1929   1.547   7.679   7.387  0.6738  0.3002 -0.5183
   15SAPS  H15R 1930   1.646   7.722   7.363  1.5669  0.4062  3.1013
   15SAPS  C216 1931   1.447   7.787   7.430 -0.2584  0.0533  0.0476
   15SAPS  H16R 1932   1.342   7.756   7.408 -1.0544 -0.2085  3.8498
   15SAPS  H16S 1933   1.461   7.880   7.370 -0.6958  0.1308  0.0640
   15SAPS  C217 1934   1.473   7.835   7.575 -0.9975 -0.0940  0.7269
   15SAPS  H17R 1935   1.576   7.879   7.574 -1.0628  0.1254 -3.6665
   15SAPS  H17S 1936   1.468   7.750   7.646  2.2726 -0.1370  0.9940
   15SAPS  C218 1937   1.374   7.943   7.630  0.4237  0.4102  0.0259
   15SAPS  H18R 1938   1.366   8.026   7.557 -2.0073  0.1052 -0.0704
   15SAPS  H18S 1939   1.406   7.979   7.730 -0.8765 -0.7381  0.8698
   15SAPS  C219 1940   1.234   7.892   7.653 -0.5003  0.4128  0.2100
   15SAPS  H19R 1941   1.250   7.806   7.720  2.3499  1.9772  1.6190
   15SAPS  H19S 1942   1.194   7.866   7.552 -3.4317  2.4301  0.7950
   15SAPS  C220 1943   1.138   7.983   7.724 -0.2673  0.0492  0.0532
   15SAPS  H20R 1944   1.176   8.013   7.823  0.3998  2.4511 -0.8938
   15SAPS  H20S 1945   1.038   7.933   7.722  0.3808 -1.2557 -0.1858
   15SAPS  H20T 1946   1.125   8.070   7.655 -0.1736 -0.6355 -0.8389
   15SAPS   C33 1947   1.363   6.281   6.623  0.1173 -0.4241 -0.2200
   15SAPS   H3X 1948   1.464   6.325   6.642 -0.2005  0.6748 -1.0104
   15SAPS   H3Y 1949   1.374   6.191   6.558  1.1030 -0.5341  0.0818
   15SAPS   C34 1950   1.291   6.243   6.752  0.5723 -0.5541  0.1207
   15SAPS   H4X 1951   1.188   6.206   6.733 -0.9678  2.9508  1.0991
   15SAPS   H4Y 1952   1.282   6.345   6.795 -0.3516  0.4382 -2.3052
   15SAPS   C35 1953   1.376   6.151   6.833  0.1141 -0.0094 -0.6064
   15SAPS   H5X 1954   1.482   6.185   6.828 -0.8300  3.1044 -0.0347
   15SAPS   H5Y 1955   1.371   6.046   6.797 -0.2853  0.4844 -2.0160
   15SAPS   C36 1956   1.331   6.144   6.981  0.6384  0.5562  0.7290
   15SAPS   H6X 1957   1.221   6.156   6.970  0.9257  2.0135 -0.8877
   15SAPS   H6Y 1958   1.362   6.224   7.051  1.4864 -0.0860  1.0975
   15SAPS   C37 1959   1.368   6.017   7.051 -0.0625  0.1801  0.3220
   15SAPS   H7X 1960   1.475   6.021   7.080 -0.6905  1.8689  2.4648
   15SAPS   H7Y 1961   1.352   5.939   6.973 -2.9094  1.5705 -0.5739
   15SAPS   C38 1962   1.287   5.993   7.181 -0.6749  0.5751 -0.4937
   15SAPS   H8X 1963   1.184   5.952   7.171 -1.2748  1.8759  0.1259
   15SAPS   H8Y 1964   1.274   6.092   7.230 -1.8957  1.0377 -1.7388
   15SAPS   C39 1965   1.360   5.920   7.288  0.1137 -0.3399 -0.0540
   15SAPS   H9X 1966   1.464   5.958   7.299  0.2554 -0.0685 -2.2645
   15SAPS   H9Y 1967   1.372   5.810   7.274  2.0278 -0.1207 -0.2840
   15SAPS  C310 1968   1.299   5.934   7.437 -0.2271  0.1641  0.5265
   15SAPS  H10X 1969   1.197   5.889   7.442 -0.5230  0.6227 -1.0449
   15SAPS  H10Y 1970   1.298   6.044   7.455 -0.8090 -0.2835  3.5241
   15SAPS  C311 1971   1.386   5.882   7.547  0.0267  0.8644  0.2309
   15SAPS  H11X 1972   1.479   5.943   7.553 -0.3200  1.6898 -2.1616
   15SAPS  H11Y 1973   1.420   5.779   7.525  0.9554  0.8763  1.5617
   15SAPS  C312 1974   1.313   5.877   7.687 -0.0004  0.1488 -0.5391
   15SAPS  H12X 1975   1.210   5.835   7.684  0.1432 -0.1987 -0.5500
   15SAPS  H12Y 1976   1.326   5.981   7.726  0.7094  0.3479 -1.2808
   15SAPS  C313 1977   1.394   5.790   7.784  0.2145 -0.2484  0.4463
   15SAPS  H13X 1978   1.500   5.819   7.767 -0.3811  1.2137 -0.8630
   15SAPS  H13Y 1979   1.386   5.683   7.758 -0.0917 -0.1360  0.0832
   15SAPS  C314 1980   1.359   5.813   7.928 -0.1114  0.0799 -0.7914
   15SAPS  H14X 1981   1.255   5.775   7.943  0.4979 -1.1463  0.4300
   15SAPS  H14Y 1982   1.360   5.922   7.949  0.5218 -0.0640 -0.0630
   15SAPS  C315 1983   1.453   5.739   8.021 -0.8681 -0.5873 -0.1781
   15SAPS  H15X 1984   1.557   5.760   7.989 -1.4621  0.3976 -1.4810
   15SAPS  H15Y 1985   1.436   5.631   8.002 -0.0585 -0.3813 -2.1804
   15SAPS  C316 1986   1.428   5.778   8.169 -0.2781  0.2081 -0.2782
   15SAPS  H16X 1987   1.334   5.723   8.190  0.5951 -1.1207  0.2028
   15SAPS  H16Y 1988   1.408   5.887   8.176  1.8648  0.6339 -0.5670
   15SAPS  C317 1989   1.539   5.733   8.260 -0.1711  0.1445 -0.3322
   15SAPS  H17X 1990   1.567   5.628   8.234  1.6709  0.6394 -0.3771
   15SAPS  H17Y 1991   1.512   5.729   8.368 -2.9172 -0.7105 -1.0065
   15SAPS  C318 1992   1.659   5.831   8.251 -0.3164 -0.0383 -0.0342
   15SAPS  H18X 1993   1.634   5.936   8.274  0.7472  0.3831 -0.7834
   15SAPS  H18Y 1994   1.688   5.846   8.145 -0.1025 -0.5561 -0.0536
   15SAPS  H18Z 1995   1.747   5.812   8.316 -0.5815  1.4101  0.7712
   16SAPS     N 1996   2.675   0.990   6.621  0.3321  0.1192 -0.5122
   16SAPS   HN1 1997   2.576   0.961   6.636 -0.0384  1.2574 -0.6465
   16SAPS   HN2 1998   2.728   0.908   6.585  0.1026 -0.2495 -0.0143
   16SAPS   HN3 1999   2.710   1.026   6.711 -3.2663 -0.8664  1.3743
   16SAPS   C12 2000   2.681   1.106   6.526  0.1969  1.1347  0.4509
   16SAPS  H12A 2001   2.664   1.063   6.428 -1.1462 -1.0868  1.6444
   16SAPS   C13 2002   2.573   1.209   6.543  0.1062 -0.0077 -0.4248
   16SAPS  O13A 2003   2.498   1.190   6.644 -0.3959  0.3047 -0.6874
   16SAPS  O13B 2004   2.547   1.295   6.454 -0.5187 -0.2964  0.1545
   16SAPS   C11 2005   2.829   1.160   6.520  0.4165 -0.5423  0.6142
   16SAPS  H11A 2006   2.838   1.240   6.443  1.6040  0.3274  1.6230
   16SAPS  H11B 2007   2.899   1.080   6.486 -0.3470 -0.3844 -1.4117
   16SAPS     P 2008   2.928   1.337   6.691 -0.5549  0.1076 -0.1616
   16SAPS   O13 2009   3.035   1.333   6.799 -0.0751  0.3656  0.7012
   16SAPS   O14 2010   2.970   1.411   6.565  0.0986  0.3020  0.5896
   16SAPS   O12 2011   2.873   1.194   6.652  0.1988  0.3320 -0.1126
   16SAPS   O11 2012   2.800   1.414   6.750 -0.2060 -0.6413 -0.1090
   16SAPS    C1 2013   2.712   1.363   6.855 -0.1099  0.2251 -0.2392
   16SAPS    HA 2014   2.609   1.398   6.830  0.4167  0.6996 -1.7853
   16SAPS    HB 2015   2.707   1.254   6.836 -1.0261  0.2147  0.0333
   16SAPS    C2 2016   2.734   1.414   7.003  0.3593  0.6348  0.0982
   16SAPS    HS 2017   2.829   1.369   7.039 -0.4120 -0.1038  1.2846
   16SAPS   O21 2018   2.614   1.378   7.075 -0.0307 -0.0612 -0.4398
   16SAPS   C21 2019   2.621   1.260   7.133 -0.4308  0.0077 -0.0534
   16SAPS   O22 2020   2.703   1.173   7.106  0.3866  0.2684 -0.2042
   16SAPS   C22 2021   2.507   1.247   7.235  0.0792  0.6542 -0.8336
   16SAPS   H2R 2022   2.455   1.343   7.256  0.9744  0.7616  0.9643
   16SAPS   H2S 2023   2.423   1.185   7.198  0.1974  0.7939 -1.3445
   16SAPS    C3 2024   2.740   1.571   7.003 -0.6984  0.1235  0.3897
   16SAPS    HX 2025   2.644   1.605   6.960 -1.4540 -1.7965  0.5339
   16SAPS    HY 2026   2.823   1.596   6.933 -0.1112  0.4702  1.1984
   16SAPS   O31 2027   2.748   1.635   7.130  0.1089 -0.1934  0.0536
   16SAPS   C31 2028   2.813   1.753   7.134  0.0458 -0.4348 -0.4148
   16SAPS   O32 2029   2.849   1.813   7.034  0.1386  0.4551  0.4240
   16SAPS   C32 2030   2.801   1.820   7.277 -0.1818 -0.3200  0.2052
   16SAPS   H2X 2031   2.707   1.880   7.275  0.1688  0.2260 -0.2411
   16SAPS   H2Y 2032   2.892   1.884   7.287 -2.0789  2.3977  0.6410
   16SAPS   C23 2033   2.557   1.198   7.376  0.7431 -0.4428 -0.1400
   16SAPS   H3R 2034   2.642   1.257   7.418  0.9118  0.1117 -1.2309
   16SAPS   H3S 2035   2.605   1.103   7.347  2.2427  0.3628 -0.3732
   16SAPS   C24 2036   2.443   1.199   7.471  0.2518 -0.1703 -0.5183
   16SAPS   H4R 2037   2.468   1.135   7.559 -2.7676 -1.3802 -0.4895
   16SAPS   H4S 2038   2.353   1.140   7.444  0.2943  0.2811 -1.6696
   16SAPS   C25 2039   2.388   1.331   7.526 -0.4101  0.1129  0.9416
   16SAPS   H5R 2040   2.377   1.407   7.447  3.5583 -1.3147 -1.1798
   16SAPS   C26 2041   2.370   1.360   7.655  0.0927  0.2424 -0.2465
   16SAPS   H6R 2042   2.321   1.455   7.681 -1.2682 -0.1678 -1.2614
   16SAPS   C27 2043   2.392   1.268   7.771 -0.7009  0.1146  0.7799
   16SAPS   H7R 2044   2.499   1.269   7.798  0.1443  1.8664 -2.4126
   16SAPS   H7S 2045   2.392   1.165   7.730 -2.4868  0.2542  0.3716
   16SAPS   C28 2046   2.294   1.298   7.884  0.1361 -0.7074  0.5257
   16SAPS   H8R 2047   2.192   1.280   7.846  0.9275 -1.6772 -1.2332
   16SAPS   C29 2048   2.312   1.325   8.014  0.2583 -1.6397  0.0695
   16SAPS   H9R 2049   2.223   1.342   8.076  1.4836 -0.8015  1.6383
   16SAPS  C210 2050   2.436   1.325   8.099 -0.1939  0.1292  0.2679
   16SAPS  H10R 2051   2.465   1.431   8.117  2.7382 -0.5808  0.0802
   16SAPS  H10S 2052   2.518   1.293   8.031 -1.7923 -0.0615 -1.6113
   16SAPS  C211 2053   2.441   1.228   8.219  0.4056 -0.2226 -0.0455
   16SAPS  H11R 2054   2.412   1.123   8.203  0.7672 -0.6042  1.7367
   16SAPS  C212 2055   2.461   1.261   8.349  0.0333 -0.3063 -0.4633
   16SAPS  H12R 2056   2.470   1.178   8.421 -1.0635 -1.0683 -1.1766
   16SAPS  C213 2057   2.494   1.405   8.397  0.2401 -0.5022 -0.3637
   16SAPS  H13R 2058   2.583   1.445   8.343 -0.7395  0.5013 -1.2559
   16SAPS  H13S 2059   2.533   1.399   8.501  2.0994 -1.8403 -1.1123
   16SAPS  C214 2060   2.387   1.513   8.384  0.5034 -0.2001  0.1488
   16SAPS  H14R 2061   2.406   1.594   8.312 -0.3539 -1.1035 -1.1019
   16SAPS  C215 2062   2.273   1.517   8.455 -0.5214 -0.1982 -0.1020
   16SAPS  H15R 2063   2.195   1.593   8.441 -1.0238  0.0256  3.3859
   16SAPS  C216 2064   2.235   1.417   8.556  0.1315 -0.3122  0.1195
   16SAPS  H16R 2065   2.217   1.467   8.653  1.7756  0.6204 -0.0497
   16SAPS  H16S 2066   2.314   1.340   8.565 -1.0964 -1.5132  0.9219
   16SAPS  C217 2067   2.100   1.349   8.521 -0.3759  0.5038  0.0860
   16SAPS  H17R 2068   2.017   1.413   8.485  0.5339 -0.2528 -3.6448
   16SAPS  H17S 2069   2.067   1.302   8.616  0.7889 -0.6220 -0.0513
   16SAPS  C218 2070   2.107   1.242   8.404 -0.1337 -0.1436 -0.8145
   16SAPS  H18R 2071   2.179   1.165   8.437  1.4347  0.6512 -2.2587
   16SAPS  H18S 2072   2.150   1.299   8.318 -1.0184  2.5688  0.5074
   16SAPS  C219 2073   1.979   1.179   8.380  0.4541  1.2287  0.3900
   16SAPS  H19R 2074   1.904   1.251   8.342  1.4822  1.8763 -0.4251
   16SAPS  H19S 2075   1.938   1.129   8.471  3.2912 -0.4254  0.7933
   16SAPS  C220 2076   1.982   1.068   8.270  0.0294  0.3636 -0.3898
   16SAPS  H20R 2077   2.014   1.117   8.176 -1.3185  0.2981 -0.8817
   16SAPS  H20S 2078   1.887   1.017   8.245 -1.0095  2.4480 -0.7233
   16SAPS  H20T 2079   2.061   0.990   8.285  0.0316  0.3488 -0.4834
   16SAPS   C33 2080   2.785   1.714   7.387 -0.5194  0.5392 -1.0876
   16SAPS   H3X 2081   2.881   1.659   7.399  0.6102  2.6656  0.0340
   16SAPS   H3Y 2082   2.707   1.640   7.359 -0.2188 -0.9497  1.8105
   16SAPS   C34 2083   2.771   1.773   7.527  0.1610  0.2104  0.4973
   16SAPS   H4X 2084   2.679   1.834   7.533  1.0884  1.5130  2.0159
   16SAPS   H4Y 2085   2.852   1.847   7.545  1.0550 -0.7639  0.5155
   16SAPS   C35 2086   2.769   1.670   7.642  0.7489  0.1482 -0.0466
   16SAPS   H5X 2087   2.876   1.641   7.653  0.5620  0.7916  4.3207
   16SAPS   H5Y 2088   2.706   1.583   7.617 -0.4364  0.8173  0.5732
   16SAPS   C36 2089   2.724   1.735   7.768  0.5325 -0.1391 -0.0289
   16SAPS   H6X 2090   2.664   1.826   7.746  0.3747 -0.9755 -3.2850
   16SAPS   H6Y 2091   2.805   1.772   7.834  0.8553 -1.0317  0.0826
   16SAPS   C37 2092   2.641   1.641   7.860 -0.6160 -0.3411 -0.2191
   16SAPS   H7X 2093   2.700   1.549   7.881  0.2077  0.4297  0.9336
   16SAPS   H7Y 2094   2.548   1.614   7.806 -0.4375 -0.4262 -0.4879
   16SAPS   C38 2095   2.597   1.710   7.988 -0.4158  0.5542 -0.0638
   16SAPS   H8X 2096   2.658   1.796   8.023  0.3866 -0.3642  0.8383
   16SAPS   H8Y 2097   2.615   1.629   8.062  1.1254 -0.6156 -1.6891
   16SAPS   C39 2098   2.443   1.753   7.997 -0.4631 -0.0775  0.2887
   16SAPS   H9X 2099   2.383   1.662   7.982  0.5049 -0.4625 -1.3197
   16SAPS   H9Y 2100   2.421   1.815   7.908 -0.4314 -0.0368  0.3092
   16SAPS  C310 2101   2.410   1.826   8.134 -1.0129 -0.0071 -0.1223
   16SAPS  H10X 2102   2.435   1.934   8.132 -0.7947 -0.0347  0.7365
   16SAPS  H10Y 2103   2.481   1.790   8.211 -3.1907  0.2834  2.0900
   16SAPS  C311 2104   2.260   1.803   8.175 -0.4504  0.6606 -0.1803
   16SAPS  H11X 2105   2.238   1.696   8.190 -1.3305  0.6826 -1.2852
   16SAPS  H11Y 2106   2.187   1.843   8.101 -1.9593 -1.7593 -0.0599
   16SAPS  C312 2107   2.246   1.874   8.311  0.3528  0.4100 -0.5240
   16SAPS  H12X 2108   2.276   1.980   8.305  1.9375 -0.1711 -4.7740
   16SAPS  H12Y 2109   2.309   1.829   8.391  0.9533 -1.2044 -1.8833
   16SAPS  C313 2110   2.103   1.870   8.365 -0.6914  0.1496 -0.1346
   16SAPS  H13X 2111   2.071   1.764   8.373  2.7818 -0.8466  2.1032
   16SAPS  H13Y 2112   2.032   1.916   8.293  0.5998 -0.3091 -1.7592
   16SAPS  C314 2113   2.094   1.943   8.499  0.0487 -0.0226  0.0742
   16SAPS  H14X 2114   2.182   2.010   8.503  0.5060 -0.6436  0.5818
   16SAPS  H14Y 2115   2.116   1.864   8.574  2.1390 -0.4519 -0.9502
   16SAPS  C315 2116   1.972   2.028   8.539 -0.1287 -0.1682 -0.0981
   16SAPS  H15X 2117   1.981   2.122   8.482  1.6343 -0.5195 -0.4394
   16SAPS  H15Y 2118   1.967   2.048   8.649 -1.7948  0.2878 -0.2402
   16SAPS  C316 2119   1.830   1.982   8.485 -0.3226  0.4823 -0.5515
   16SAPS  H16X 2120   1.820   1.906   8.566  0.2473  1.0633  0.0617
   16SAPS  H16Y 2121   1.839   1.938   8.383  0.0055  2.3219 -1.3305
   16SAPS  C317 2122   1.733   2.094   8.491 -0.2929 -0.0651 -0.1673
   16SAPS  H17X 2123   1.745   2.175   8.415 -0.7240 -0.2023 -0.3866
   16SAPS  H17Y 2124   1.733   2.147   8.588 -2.1109 -1.3381  0.5651
   16SAPS  C318 2125   1.591   2.029   8.469 -0.0846 -0.1558  0.1783
   16SAPS  H18X 2126   1.503   2.096   8.481  0.1033 -0.1501  1.7368
   16SAPS  H18Y 2127   1.575   1.941   8.536  1.8631 -1.8057 -1.4507
   16SAPS  H18Z 2128   1.577   1.975   8.373  1.1285  0.8377 -0.5598
   17SAPC     N 2129   1.850   4.776  10.806  0.1034  0.5797 -0.4263
   17SAPC   C12 2130   1.798   4.681  10.696  0.3822  0.1610 -0.0389
   17SAPC  H12A 2131   1.784   4.578  10.725 -1.4371  0.1788 -0.8065
   17SAPC  H12B 2132   1.875   4.679  10.620  0.8617  0.1172  0.4441
   17SAPC   C13 2133   1.943   4.696  10.888  0.3649  0.5462  0.5669
   17SAPC  H13A 2134   1.897   4.612  10.938  0.1325  2.2239  3.2194
   17SAPC  H13B 2135   2.031   4.671  10.830 -0.1504  0.3877 -0.1603
   17SAPC  H13C 2136   1.981   4.759  10.966  1.2454  1.2989 -0.4456
   17SAPC   C14 2137   1.934   4.879  10.748  0.4444 -1.0374  0.7144
   17SAPC  H14A 2138   1.874   4.927  10.673  2.7833 -0.9550 -1.1523
   17SAPC  H14B 2139   1.973   4.958  10.811 -1.9165 -0.4906  1.5291
   17SAPC  H14C 2140   2.015   4.840  10.688  0.8159 -0.7551  1.0277
   17SAPC   C15 2141   1.741   4.833  10.889 -0.1698  0.1832  0.1849
   17SAPC  H15A 2142   1.679   4.893  10.825  1.8034 -0.0205 -1.9432
   17SAPC  H15B 2143   1.682   4.752  10.930  2.0197 -0.9687  1.1633
   17SAPC  H15C 2144   1.776   4.887  10.976 -0.8113 -0.8150  1.0863
   17SAPC   C11 2145   1.663   4.718  10.632 -0.4221  0.1074  0.4309
   17SAPC  H11A 2146   1.595   4.695  10.716  0.8385 -0.6782  1.2606
   17SAPC  H11B 2147   1.632   4.648  10.551  0.4293 -0.1699  0.3378
   17SAPC     P 2148   1.716   4.876  10.437 -0.3990 -0.4052  0.1153
   17SAPC   O13 2149   1.701   5.025  10.417 -0.0898 -0.8130  0.0664
   17SAPC   O14 2150   1.851   4.817  10.423  0.2362  0.1427 -0.4013
   17SAPC   O12 2151   1.659   4.852  10.580 -0.2375  0.4500 -0.1976
   17SAPC   O11 2152   1.616   4.800  10.334  0.6447  0.1531 -0.4086
   17SAPC    C1 2153   1.476   4.812  10.365  0.6371  0.2402  0.8501
   17SAPC    HA 2154   1.447   4.777  10.466 -1.6004 -3.1021 -0.8605
   17SAPC    HB 2155   1.447   4.919  10.365 -3.0478 -0.6694  1.4332
   17SAPC    C2 2156   1.377   4.756  10.255  0.4114  0.3506  0.6790
   17SAPC    HS 2157   1.271   4.752  10.290  0.5413 -0.6129  0.9694
   17SAPC   O21 2158   1.425   4.631  10.203 -0.1613  0.5902  0.1957
   17SAPC   C21 2159   1.422   4.534  10.281 -1.0056  0.3763  0.0874
   17SAPC   O22 2160   1.387   4.530  10.397 -0.2235 -0.1025  0.4868
   17SAPC   C22 2161   1.440   4.413  10.187  0.3972 -0.3697 -0.1194
   17SAPC   H2R 2162   1.403   4.442  10.087  2.3593 -0.1451 -0.7892
   17SAPC   H2S 2163   1.549   4.393  10.188  1.1783  3.4846  1.3899
   17SAPC    C3 2164   1.386   4.852  10.130  0.1346  0.6478  0.5285
   17SAPC    HX 2165   1.485   4.852  10.081 -0.6699  1.5063 -1.1194
   17SAPC    HY 2166   1.381   4.952  10.177 -1.1970  2.0108 -2.3761
   17SAPC   O31 2167   1.282   4.838  10.035  0.3194 -0.3784  0.4724
   17SAPC   C31 2168   1.201   4.935  10.013  0.0332 -0.4714 -0.3433
   17SAPC   O32 2169   1.199   5.041  10.069 -0.1896 -0.0985  0.1822
   17SAPC   C32 2170   1.093   4.876   9.919  0.4659 -0.1871  0.9341
   17SAPC   H2X 2171   1.017   4.952   9.894  1.6280  1.4641  2.2912
   17SAPC   H2Y 2172   1.055   4.791   9.980 -0.9405 -0.7000 -0.6336
   17SAPC   C23 2173   1.362   4.288  10.237 -0.3421 -0.8054 -0.6309
   17SAPC   H3R 2174   1.262   4.316  10.276  0.4351 -0.1533  0.9539
   17SAPC   H3S 2175   1.416   4.247  10.326 -0.8279  0.0921  0.0942
   17SAPC   C24 2176   1.337   4.181  10.135 -0.2378 -0.3938  0.6041
   17SAPC   H4R 2177   1.315   4.211  10.031  1.8293 -0.7411  0.0359
   17SAPC   H4S 2178   1.244   4.136  10.174 -1.0996 -0.1670 -1.1541
   17SAPC   C25 2179   1.430   4.068  10.141  0.3857 -0.9849 -0.1070
   17SAPC   H5R 2180   1.513   4.076  10.213 -0.2732 -1.4705  0.7228
   17SAPC   C26 2181   1.414   3.952  10.079 -0.0278  0.0143 -0.0804
   17SAPC   H6R 2182   1.498   3.881  10.088  0.8311  0.3371 -4.5264
   17SAPC   C27 2183   1.293   3.911   9.992  0.3701 -0.1309 -0.2850
   17SAPC   H7R 2184   1.304   3.928   9.883  0.9986 -0.4150 -0.2682
   17SAPC   H7S 2185   1.200   3.967  10.016  0.4002  1.5534 -3.6977
   17SAPC   C28 2186   1.256   3.765  10.005  1.0394 -0.4073  0.4238
   17SAPC   H8R 2187   1.267   3.729  10.109 -3.7273 -0.1903  1.1339
   17SAPC   C29 2188   1.207   3.681   9.910  0.3289 -0.1318 -0.2265
   17SAPC   H9R 2189   1.192   3.575   9.937 -2.5630  0.5408  0.9861
   17SAPC  C210 2190   1.180   3.705   9.767 -0.8494  0.6391 -0.1873
   17SAPC  H10R 2191   1.162   3.814   9.761  0.7049  0.8175 -2.0077
   17SAPC  H10S 2192   1.085   3.659   9.732  0.3933 -0.1016 -2.7118
   17SAPC  C211 2193   1.289   3.653   9.666  0.1052  0.5549  0.1969
   17SAPC  H11R 2194   1.332   3.553   9.677 -3.6538 -1.4077 -2.1215
   17SAPC  C212 2195   1.331   3.723   9.559 -0.4117  0.5527 -0.0953
   17SAPC  H12R 2196   1.402   3.669   9.495  0.1834  0.7016  0.4245
   17SAPC  C213 2197   1.295   3.864   9.511  0.1650  0.0923 -0.2669
   17SAPC  H13R 2198   1.380   3.935   9.529  1.8274 -1.6874 -0.9009
   17SAPC  H13S 2199   1.214   3.902   9.577  0.5738  0.8461 -0.1933
   17SAPC  C214 2200   1.246   3.860   9.367 -0.4414 -0.2439 -0.5489
   17SAPC  H14R 2201   1.141   3.830   9.359 -0.3876 -0.7121  0.4787
   17SAPC  C215 2202   1.319   3.898   9.257 -0.0838  0.4384 -0.1961
   17SAPC  H15R 2203   1.275   3.908   9.157 -0.2009  2.1071  0.0116
   17SAPC  C216 2204   1.474   3.931   9.267 -0.0793  0.1343  0.6246
   17SAPC  H16R 2205   1.532   3.850   9.218 -1.9671 -0.6987 -0.3128
   17SAPC  H16S 2206   1.508   3.935   9.373  2.7468 -1.7270 -0.1738
   17SAPC  C217 2207   1.515   4.056   9.188 -0.3891 -0.0387 -0.5173
   17SAPC  H17R 2208   1.613   4.081   9.234 -0.3923 -0.1441 -0.4560
   17SAPC  H17S 2209   1.442   4.138   9.204 -1.6821 -1.5928  1.8102
   17SAPC  C218 2210   1.543   4.019   9.041  0.2369 -0.0869  0.3071
   17SAPC  H18R 2211   1.450   3.983   8.991  0.2676  0.2061  0.0389
   17SAPC  H18S 2212   1.621   3.939   9.042  0.0459 -0.2679  0.9596
   17SAPC  C219 2213   1.597   4.147   8.977 -0.8139 -0.4880 -0.1230
   17SAPC  H19R 2214   1.689   4.186   9.024 -0.6962 -0.3334 -0.4787
   17SAPC  H19S 2215   1.520   4.221   9.005 -1.7014 -0.9079 -1.3860
   17SAPC  C220 2216   1.609   4.145   8.825  0.3176  1.2912 -0.1800
   17SAPC  H20R 2217   1.658   4.236   8.786 -1.0019  2.3544  0.5622
   17SAPC  H20S 2218   1.511   4.129   8.775  0.9544 -2.4089 -0.3733
   17SAPC  H20T 2219   1.672   4.064   8.783 -0.9960  0.8414 -1.3576
   17SAPC   C33 2220   1.154   4.809   9.790  0.1204 -0.6238  0.1371
   17SAPC   H3X 2221   1.223   4.727   9.818  2.1125  0.8751 -0.2844
   17SAPC   H3Y 2222   1.208   4.892   9.739 -3.7892  1.3663 -1.0005
   17SAPC   C34 2223   1.060   4.753   9.687  0.1522 -0.0368 -0.7374
   17SAPC   H4X 2224   0.967   4.813   9.684 -1.4040 -2.2175  1.4278
   17SAPC   H4Y 2225   1.022   4.657   9.728 -0.4773  0.5061 -0.0423
   17SAPC   C35 2226   1.120   4.719   9.554 -0.1356 -0.0853  0.4279
   17SAPC   H5X 2227   1.199   4.642   9.562  1.0322  0.7868 -1.9312
   17SAPC   H5Y 2228   1.173   4.808   9.513 -2.2246  0.8228 -0.3718
   17SAPC   C36 2229   1.010   4.681   9.448  1.2360 -0.0778 -0.3838
   17SAPC   H6X 2230   0.939   4.765   9.438  0.5422 -0.6911 -0.6509
   17SAPC   H6Y 2231   0.955   4.592   9.486  1.0093  0.1444 -0.1960
   17SAPC   C37 2232   1.067   4.656   9.303  0.1803  0.8284  0.2322
   17SAPC   H7X 2233   1.128   4.563   9.307 -0.7009  0.3525  3.3733
   17SAPC   H7Y 2234   1.150   4.729   9.287  1.2698 -0.1809  1.1784
   17SAPC   C38 2235   0.957   4.663   9.194  0.5155  0.4484 -0.1060
   17SAPC   H8X 2236   0.909   4.763   9.205 -1.7593 -0.6707  0.5226
   17SAPC   H8Y 2237   0.881   4.583   9.205  0.8418  0.1068 -0.3348
   17SAPC   C39 2238   1.016   4.650   9.051  0.3421  0.6288 -0.0825
   17SAPC   H9X 2239   1.062   4.549   9.050 -0.8148  0.0837  0.8080
   17SAPC   H9Y 2240   1.096   4.727   9.049  0.7431  0.2359  0.5885
   17SAPC  C310 2241   0.908   4.660   8.940 -0.4859  0.1519  0.0444
   17SAPC  H10X 2242   0.810   4.615   8.966 -0.4208 -1.0180 -1.6592
   17SAPC  H10Y 2243   0.953   4.603   8.856 -0.1455 -0.3145  0.5381
   17SAPC  C311 2244   0.867   4.800   8.899 -0.0923 -0.5277  0.2834
   17SAPC  H11X 2245   0.956   4.849   8.853  0.5853 -1.2760  0.7853
   17SAPC  H11Y 2246   0.839   4.851   8.994  0.2774 -0.1522  0.1954
   17SAPC  C312 2247   0.750   4.809   8.798 -0.2282  0.4491 -0.9570
   17SAPC  H12X 2248   0.723   4.915   8.776  0.3439  0.4589 -1.6435
   17SAPC  H12Y 2249   0.662   4.763   8.847 -1.0865  0.5628 -2.3423
   17SAPC  C313 2250   0.790   4.748   8.666 -0.8718  0.5669  0.1827
   17SAPC  H13X 2251   0.838   4.648   8.676 -2.0110  0.0427  0.5543
   17SAPC  H13Y 2252   0.852   4.819   8.608  1.2567 -0.5571  1.0376
   17SAPC  C314 2253   0.668   4.717   8.578 -0.8353 -0.4201  0.1449
   17SAPC  H14X 2254   0.698   4.665   8.485 -1.8145  0.0213 -0.4327
   17SAPC  H14Y 2255   0.614   4.805   8.536 -1.6388 -0.8169  0.3351
   17SAPC  C315 2256   0.573   4.622   8.644 -0.2519 -0.6883  0.0007
   17SAPC  H15X 2257   0.529   4.668   8.735  3.1505 -0.4546  1.5971
   17SAPC  H15Y 2258   0.632   4.536   8.682  0.6829 -0.7229 -1.4648
   17SAPC  C316 2259   0.453   4.581   8.551 -1.1095 -0.0321 -0.2801
   17SAPC  H16X 2260   0.494   4.528   8.462  1.9933  1.2952  0.2652
   17SAPC  H16Y 2261   0.395   4.671   8.521 -1.2854  0.2062  0.7698
   17SAPC  C317 2262   0.338   4.495   8.617 -0.4458  0.4772  0.7141
   17SAPC  H17X 2263   0.280   4.572   8.672  0.4353  0.4430  1.6922
   17SAPC  H17Y 2264   0.380   4.430   8.697 -2.5945 -0.8026  0.8327
   17SAPC  C318 2265   0.250   4.412   8.524  0.1710 -0.5060 -0.2250
   17SAPC  H18X 2266   0.198   4.478   8.451 -0.6578  1.9521  2.4871
   17SAPC  H18Y 2267   0.314   4.344   8.463 -1.1625  0.0130 -2.2566
   17SAPC  H18Z 2268   0.179   4.355   8.587  0.4450  0.5455  1.0513
   18SAPC     N 2269   1.342   3.912  10.666  0.0094  0.4946 -0.0802
   18SAPC   C12 2270   1.441   3.828  10.588  0.8737  0.1522  0.1893
   18SAPC  H12A 2271   1.400   3.729  10.575  3.4347 -1.2794  2.4041
   18SAPC  H12B 2272   1.523   3.810  10.656  2.3492 -1.8537 -2.0685
   18SAPC   C13 2273   1.392   4.050  10.698 -0.3787  0.2746  0.1247
   18SAPC  H13A 2274   1.413   4.097  10.603  1.5985 -1.2630 -0.2476
   18SAPC  H13B 2275   1.324   4.115  10.750  0.7343  1.6025 -0.0480
   18SAPC  H13C 2276   1.487   4.032  10.747  0.2133  0.0033 -1.1031
   18SAPC   C14 2277   1.219   3.911  10.586 -0.0374 -1.1831  0.3160
   18SAPC  H14A 2278   1.188   3.813  10.553  1.0003 -1.6355  0.6733
   18SAPC  H14B 2279   1.141   3.948  10.650  0.2607 -0.7925  0.4555
   18SAPC  H14C 2280   1.239   3.971  10.498  2.2185 -1.0508  0.8850
   18SAPC   C15 2281   1.300   3.849  10.793  0.0222 -0.6472 -0.4283
   18SAPC  H15A 2282   1.390   3.838  10.852  0.0980 -1.8178 -0.7393
   18SAPC  H15B 2283   1.230   3.916  10.839  0.8921  0.6433 -0.9632
   18SAPC  H15C 2284   1.250   3.753  10.786 -0.9490 -0.0109 -2.5248
   18SAPC   C11 2285   1.496   3.885  10.448  0.4212  0.3604 -0.0688
   18SAPC  H11A 2286   1.402   3.899  10.389  0.4091 -1.1302 -0.4279
   18SAPC  H11B 2287   1.563   3.819  10.388  2.0017  0.3639  1.6644
   18SAPC     P 2288   1.712   4.025  10.512  0.0040  0.3037  0.5092
   18SAPC   O13 2289   1.735   4.150  10.596  0.2725 -0.4734  0.6629
   18SAPC   O14 2290   1.749   3.893  10.570  0.3469  0.0178  0.3857
   18SAPC   O12 2291   1.555   4.010  10.464 -0.1646 -0.0041  0.0337
   18SAPC   O11 2292   1.783   4.046  10.378 -0.0379  0.3039 -0.0994
   18SAPC    C1 2293   1.791   4.170  10.309  1.0989  0.6768 -0.2619
   18SAPC    HA 2294   1.786   4.137  10.203 -0.3861  1.2295 -0.3754
   18SAPC    HB 2295   1.699   4.232  10.318  0.2717 -0.4239 -0.9926
   18SAPC    C2 2296   1.916   4.256  10.337  0.3121 -0.8116 -0.2014
   18SAPC    HS 2297   1.912   4.284  10.445 -1.3716  5.0017 -1.6253
   18SAPC   O21 2298   1.908   4.382  10.262  0.0473 -0.3332 -0.1963
   18SAPC   C21 2299   1.812   4.466  10.292  0.2471 -0.0687 -0.4833
   18SAPC   O22 2300   1.734   4.458  10.384  0.1507  0.1458 -0.0933
   18SAPC   C22 2301   1.807   4.570  10.179  0.3423 -0.5891 -0.2157
   18SAPC   H2R 2302   1.705   4.614  10.184  1.0664  1.3942 -1.7818
   18SAPC   H2S 2303   1.875   4.653  10.209 -0.6206  0.5135 -1.0123
   18SAPC    C3 2304   2.048   4.187  10.312  0.2974  0.2873  0.2081
   18SAPC    HX 2305   2.052   4.094  10.373 -0.3347  0.5041  0.5860
   18SAPC    HY 2306   2.129   4.259  10.339  0.2540  0.0026  1.1263
   18SAPC   O31 2307   2.058   4.147  10.175 -0.3351 -0.2158  0.6141
   18SAPC   C31 2308   2.097   4.228  10.077  1.0615  0.3843 -0.1444
   18SAPC   O32 2309   2.163   4.325  10.090 -0.6521 -0.6453  0.4903
   18SAPC   C32 2310   2.046   4.171   9.944  0.8097 -0.1175 -0.6327
   18SAPC   H2X 2311   1.942   4.140   9.968  1.0637  0.1740  0.9309
   18SAPC   H2Y 2312   2.111   4.086   9.915  2.3710  1.2241 -1.1322
   18SAPC   C23 2313   1.836   4.519  10.031 -0.7636  0.0578 -0.2718
   18SAPC   H3R 2314   1.781   4.423  10.022 -0.7249  0.1143 -1.0987
   18SAPC   H3S 2315   1.944   4.497  10.028 -0.5273  1.0823  0.3692
   18SAPC   C24 2316   1.797   4.613   9.917 -0.9177  0.5615 -0.0728
   18SAPC   H4R 2317   1.841   4.564   9.827  2.1774 -0.4975  1.9333
   18SAPC   H4S 2318   1.859   4.704   9.924 -1.5708  0.8872  1.5906
   18SAPC   C25 2319   1.647   4.641   9.923  0.2192 -0.0661  0.5391
   18SAPC   H5R 2320   1.622   4.725   9.990 -0.0257 -0.8422  1.4248
   18SAPC   C26 2321   1.544   4.590   9.859  0.0713  0.0219 -0.0728
   18SAPC   H6R 2322   1.445   4.627   9.890 -0.0252  0.7528 -1.2049
   18SAPC   C27 2323   1.560   4.479   9.755 -0.7230  0.1029  0.2837
   18SAPC   H7R 2324   1.653   4.502   9.700 -1.5550  1.8568 -0.4146
   18SAPC   H7S 2325   1.484   4.476   9.674 -1.3481  1.2209  0.8170
   18SAPC   C28 2326   1.563   4.335   9.811 -0.1050 -0.6398  0.1033
   18SAPC   H8R 2327   1.563   4.341   9.921  1.4177  2.3731 -0.0086
   18SAPC   C29 2328   1.554   4.215   9.749  0.2052  0.2801  0.4465
   18SAPC   H9R 2329   1.556   4.125   9.814 -3.0529  0.3434  0.7004
   18SAPC  C210 2330   1.549   4.199   9.599  0.3673  0.0256 -0.6870
   18SAPC  H10R 2331   1.550   4.089   9.583  1.4775 -0.1723  0.6306
   18SAPC  H10S 2332   1.643   4.237   9.552 -0.8954  0.5290 -2.8552
   18SAPC  C211 2333   1.426   4.253   9.524  0.2466  0.3319  0.0849
   18SAPC  H11R 2334   1.334   4.195   9.542  0.7758 -0.6536 -0.3598
   18SAPC  C212 2335   1.426   4.358   9.432  0.2878 -0.5555 -0.4056
   18SAPC  H12R 2336   1.334   4.377   9.376  0.7087 -0.8681 -1.2121
   18SAPC  C213 2337   1.549   4.431   9.372  0.0633 -0.6218  0.0237
   18SAPC  H13R 2338   1.581   4.368   9.286 -1.6485 -1.5322  0.0363
   18SAPC  H13S 2339   1.630   4.421   9.447 -1.3553 -0.5376  1.5788
   18SAPC  C214 2340   1.510   4.572   9.342  0.4035  0.4729  0.4169
   18SAPC  H14R 2341   1.530   4.648   9.419  1.3055  2.0939 -1.3738
   18SAPC  C215 2342   1.436   4.611   9.234 -0.3107  0.3309 -0.2906
   18SAPC  H15R 2343   1.417   4.718   9.216  1.8001  0.7559 -0.2138
   18SAPC  C216 2344   1.387   4.524   9.118 -0.0596  0.1538  0.7257
   18SAPC  H16R 2345   1.276   4.536   9.117  0.0742  1.4444  0.8936
   18SAPC  H16S 2346   1.407   4.415   9.120  0.2578  0.2275  1.5828
   18SAPC  C217 2347   1.434   4.561   8.978 -0.0380  0.7245  0.3982
   18SAPC  H17R 2348   1.537   4.529   8.951 -0.4579 -0.6057  0.3176
   18SAPC  H17S 2349   1.417   4.669   8.964 -1.8513  0.3929 -0.0934
   18SAPC  C218 2350   1.346   4.498   8.870 -0.5537  0.0454  0.4694
   18SAPC  H18R 2351   1.238   4.508   8.897 -1.1971 -4.6599 -0.0126
   18SAPC  H18S 2352   1.365   4.389   8.874 -0.5714 -0.0081 -0.7123
   18SAPC  C219 2353   1.367   4.566   8.726 -0.0208  0.4773 -0.7156
   18SAPC  H19R 2354   1.476   4.569   8.705  0.0024 -0.2536 -0.7129
   18SAPC  H19S 2355   1.325   4.669   8.731 -0.4875  0.3094 -1.1565
   18SAPC  C220 2356   1.303   4.495   8.608  0.2208 -0.7050 -0.5867
   18SAPC  H20R 2357   1.197   4.471   8.629 -0.2584  0.2349 -1.8522
   18SAPC  H20S 2358   1.361   4.400   8.603 -1.0550 -1.6832  2.5257
   18SAPC  H20T 2359   1.305   4.542   8.507 -1.0328 -0.4241 -0.4911
   18SAPC   C33 2360   2.047   4.275   9.838 -0.4114  0.6902  0.8999
   18SAPC   H3X 2361   2.151   4.312   9.825 -0.6472  0.8206 -0.8583
   18SAPC   H3Y 2362   1.979   4.360   9.856  0.8537  1.6691  1.1079
   18SAPC   C34 2363   2.001   4.221   9.698 -0.1898 -0.1372 -0.1528
   18SAPC   H4X 2364   1.904   4.168   9.694 -1.1007  1.5453 -0.5967
   18SAPC   H4Y 2365   2.078   4.143   9.679 -0.4193 -0.2966 -0.4088
   18SAPC   C35 2366   1.992   4.336   9.600 -0.0728  0.2167 -0.0362
   18SAPC   H5X 2367   2.092   4.385   9.596 -0.9697  1.9565 -2.0984
   18SAPC   H5Y 2368   1.922   4.418   9.626  0.1146  0.1095  0.8058
   18SAPC   C36 2369   1.951   4.296   9.457 -0.2363 -0.1591 -0.2365
   18SAPC   H6X 2370   1.858   4.236   9.463 -1.4550  1.8024  1.2486
   18SAPC   H6Y 2371   2.026   4.240   9.398  0.7257 -0.1462  0.9669
   18SAPC   C37 2372   1.922   4.428   9.377 -0.6420 -0.9211  0.3063
   18SAPC   H7X 2373   2.013   4.489   9.391 -0.5687 -0.9736  0.0430
   18SAPC   H7Y 2374   1.846   4.488   9.432 -0.9334 -1.5599  0.6142
   18SAPC   C38 2375   1.889   4.408   9.228  0.2184 -0.6339  0.5410
   18SAPC   H8X 2376   1.814   4.328   9.210  1.3827 -1.7146  0.4298
   18SAPC   H8Y 2377   1.982   4.371   9.180  0.3212 -1.0194  1.0297
   18SAPC   C39 2378   1.846   4.532   9.152 -0.0420 -0.3580  0.3710
   18SAPC   H9X 2379   1.886   4.629   9.190  0.9307 -0.8915  0.7309
   18SAPC   H9Y 2380   1.737   4.543   9.167 -0.0308  0.2107  0.0541
   18SAPC  C310 2381   1.876   4.519   8.999  0.1728 -0.4590  0.1546
   18SAPC  H10X 2382   1.834   4.608   8.948 -1.8557 -0.2190  2.1437
   18SAPC  H10Y 2383   1.826   4.434   8.948  1.1623 -0.0747 -1.4789
   18SAPC  C311 2384   2.026   4.529   8.962 -0.0763 -1.0712  0.1424
   18SAPC  H11X 2385   2.063   4.424   8.953  0.1311 -0.8323 -2.0504
   18SAPC  H11Y 2386   2.079   4.580   9.045  1.0484  0.2377 -1.3468
   18SAPC  C312 2387   2.056   4.579   8.822 -0.5737  0.2367 -0.3413
   18SAPC  H12X 2388   2.162   4.562   8.794 -0.6455 -4.8820  1.9803
   18SAPC  H12Y 2389   2.060   4.689   8.813  1.6688  0.0886 -1.4059
   18SAPC  C313 2390   1.980   4.506   8.719  0.3839 -0.0073  0.1954
   18SAPC  H13X 2391   1.874   4.539   8.724  0.7427  0.9873  1.5268
   18SAPC  H13Y 2392   1.982   4.395   8.729  2.8169 -0.0629 -0.5938
   18SAPC  C314 2393   2.026   4.545   8.576 -0.8869  0.2215  0.5197
   18SAPC  H14X 2394   2.123   4.494   8.559 -0.6471 -0.0120  2.4662
   18SAPC  H14Y 2395   2.035   4.655   8.564 -4.8672  0.5052 -0.6674
   18SAPC  C315 2396   1.930   4.498   8.463 -0.6822  0.3431 -0.0894
   18SAPC  H15X 2397   1.833   4.551   8.475 -0.9593 -0.2482  0.3299
   18SAPC  H15Y 2398   1.903   4.390   8.469 -0.3567  0.3763  2.8573
   18SAPC  C316 2399   1.999   4.506   8.325 -0.2288 -0.2202 -1.0731
   18SAPC  H16X 2400   1.946   4.424   8.273 -0.9023 -0.7495  0.3999
   18SAPC  H16Y 2401   2.108   4.489   8.336 -0.0400  0.6225 -1.5610
   18SAPC  C317 2402   1.971   4.641   8.254 -0.2341 -0.5820 -0.3977
   18SAPC  H17X 2403   2.057   4.705   8.285  0.4117 -1.2550 -0.7965
   18SAPC  H17Y 2404   1.883   4.693   8.298  0.1634  1.8027 -2.3377
   18SAPC  C318 2405   1.945   4.639   8.108  0.4495  0.4489 -0.2871
   18SAPC  H18X 2406   1.951   4.745   8.072 -0.8490  0.7134  0.2645
   18SAPC  H18Y 2407   1.851   4.589   8.075 -0.4457  0.2415  2.4716
   18SAPC  H18Z 2408   2.022   4.577   8.058 -0.1759 -0.1126 -0.5576
   19SAPC     N 2409   1.485   6.113  10.657 -0.5098 -0.0936  0.4689
   19SAPC   C12 2410   1.340   6.148  10.695  0.7543  0.2337  0.4560
   19SAPC  H12A 2411   1.353   6.217  10.777  0.5957 -1.3553  1.8477
   19SAPC  H12B 2412   1.292   6.060  10.734 -0.5781  0.5586 -0.4135
   19SAPC   C13 2413   1.557   6.045  10.764 -0.0084  0.6787 -0.2655
   19SAPC  H13A 2414   1.526   6.105  10.848 -2.0475  2.1143 -1.9830
   19SAPC  H13B 2415   1.524   5.944  10.782  1.8324  0.1216  0.0442
   19SAPC  H13C 2416   1.664   6.054  10.750 -0.1833  0.5552 -1.8346
   19SAPC   C14 2417   1.500   6.017  10.541  0.2196 -0.7437  0.2160
   19SAPC  H14A 2418   1.445   6.068  10.464 -0.1406 -0.9874  0.3093
   19SAPC  H14B 2419   1.604   6.002  10.514 -0.2413  1.8744 -3.4053
   19SAPC  H14C 2420   1.463   5.918  10.563 -0.4279 -0.3090  1.1017
   19SAPC   C15 2421   1.564   6.234  10.610  0.7916 -0.5819  0.1820
   19SAPC  H15A 2422   1.509   6.296  10.541 -0.3841 -1.6577  0.1306
   19SAPC  H15B 2423   1.589   6.296  10.695  2.9016 -2.0666  0.6777
   19SAPC  H15C 2424   1.653   6.208  10.556  1.1357  1.9872 -0.5245
   19SAPC   C11 2425   1.256   6.206  10.583 -0.5971  0.2903 -0.4477
   19SAPC  H11A 2426   1.303   6.293  10.532 -2.9045  0.7221 -1.9140
   19SAPC  H11B 2427   1.171   6.263  10.628  0.2647  0.1984  1.3380
   19SAPC     P 2428   1.069   6.045  10.482 -0.1064  0.1726  0.2016
   19SAPC   O13 2429   1.060   5.947  10.371 -0.1613  0.4694 -0.6683
   19SAPC   O14 2430   1.043   6.010  10.627  0.4429 -0.8322  0.4430
   19SAPC   O12 2431   1.217   6.107  10.480  0.9206  0.2807 -0.2171
   19SAPC   O11 2432   0.966   6.159  10.445 -0.5203 -0.3830 -0.0966
   19SAPC    C1 2433   1.023   6.284  10.396 -0.1201 -0.3197 -0.7934
   19SAPC    HA 2434   1.033   6.360  10.476  0.1240 -1.0550 -0.1260
   19SAPC    HB 2435   1.120   6.275  10.343  1.5321  0.8793  1.9107
   19SAPC    C2 2436   0.932   6.353  10.292  0.2413  0.6168  0.1384
   19SAPC    HS 2437   0.831   6.369  10.336 -0.0901  0.4846 -0.5644
   19SAPC   O21 2438   0.932   6.273  10.168  0.0421  0.2158 -0.1577
   19SAPC   C21 2439   0.833   6.188  10.142 -0.4957 -0.2536 -0.1812
   19SAPC   O22 2440   0.744   6.157  10.220 -0.4287  0.0881  0.0686
   19SAPC   C22 2441   0.851   6.132  10.001 -0.5238  0.1856  0.0893
   19SAPC   H2R 2442   0.932   6.180   9.943 -1.1906 -0.4544 -1.3956
   19SAPC   H2S 2443   0.875   6.024  10.006 -0.2276  0.1952 -1.0278
   19SAPC    C3 2444   0.990   6.497  10.267 -0.0535  0.0816  0.0803
   19SAPC    HX 2445   0.989   6.556  10.361 -0.2527 -1.2859  0.9513
   19SAPC    HY 2446   0.920   6.554  10.202 -0.5377 -0.7949 -0.1706
   19SAPC   O31 2447   1.127   6.476  10.220  0.6715 -0.2794 -0.1986
   19SAPC   C31 2448   1.133   6.486  10.088  0.2232 -0.2525  0.1239
   19SAPC   O32 2449   1.047   6.521  10.015  0.7655 -0.1744  0.2472
   19SAPC   C32 2450   1.281   6.471  10.043  0.4206 -0.3865 -0.5275
   19SAPC   H2X 2451   1.310   6.364  10.045 -0.1102 -0.4984  2.8197
   19SAPC   H2Y 2452   1.355   6.522  10.109  0.1981 -0.3711 -0.2908
   19SAPC   C23 2453   0.719   6.127   9.912 -0.0269  0.0199  0.6398
   19SAPC   H3R 2454   0.633   6.072   9.957  1.2032 -1.5951  1.0369
   19SAPC   H3S 2455   0.749   6.082   9.815  0.6608  2.2926 -0.2442
   19SAPC   C24 2456   0.660   6.271   9.877 -0.5165  0.0838 -0.0589
   19SAPC   H4R 2457   0.607   6.316   9.964 -0.5738 -0.8464  0.3884
   19SAPC   H4S 2458   0.583   6.255   9.798 -0.1759  2.6221 -0.9607
   19SAPC   C25 2459   0.762   6.369   9.822  0.0181  0.2885  0.5884
   19SAPC   H5R 2460   0.823   6.417   9.899  1.3321  1.9147 -1.4227
   19SAPC   C26 2461   0.810   6.376   9.692  0.0951  0.0649 -0.2028
   19SAPC   H6R 2462   0.896   6.441   9.673  2.0502 -2.3994 -0.0872
   19SAPC   C27 2463   0.763   6.289   9.574 -0.0091  0.5700 -0.1546
   19SAPC   H7R 2464   0.728   6.346   9.485 -0.0559 -0.7274 -0.9804
   19SAPC   H7S 2465   0.675   6.228   9.604  0.7500  0.3952  1.7474
   19SAPC   C28 2466   0.865   6.192   9.536 -0.1444  0.5952  0.3117
   19SAPC   H8R 2467   0.918   6.144   9.620 -0.0215 -1.3423 -0.8551
   19SAPC   C29 2468   0.894   6.154   9.410  0.9553  0.1203  0.1474
   19SAPC   H9R 2469   0.984   6.098   9.382  0.5515 -0.9935  1.0312
   19SAPC  C210 2470   0.827   6.214   9.282  0.3497  0.0742  0.0787
   19SAPC  H10R 2471   0.718   6.237   9.288  0.2655  0.3026 -2.0146
   19SAPC  H10S 2472   0.839   6.129   9.210 -2.4966  1.0191 -1.5833
   19SAPC  C211 2473   0.906   6.336   9.234 -0.1518  0.4376 -0.5326
   19SAPC  H11R 2474   1.006   6.351   9.277 -1.6584 -1.5999  3.9488
   19SAPC  C212 2475   0.853   6.435   9.157  0.0480 -0.0411 -0.3701
   19SAPC  H12R 2476   0.901   6.528   9.125 -0.4855 -0.5378 -2.7831
   19SAPC  C213 2477   0.720   6.452   9.096 -0.2624  0.6892  0.3418
   19SAPC  H13R 2478   0.647   6.370   9.113  0.7075  0.2167  2.4378
   19SAPC  H13S 2479   0.717   6.462   8.986 -2.4527  1.1113  0.4174
   19SAPC  C214 2480   0.663   6.583   9.147 -0.9138  0.0234 -0.2616
   19SAPC  H14R 2481   0.686   6.608   9.251 -3.6126 -1.2501  0.6982
   19SAPC  C215 2482   0.586   6.671   9.076 -0.2651 -0.4556 -0.2949
   19SAPC  H15R 2483   0.560   6.761   9.133 -0.2591 -0.5295 -0.1754
   19SAPC  C216 2484   0.530   6.670   8.934  0.5011  0.2933 -0.6550
   19SAPC  H16R 2485   0.421   6.691   8.947  1.4595  4.4983  1.4819
   19SAPC  H16S 2486   0.543   6.573   8.882  0.2362 -0.1746  0.1512
   19SAPC  C217 2487   0.604   6.777   8.849  0.8997 -0.3156  0.4268
   19SAPC  H17R 2488   0.591   6.743   8.744 -2.1811 -0.9446  0.9426
   19SAPC  H17S 2489   0.714   6.776   8.863  1.0633 -0.3932 -0.8174
   19SAPC  C218 2490   0.544   6.911   8.875 -0.2689  0.7472 -0.7546
   19SAPC  H18R 2491   0.596   6.952   8.964  0.7607 -0.9612 -0.5393
   19SAPC  H18S 2492   0.436   6.903   8.903  0.1393 -1.6487  0.2820
   19SAPC  C219 2493   0.571   7.012   8.760 -0.3723  0.0797 -0.2281
   19SAPC  H19R 2494   0.678   7.041   8.755 -1.1281  3.4457  1.4330
   19SAPC  H19S 2495   0.516   7.106   8.783  1.5208  0.8658  1.3201
   19SAPC  C220 2496   0.530   6.981   8.616  0.4343  0.5809 -0.2674
   19SAPC  H20R 2497   0.569   7.069   8.560  0.7324  0.1384 -0.7587
   19SAPC  H20S 2498   0.421   6.966   8.604  0.0743 -0.6118  3.7550
   19SAPC  H20T 2499   0.575   6.888   8.575  0.0556 -0.3205  1.3182
   19SAPC   C33 2500   1.316   6.508   9.900  0.0215  0.2995  0.9683
   19SAPC   H3X 2501   1.427   6.515   9.900  0.1726 -1.7470  2.2447
   19SAPC   H3Y 2502   1.274   6.609   9.884 -1.0512 -0.1418  0.9694
   19SAPC   C34 2503   1.282   6.398   9.789  0.0585 -0.2196 -0.8185
   19SAPC   H4X 2504   1.173   6.379   9.792  0.1713 -0.8939 -0.9207
   19SAPC   H4Y 2505   1.340   6.307   9.816 -0.6558 -0.7820 -1.1598
   19SAPC   C35 2506   1.324   6.441   9.649 -0.6830  1.0153  0.0042
   19SAPC   H5X 2507   1.397   6.376   9.596  0.6854  0.8988  1.9663
   19SAPC   H5Y 2508   1.374   6.541   9.653 -1.6769  1.5293 -0.4985
   19SAPC   C36 2509   1.215   6.454   9.546  1.2810 -0.2420  0.3638
   19SAPC   H6X 2510   1.139   6.378   9.572 -0.1971  1.2736  0.5290
   19SAPC   H6Y 2511   1.255   6.426   9.446 -0.4777 -2.0152  0.1499
   19SAPC   C37 2512   1.166   6.598   9.526  0.3629  0.3859 -0.2083
   19SAPC   H7X 2513   1.239   6.672   9.487  0.6031  0.5939  0.6291
   19SAPC   H7Y 2514   1.131   6.640   9.622 -0.1151  0.8143 -0.5649
   19SAPC   C38 2515   1.040   6.601   9.438  0.5021  0.8874 -0.1415
   19SAPC   H8X 2516   0.978   6.513   9.465  2.0179 -0.7409 -1.8506
   19SAPC   H8Y 2517   1.074   6.585   9.333  1.8671 -1.8310  0.6804
   19SAPC   C39 2518   0.954   6.729   9.451  0.3783  0.1590  0.8266
   19SAPC   H9X 2519   0.925   6.738   9.558  1.1124  0.5046  1.0017
   19SAPC   H9Y 2520   0.857   6.729   9.396  0.5251 -0.6417  0.5622
   19SAPC  C310 2521   1.036   6.854   9.412 -1.0533 -0.1307 -0.0598
   19SAPC  H10X 2522   1.139   6.832   9.377 -1.0159  2.4645 -1.7485
   19SAPC  H10Y 2523   1.058   6.907   9.507 -1.7368 -0.7571  0.4527
   19SAPC  C311 2524   0.969   6.958   9.314  0.6429 -0.2654  0.2123
   19SAPC  H11X 2525   1.041   7.043   9.306  1.7314 -1.1790  0.0870
   19SAPC  H11Y 2526   0.875   7.000   9.355  0.4941  3.2855 -3.3798
   19SAPC  C312 2527   0.946   6.902   9.170  0.3406 -0.2791 -0.4645
   19SAPC  H12X 2528   0.838   6.877   9.160  0.3711 -0.8076  0.5235
   19SAPC  H12Y 2529   0.999   6.805   9.163  0.4908 -0.1490 -1.2068
   19SAPC  C313 2530   0.985   7.009   9.064 -1.1011  0.4528  1.0110
   19SAPC  H13X 2531   1.095   7.020   9.074 -0.7055 -1.2173 -1.1816
   19SAPC  H13Y 2532   0.940   7.105   9.099  2.0239  2.2400  0.2622
   19SAPC  C314 2533   0.943   6.960   8.920  0.3321  0.6720  0.3159
   19SAPC  H14X 2534   0.835   6.933   8.926 -0.3484  3.2668  0.3413
   19SAPC  H14Y 2535   1.004   6.869   8.901 -0.9123  0.1783 -1.3937
   19SAPC  C315 2536   0.952   7.061   8.810  0.1318 -0.0496 -0.2278
   19SAPC  H15X 2537   0.860   7.124   8.821 -0.0943 -0.1400 -1.4460
   19SAPC  H15Y 2538   0.938   7.010   8.712  3.3985  0.0267 -0.7791
   19SAPC  C316 2539   1.089   7.130   8.807 -0.3312  0.1167 -0.5220
   19SAPC  H16X 2540   1.165   7.049   8.818  0.4442  0.7816 -0.9313
   19SAPC  H16Y 2541   1.080   7.208   8.886 -2.1569 -0.3620 -0.2239
   19SAPC  C317 2542   1.128   7.225   8.688  0.5683  0.4680 -0.4747
   19SAPC  H17X 2543   1.226   7.277   8.694  2.3501 -2.7186 -1.0452
   19SAPC  H17Y 2544   1.053   7.307   8.693  0.8637  0.7202 -0.1117
   19SAPC  C318 2545   1.130   7.156   8.549 -0.1319  0.1808 -0.0319
   19SAPC  H18X 2546   1.158   7.230   8.470 -0.5549 -0.4968 -0.8276
   19SAPC  H18Y 2547   1.033   7.114   8.513 -0.1986  0.1903  0.1395
   19SAPC  H18Z 2548   1.210   7.080   8.557  0.8023  1.2474  1.0112
   20SAPC     N 2549   1.250   2.497  11.159 -0.4172  0.3428 -0.1908
   20SAPC   C12 2550   1.153   2.523  11.047  0.3339  0.0725  0.0489
   20SAPC  H12A 2551   1.073   2.593  11.069  0.1152  0.8219 -2.9534
   20SAPC  H12B 2552   1.097   2.433  11.028  0.4382  0.1366 -0.5608
   20SAPC   C13 2553   1.329   2.615  11.177 -0.1973  0.1027  0.1279
   20SAPC  H13A 2554   1.264   2.694  11.213  1.2408  0.3735  2.1654
   20SAPC  H13B 2555   1.407   2.598  11.249 -1.1189  0.6563  1.2730
   20SAPC  H13C 2556   1.372   2.643  11.082 -2.4535 -1.5449 -1.4479
   20SAPC   C14 2557   1.178   2.464  11.289  0.5421  0.3945  0.3303
   20SAPC  H14A 2558   1.124   2.551  11.323  1.4483  0.9235  0.4252
   20SAPC  H14B 2559   1.117   2.376  11.274 -0.3987  0.9818  0.6358
   20SAPC  H14C 2560   1.258   2.434  11.356 -0.0716 -2.3914 -0.1284
   20SAPC   C15 2561   1.334   2.383  11.115 -0.2383  0.5909 -0.4762
   20SAPC  H15A 2562   1.275   2.295  11.093  0.5496 -0.2435  0.7110
   20SAPC  H15B 2563   1.410   2.401  11.041  1.0522  0.9800  0.9106
   20SAPC  H15C 2564   1.395   2.352  11.198 -2.5254  1.6187  1.6649
   20SAPC   C11 2565   1.210   2.546  10.906 -0.7016  0.6324 -0.3586
   20SAPC  H11A 2566   1.123   2.534  10.837 -0.5509  1.8492 -0.7645
   20SAPC  H11B 2567   1.275   2.458  10.887 -3.0787 -0.6365 -2.9520
   20SAPC     P 2568   1.196   2.806  10.886 -0.8439  0.2393  0.6225
   20SAPC   O13 2569   1.101   2.809  10.997  0.4617  0.2504  0.5602
   20SAPC   O14 2570   1.281   2.929  10.875 -0.8161 -0.1125  0.0811
   20SAPC   O12 2571   1.289   2.670  10.897 -0.2859  0.1013 -0.2141
   20SAPC   O11 2572   1.114   2.782  10.752  0.2266  0.3822 -0.4639
   20SAPC    C1 2573   1.176   2.777  10.624 -0.4633  0.4276  0.4799
   20SAPC    HA 2574   1.286   2.773  10.618 -0.3813  3.8240 -1.0077
   20SAPC    HB 2575   1.137   2.694  10.562  0.7973  0.9136 -0.9874
   20SAPC    C2 2576   1.133   2.912  10.547  0.4403 -0.2328  0.4305
   20SAPC    HS 2577   1.128   2.991  10.625  0.3036 -0.5806  0.7783
   20SAPC   O21 2578   1.002   2.879  10.501 -0.1326  0.1156  0.2527
   20SAPC   C21 2579   0.935   2.990  10.469 -0.3441 -0.0360 -0.6331
   20SAPC   O22 2580   0.970   3.107  10.480  0.1209 -0.4496 -0.2840
   20SAPC   C22 2581   0.797   2.949  10.429  0.7468 -0.0827  0.0573
   20SAPC   H2R 2582   0.806   2.855  10.370  1.1763 -0.3018  0.4660
   20SAPC   H2S 2583   0.745   2.928  10.525 -0.1816 -1.0768 -0.6398
   20SAPC    C3 2584   1.230   2.953  10.427 -0.2745  0.6673 -0.7342
   20SAPC    HX 2585   1.336   2.978  10.449 -0.3266 -0.9529  1.5954
   20SAPC    HY 2586   1.183   3.034  10.367  1.4489 -0.4956 -3.7731
   20SAPC   O31 2587   1.221   2.834  10.339 -0.2175 -0.6293  0.2227
   20SAPC   C31 2588   1.336   2.766  10.306 -0.2867  1.0376 -0.4317
   20SAPC   O32 2589   1.444   2.789  10.359 -0.0781  0.8617 -0.0721
   20SAPC   C32 2590   1.311   2.669  10.197  0.1874  0.4529  0.0885
   20SAPC   H2X 2591   1.202   2.655  10.183  0.4017 -0.8699 -0.3095
   20SAPC   H2Y 2592   1.344   2.568  10.228 -0.8344  0.3887  1.0125
   20SAPC   C23 2593   0.715   3.053  10.343  0.4013 -0.0650 -0.1336
   20SAPC   H3R 2594   0.741   3.156  10.375 -1.1118  1.5788 -3.8548
   20SAPC   H3S 2595   0.607   3.029  10.355  0.2803  0.4765 -0.1554
   20SAPC   C24 2596   0.762   3.049  10.194 -0.4626  0.6573 -0.2554
   20SAPC   H4R 2597   0.873   3.049  10.199 -0.3852  0.4818 -1.7078
   20SAPC   H4S 2598   0.729   3.140  10.140 -1.1078 -0.4123 -1.6836
   20SAPC   C25 2599   0.703   2.938  10.114 -0.1355 -0.4462  0.0247
   20SAPC   H5R 2600   0.596   2.947  10.091 -0.2960 -0.3151  0.8107
   20SAPC   C26 2601   0.765   2.827  10.075  0.0100  0.2786  0.3733
   20SAPC   H6R 2602   0.696   2.755  10.030  2.2765 -2.0274  0.4586
   20SAPC   C27 2603   0.909   2.790  10.098 -0.0455  0.2904 -0.2095
   20SAPC   H7R 2604   0.968   2.878  10.134  1.6202 -0.4566 -1.0546
   20SAPC   H7S 2605   0.966   2.766  10.005  1.4435 -0.9120  0.9852
   20SAPC   C28 2606   0.927   2.667  10.189 -0.2271  0.3623  0.0635
   20SAPC   H8R 2607   0.922   2.686  10.297 -1.1611  0.4449  0.0113
   20SAPC   C29 2608   0.918   2.542  10.149 -0.2591  0.8461  0.1947
   20SAPC   H9R 2609   0.921   2.459  10.221 -0.9941  0.1652 -0.5502
   20SAPC  C210 2610   0.894   2.495  10.009 -0.3105  0.2446 -0.1652
   20SAPC  H10R 2611   0.831   2.572   9.960 -0.8578 -0.0025  0.1548
   20SAPC  H10S 2612   0.838   2.400  10.021 -1.5479  1.1060  1.0116
   20SAPC  C211 2613   1.019   2.457   9.930 -0.4624 -0.1836  0.5257
   20SAPC  H11R 2614   1.116   2.453   9.982  0.1730  3.5847 -0.1695
   20SAPC  C212 2615   1.009   2.425   9.801  0.5061 -0.1133  0.1318
   20SAPC  H12R 2616   1.096   2.380   9.751  1.0205  1.7971 -0.7644
   20SAPC  C213 2617   0.878   2.420   9.719  0.0881  0.0761 -0.1417
   20SAPC  H13R 2618   0.787   2.402   9.780  0.7962  1.1048  1.2427
   20SAPC  H13S 2619   0.873   2.334   9.648  1.8506  0.1011 -0.3248
   20SAPC  C214 2620   0.866   2.545   9.641  0.3088  0.1346 -0.4529
   20SAPC  H14R 2621   0.857   2.631   9.709  0.2109 -1.7382  1.9605
   20SAPC  C215 2622   0.876   2.562   9.505 -0.1845 -0.7279  0.3565
   20SAPC  H15R 2623   0.881   2.663   9.462  1.0381 -2.2082 -3.2052
   20SAPC  C216 2624   0.906   2.454   9.405 -0.3844 -0.2468  0.2419
   20SAPC  H16R 2625   0.842   2.459   9.315  2.0173 -2.3940 -1.6802
   20SAPC  H16S 2626   0.906   2.351   9.446 -1.5520 -0.7507 -1.0227
   20SAPC  C217 2627   1.054   2.464   9.353 -0.4777 -0.2369  0.1510
   20SAPC  H17R 2628   1.125   2.441   9.436 -0.3112  3.4399  1.1170
   20SAPC  H17S 2629   1.073   2.570   9.327 -0.8920 -0.4321 -0.9786
   20SAPC  C218 2630   1.077   2.376   9.229  0.0520  0.0921  0.2894
   20SAPC  H18R 2631   1.010   2.287   9.234  0.3543 -0.0850  1.2334
   20SAPC  H18S 2632   1.184   2.348   9.227 -0.1630 -0.8343  1.1869
   20SAPC  C219 2633   1.040   2.438   9.091 -0.0285  0.2836 -0.6056
   20SAPC  H19R 2634   1.110   2.520   9.064  1.8508 -0.8001  0.9015
   20SAPC  H19S 2635   0.945   2.496   9.104  0.4245  0.8260  0.3520
   20SAPC  C220 2636   1.014   2.352   8.973  0.3982 -0.5609  0.2576
   20SAPC  H20R 2637   1.110   2.306   8.942 -0.2138 -1.3666 -0.4391
   20SAPC  H20S 2638   0.974   2.401   8.881 -1.4978 -1.2717  0.6765
   20SAPC  H20T 2639   0.951   2.265   8.999 -0.5226 -0.0813 -0.3619
   20SAPC   C33 2640   1.379   2.701  10.066  0.1184 -0.5247 -0.1935
   20SAPC   H3X 2641   1.369   2.612  10.000 -1.8389 -0.2911 -0.2378
   20SAPC   H3Y 2642   1.485   2.730  10.079 -0.0527 -0.2692  0.7225
   20SAPC   C34 2643   1.299   2.808   9.991  1.0387 -0.0729  0.6898
   20SAPC   H4X 2644   1.292   2.900  10.053  0.3434 -0.4693  1.2095
   20SAPC   H4Y 2645   1.197   2.775   9.963  1.1544 -0.9137  1.2261
   20SAPC   C35 2646   1.357   2.853   9.852 -0.4264  0.4164 -0.3457
   20SAPC   H5X 2647   1.435   2.931   9.862 -0.5018  0.3563  0.7942
   20SAPC   H5Y 2648   1.273   2.901   9.797  0.7571  2.4793 -0.3742
   20SAPC   C36 2649   1.414   2.745   9.758  0.8528 -0.0311  0.3839
   20SAPC   H6X 2650   1.490   2.677   9.803  1.3463 -0.2143 -0.6961
   20SAPC   H6Y 2651   1.464   2.791   9.670  1.6797 -3.8686 -1.2815
   20SAPC   C37 2652   1.312   2.649   9.702 -0.3240  0.2240  0.1137
   20SAPC   H7X 2653   1.229   2.706   9.655 -1.0389  0.2784  1.4234
   20SAPC   H7Y 2654   1.263   2.596   9.787  1.0986 -0.9472  0.2205
   20SAPC   C38 2655   1.362   2.543   9.597  0.6571  0.0560 -0.8740
   20SAPC   H8X 2656   1.277   2.471   9.589  1.3016 -0.7948 -0.2583
   20SAPC   H8Y 2657   1.443   2.487   9.649 -0.2171 -0.6228 -0.2076
   20SAPC   C39 2658   1.403   2.605   9.458  0.1441  0.6079  0.0396
   20SAPC   H9X 2659   1.483   2.680   9.476 -2.1515  3.1769 -0.0472
   20SAPC   H9Y 2660   1.318   2.670   9.428  0.8035  0.6550 -1.7385
   20SAPC  C310 2661   1.442   2.510   9.350 -0.1314 -0.1361 -0.3507
   20SAPC  H10X 2662   1.343   2.478   9.310 -0.9960  0.6291  1.1181
   20SAPC  H10Y 2663   1.488   2.416   9.387  0.0080  0.4855  1.0968
   20SAPC  C311 2664   1.519   2.579   9.239 -0.0069 -0.0430  0.1567
   20SAPC  H11X 2665   1.478   2.680   9.222 -1.3281 -0.5083  0.5770
   20SAPC  H11Y 2666   1.510   2.517   9.148 -2.5245 -0.9502  0.9874
   20SAPC  C312 2667   1.671   2.599   9.266  0.2989  0.6573  0.1426
   20SAPC  H12X 2668   1.742   2.515   9.259 -1.1603 -0.4851 -1.6290
   20SAPC  H12Y 2669   1.691   2.659   9.357 -2.6662  2.0784 -0.0793
   20SAPC  C313 2670   1.726   2.689   9.156 -0.2561 -0.2915  0.2400
   20SAPC  H13X 2671   1.823   2.726   9.196 -0.9121 -0.9408  2.5180
   20SAPC  H13Y 2672   1.666   2.782   9.146 -1.7667 -1.2837 -0.0686
   20SAPC  C314 2673   1.744   2.615   9.026  0.4960  0.3855  0.7539
   20SAPC  H14X 2674   1.647   2.585   8.981 -0.2053  1.1878  1.6896
   20SAPC  H14Y 2675   1.818   2.533   9.038  0.5942  0.4406  0.5343
   20SAPC  C315 2676   1.794   2.721   8.917  0.2364  0.1007 -0.8192
   20SAPC  H15X 2677   1.855   2.806   8.956  2.6778 -2.3788  1.0080
   20SAPC  H15Y 2678   1.710   2.775   8.868 -1.1835 -1.6092 -0.3149
   20SAPC  C316 2679   1.868   2.660   8.800 -0.3567 -0.9012 -0.0595
   20SAPC  H16X 2680   1.796   2.589   8.754 -0.9067  1.1664 -2.5023
   20SAPC  H16Y 2681   1.957   2.609   8.843 -0.3903  0.3986  1.6003
   20SAPC  C317 2682   1.916   2.764   8.706 -0.0586  0.8977  0.3763
   20SAPC  H17X 2683   1.985   2.831   8.761  0.5374  1.2890 -0.8183
   20SAPC  H17Y 2684   1.829   2.827   8.676  0.6399  1.9376  0.5367
   20SAPC  C318 2685   1.987   2.703   8.588 -0.7555  0.2895 -0.1069
   20SAPC  H18X 2686   1.933   2.616   8.545 -1.4184  0.0202  1.2737
   20SAPC  H18Y 2687   2.091   2.666   8.605 -1.2197 -1.2651 -0.5959
   20SAPC  H18Z 2688   2.006   2.785   8.515  0.3526  1.4469  1.4604
   21SAPC     N 2689   0.401   1.715  10.576  0.0612 -0.3660  0.3913
   21SAPC   C12 2690   0.462   1.851  10.542  0.1830 -0.5926 -0.2288
   21SAPC  H12A 2691   0.386   1.909  10.492  1.6917  1.4072 -0.2934
   21SAPC  H12B 2692   0.547   1.826  10.480 -0.8655 -0.5930 -1.6962
   21SAPC   C13 2693   0.371   1.642  10.448 -0.0679 -0.9505  0.5690
   21SAPC  H13A 2694   0.297   1.685  10.381  0.4166 -0.1986  0.5039
   21SAPC  H13B 2695   0.460   1.642  10.388 -0.2696  1.7514  0.2170
   21SAPC  H13C 2696   0.345   1.544  10.484  1.5667 -0.9978  1.6365
   21SAPC   C14 2697   0.486   1.627  10.658 -0.3540  0.9296  0.3546
   21SAPC  H14A 2698   0.428   1.542  10.691 -0.1271  0.1892 -1.1067
   21SAPC  H14B 2699   0.576   1.602  10.603  0.2142  0.2331  1.5627
   21SAPC  H14C 2700   0.511   1.677  10.751  3.4523 -0.1276 -0.0116
   21SAPC   C15 2701   0.272   1.728  10.650  0.5651  0.1103  0.2512
   21SAPC  H15A 2702   0.289   1.768  10.749 -1.9226 -1.0332  1.1900
   21SAPC  H15B 2703   0.207   1.796  10.597 -2.0562 -3.0845 -0.8086
   21SAPC  H15C 2704   0.226   1.630  10.656 -0.1207  0.5505  2.6476
   21SAPC   C11 2705   0.512   1.942  10.663 -0.0898  0.1921 -0.0092
   21SAPC  H11A 2706   0.429   1.950  10.737 -1.1909 -1.1218 -1.0689
   21SAPC  H11B 2707   0.527   2.043  10.620  0.5876  0.4287  0.7681
   21SAPC     P 2708   0.769   1.932  10.650 -0.2685 -0.0416  0.0071
   21SAPC   O13 2709   0.768   2.082  10.665 -0.2652 -0.2845  0.4430
   21SAPC   O14 2710   0.889   1.867  10.717  1.0909  0.1947 -0.0223
   21SAPC   O12 2711   0.629   1.878  10.722  0.0989  0.7640  0.6438
   21SAPC   O11 2712   0.749   1.884  10.505 -0.0578  0.0701  0.1059
   21SAPC    C1 2713   0.841   1.918  10.401  0.8893 -0.4894 -0.3383
   21SAPC    HA 2714   0.884   2.019  10.418 -0.7232 -0.4441  4.0173
   21SAPC    HB 2715   0.934   1.857  10.397  0.5749 -1.0026  0.0575
   21SAPC    C2 2716   0.773   1.915  10.262 -0.2623  0.0503  0.7324
   21SAPC    HS 2717   0.670   1.956  10.264  0.1004  1.0933 -0.8971
   21SAPC   O21 2718   0.781   1.786  10.199  0.3905  0.0846  0.4695
   21SAPC   C21 2719   0.670   1.711  10.200 -0.4015 -0.4260  0.0248
   21SAPC   O22 2720   0.573   1.743  10.266  0.3105 -0.2538  0.2718
   21SAPC   C22 2721   0.669   1.612  10.079  0.1277  0.3992  0.4498
   21SAPC   H2R 2722   0.743   1.531  10.097  0.3520  0.6906  0.8688
   21SAPC   H2S 2723   0.573   1.557  10.090  0.2169  0.2359  0.4140
   21SAPC    C3 2724   0.856   2.012  10.175  0.3112 -0.7514 -0.1542
   21SAPC    HX 2725   0.964   1.986  10.169  0.4129 -0.4479  0.3739
   21SAPC    HY 2726   0.865   2.116  10.213  0.9312 -0.4937 -0.9913
   21SAPC   O31 2727   0.815   2.012  10.040  0.2572  0.2485 -0.2158
   21SAPC   C31 2728   0.705   2.088  10.001 -0.8294 -0.2559 -0.0649
   21SAPC   O32 2729   0.647   2.157  10.081  0.0035  0.4358 -0.1251
   21SAPC   C32 2730   0.675   2.079   9.855 -0.0991 -0.1279  0.2637
   21SAPC   H2X 2731   0.674   1.972   9.823 -0.0940 -0.4591  1.3399
   21SAPC   H2Y 2732   0.759   2.127   9.800  1.3210 -1.3789  1.2784
   21SAPC   C23 2733   0.682   1.676   9.936 -1.2559  0.7683  0.0199
   21SAPC   H3R 2734   0.759   1.624   9.875  0.2997  1.1303  1.6262
   21SAPC   H3S 2735   0.735   1.773   9.944 -0.8230  0.3415  2.8577
   21SAPC   C24 2736   0.554   1.702   9.868 -0.1531 -0.1191  0.1170
   21SAPC   H4R 2737   0.570   1.769   9.781 -1.9498  1.6431  1.0874
   21SAPC   H4S 2738   0.493   1.756   9.944 -0.5373  0.6549 -0.7359
   21SAPC   C25 2739   0.480   1.575   9.834 -0.6819  0.2723  0.1635
   21SAPC   H5R 2740   0.420   1.517   9.906 -0.6863 -0.6760 -0.5806
   21SAPC   C26 2741   0.481   1.520   9.715 -0.1161  0.1639 -0.0564
   21SAPC   H6R 2742   0.415   1.433   9.701 -2.4548  1.4222  2.5017
   21SAPC   C27 2743   0.564   1.567   9.595 -1.3129  0.1990  0.0208
   21SAPC   H7R 2744   0.597   1.481   9.533  3.1167  2.9181 -1.6028
   21SAPC   H7S 2745   0.661   1.607   9.631  0.0501 -1.5278 -1.6070
   21SAPC   C28 2746   0.500   1.679   9.521 -0.3194 -0.1313  0.2291
   21SAPC   H8R 2747   0.493   1.767   9.586  2.2225  0.1997  0.1168
   21SAPC   C29 2748   0.442   1.676   9.399 -0.7478 -0.0316 -0.6720
   21SAPC   H9R 2749   0.386   1.762   9.361  2.1640  1.7487 -1.1109
   21SAPC  C210 2750   0.428   1.547   9.321  0.0440 -0.6000  0.4946
   21SAPC  H10R 2751   0.330   1.563   9.271  1.7621  2.3087 -2.1012
   21SAPC  H10S 2752   0.429   1.454   9.383  0.7369  1.1388  3.2074
   21SAPC  C211 2753   0.539   1.528   9.219 -0.2508 -0.1070  0.3495
   21SAPC  H11R 2754   0.626   1.474   9.260  0.6960  2.0167  1.2142
   21SAPC  C212 2755   0.552   1.594   9.100 -0.5641 -0.5236  0.5261
   21SAPC  H12R 2756   0.639   1.557   9.044  0.1833 -0.4157  1.6057
   21SAPC  C213 2757   0.460   1.694   9.041  0.2057  0.0341 -1.4265
   21SAPC  H13R 2758   0.374   1.706   9.111 -0.0380  0.0112 -1.7209
   21SAPC  H13S 2759   0.426   1.655   8.943 -1.8058 -1.3161 -0.2199
   21SAPC  C214 2760   0.522   1.833   9.023 -0.2023  0.0239  0.1843
   21SAPC  H14R 2761   0.590   1.873   9.099 -0.6070 -1.4994  1.3666
   21SAPC  C215 2762   0.507   1.904   8.906 -1.0757  0.3079 -0.3569
   21SAPC  H15R 2763   0.565   1.998   8.896  1.9676 -1.5561 -0.8952
   21SAPC  C216 2764   0.444   1.870   8.774  0.3774 -0.7854  0.1589
   21SAPC  H16R 2765   0.375   1.955   8.753 -0.8785 -1.7167  0.4159
   21SAPC  H16S 2766   0.375   1.784   8.782 -1.8345  0.8665 -0.4711
   21SAPC  C217 2767   0.529   1.858   8.652  0.4086 -0.1393 -0.6124
   21SAPC  H17R 2768   0.600   1.775   8.674 -0.2006 -0.6430 -0.5288
   21SAPC  H17S 2769   0.584   1.954   8.645  0.6587 -0.2848 -0.6665
   21SAPC  C218 2770   0.445   1.840   8.524 -0.0291  0.0029 -0.7541
   21SAPC  H18R 2771   0.389   1.931   8.494 -2.2225 -1.4850 -1.2254
   21SAPC  H18S 2772   0.379   1.756   8.554  2.3107 -2.2208 -1.5918
   21SAPC  C219 2773   0.531   1.784   8.403  0.9312 -1.0520 -0.3420
   21SAPC  H19R 2774   0.477   1.702   8.352 -2.3702  1.7825 -1.5377
   21SAPC  H19S 2775   0.624   1.734   8.440  0.5366 -0.8183  1.0121
   21SAPC  C220 2776   0.568   1.901   8.305 -0.1232 -0.6154  0.4909
   21SAPC  H20R 2777   0.651   1.880   8.233 -0.8820 -0.6199 -0.3871
   21SAPC  H20S 2778   0.606   1.986   8.365  0.0750  2.6001 -3.9505
   21SAPC  H20T 2779   0.476   1.940   8.257 -0.8011  0.0137  2.2605
   21SAPC   C33 2780   0.540   2.136   9.807 -0.1325  0.5544  0.1721
   21SAPC   H3X 2781   0.552   2.246   9.814  1.1724  0.4661 -0.5046
   21SAPC   H3Y 2782   0.463   2.103   9.880  0.8437  2.4351  2.1047
   21SAPC   C34 2783   0.512   2.104   9.656  0.0533  0.2844 -0.1069
   21SAPC   H4X 2784   0.403   2.119   9.639 -0.1443 -1.0038 -0.0186
   21SAPC   H4Y 2785   0.536   1.999   9.629  1.1390  0.4463  0.2424
   21SAPC   C35 2786   0.585   2.189   9.558  0.9756  0.1666 -0.5500
   21SAPC   H5X 2787   0.694   2.171   9.545  0.6668 -0.8189 -1.8697
   21SAPC   H5Y 2788   0.560   2.294   9.582  0.6324  0.2143 -1.1203
   21SAPC   C36 2789   0.527   2.175   9.414 -0.5407  0.0982  0.5085
   21SAPC   H6X 2790   0.417   2.184   9.421 -0.8775 -2.3156 -1.0283
   21SAPC   H6Y 2791   0.547   2.074   9.371 -2.0179 -0.1420  0.3715
   21SAPC   C37 2792   0.596   2.271   9.316  0.1921 -0.0892  0.9156
   21SAPC   H7X 2793   0.704   2.243   9.320  0.0586 -0.5298  1.4248
   21SAPC   H7Y 2794   0.580   2.375   9.351 -0.5236  0.2699 -0.4508
   21SAPC   C38 2795   0.558   2.274   9.173  0.0163  0.7048  0.5789
   21SAPC   H8X 2796   0.452   2.308   9.165  0.1700  1.4709  1.7475
   21SAPC   H8Y 2797   0.570   2.173   9.129 -1.7711  0.7305 -0.0207
   21SAPC   C39 2798   0.643   2.371   9.093 -0.5853  0.1076  0.3163
   21SAPC   H9X 2799   0.751   2.373   9.119 -0.7619 -1.4180  1.2234
   21SAPC   H9Y 2800   0.610   2.474   9.120 -1.2761  0.4556 -1.7616
   21SAPC  C310 2801   0.642   2.337   8.942  0.1727 -0.3961 -0.3673
   21SAPC  H10X 2802   0.698   2.244   8.920  3.8124  1.9359 -1.5607
   21SAPC  H10Y 2803   0.698   2.420   8.893 -1.9329  0.0036 -2.1600
   21SAPC  C311 2804   0.507   2.293   8.877 -0.1527 -0.1761  0.1758
   21SAPC  H11X 2805   0.424   2.367   8.885 -0.4018 -0.5420  1.0675
   21SAPC  H11Y 2806   0.470   2.203   8.931 -0.2238 -0.8258 -0.9408
   21SAPC  C312 2807   0.537   2.249   8.729  0.2520  0.3846  0.1809
   21SAPC  H12X 2808   0.446   2.203   8.684  1.0730  0.6320 -1.7480
   21SAPC  H12Y 2809   0.609   2.165   8.723  1.6175  1.5006  0.6034
   21SAPC  C313 2810   0.561   2.367   8.635 -0.1183  0.7352 -0.4483
   21SAPC  H13X 2811   0.661   2.414   8.650  1.5210 -1.7086 -3.2100
   21SAPC  H13Y 2812   0.484   2.448   8.642  0.1071  0.7596  1.8697
   21SAPC  C314 2813   0.568   2.324   8.490  0.0194 -0.2898 -0.3920
   21SAPC  H14X 2814   0.470   2.280   8.464 -1.0131  0.2599  2.4914
   21SAPC  H14Y 2815   0.632   2.233   8.480  1.0825  0.1727  1.9819
   21SAPC  C315 2816   0.596   2.446   8.397  0.1674  0.4963 -0.0972
   21SAPC  H15X 2817   0.512   2.519   8.406 -0.2613 -0.0899  0.7121
   21SAPC  H15Y 2818   0.597   2.405   8.293  0.8719 -0.2596  0.2037
   21SAPC  C316 2819   0.729   2.523   8.434 -0.0623 -0.2524  0.1499
   21SAPC  H16X 2820   0.716   2.578   8.529 -0.0161  0.3683 -0.2045
   21SAPC  H16Y 2821   0.758   2.601   8.360  0.6205 -0.2194  0.4459
   21SAPC  C317 2822   0.853   2.435   8.427 -0.1108 -0.2847 -0.0156
   21SAPC  H17X 2823   0.865   2.395   8.324  0.3136  0.3430 -0.2126
   21SAPC  H17Y 2824   0.844   2.335   8.475 -0.3954 -0.9340 -1.4020
   21SAPC  C318 2825   0.971   2.516   8.469 -0.3681  0.0527  0.6015
   21SAPC  H18X 2826   1.068   2.471   8.440 -0.6984  0.3545 -1.0673
   21SAPC  H18Y 2827   0.977   2.521   8.580 -0.3952 -0.0990  0.6108
   21SAPC  H18Z 2828   0.964   2.616   8.423 -0.0162  0.0606  0.5628
   22SAPC     N 2829   6.753   6.749  10.891  0.2103  0.3111  0.8336
   22SAPC   C12 2830   6.761   6.668  10.760  0.4743  0.0432 -0.1418
   22SAPC  H12A 2831   6.725   6.723  10.674 -0.4681 -3.4018 -2.0862
   22SAPC  H12B 2832   6.704   6.576  10.762  3.7150 -2.0599  0.9421
   22SAPC   C13 2833   6.809   6.880  10.849 -0.1242  0.1931 -0.5083
   22SAPC  H13A 2834   6.848   6.919  10.942 -2.7741  0.8080  0.3795
   22SAPC  H13B 2835   6.890   6.853  10.782  0.6812 -0.5225  0.7258
   22SAPC  H13C 2836   6.736   6.947  10.806  0.5545  2.6108  1.9670
   22SAPC   C14 2837   6.622   6.758  10.955 -0.2935 -0.2504  0.5867
   22SAPC  H14A 2838   6.603   6.662  11.002 -2.3020  0.3977  1.1075
   22SAPC  H14B 2839   6.628   6.832  11.033  1.8948  0.2778 -0.0475
   22SAPC  H14C 2840   6.546   6.792  10.887  0.5047  1.4266  0.5021
   22SAPC   C15 2841   6.849   6.696  10.998  0.3125  0.0820 -0.0347
   22SAPC  H15A 2842   6.858   6.762  11.082  0.6737  0.5594 -0.4427
   22SAPC  H15B 2843   6.823   6.594  11.024  0.1630  0.3063  0.6960
   22SAPC  H15C 2844   6.947   6.685  10.953 -0.1443 -0.6888 -0.8638
   22SAPC   C11 2845   6.900   6.613  10.717  0.2037 -0.1085 -0.2869
   22SAPC  H11A 2846   6.984   6.685  10.730  1.4696 -1.2388 -2.1003
   22SAPC  H11B 2847   6.909   6.595  10.608 -1.8711  0.4786 -0.5942
   22SAPC     P 2848   6.907   6.355  10.765 -0.0085  0.1388 -0.1014
   22SAPC   O13 2849   6.996   6.274  10.847  0.1492 -0.5646  0.3914
   22SAPC   O14 2850   6.763   6.335  10.782  0.0864  0.8280 -0.6217
   22SAPC   O12 2851   6.936   6.505  10.799 -0.4531 -0.0598 -0.2219
   22SAPC   O11 2852   6.949   6.341  10.612  0.5062  0.1957  0.0401
   22SAPC    C1 2853   7.079   6.377  10.565 -0.7052 -0.1775 -0.8374
   22SAPC    HA 2854   7.128   6.448  10.634 -2.8603 -0.7457  1.3158
   22SAPC    HB 2855   7.149   6.291  10.575  0.4819  0.7980 -0.6512
   22SAPC    C2 2856   7.088   6.423  10.419  0.3403  0.2441 -0.6179
   22SAPC    HS 2857   7.013   6.504  10.408 -0.5974 -0.4361  0.6595
   22SAPC   O21 2858   7.063   6.324  10.322  0.0398 -0.4443 -0.7869
   22SAPC   C21 2859   6.981   6.354  10.220 -0.2941  0.5244 -0.1026
   22SAPC   O22 2860   6.927   6.458  10.200 -0.7715 -0.0001 -0.2230
   22SAPC   C22 2861   6.971   6.230  10.132 -0.1785  0.0311  0.2201
   22SAPC   H2R 2862   7.072   6.187  10.115  0.4496  1.1219  1.1625
   22SAPC   H2S 2863   6.901   6.157  10.177  0.5441 -1.8239 -1.6030
   22SAPC    C3 2864   7.224   6.495  10.381 -0.1319  0.0785 -0.1097
   22SAPC    HX 2865   7.309   6.426  10.403  1.2911  1.8224  0.0275
   22SAPC    HY 2866   7.238   6.565  10.465 -0.5524 -0.5625  0.4964
   22SAPC   O31 2867   7.221   6.558  10.253  0.3502  0.2715  0.1753
   22SAPC   C31 2868   7.338   6.584  10.203  0.4173  0.0749  0.5565
   22SAPC   O32 2869   7.448   6.578  10.263 -0.4670  0.0117  0.8573
   22SAPC   C32 2870   7.333   6.625  10.051 -0.0681 -0.5973  0.6012
   22SAPC   H2X 2871   7.435   6.620  10.007 -0.5031  2.7679 -0.9712
   22SAPC   H2Y 2872   7.277   6.722  10.046 -0.4862 -0.7787  1.6738
   22SAPC   C23 2873   6.919   6.274   9.989  0.5581  0.5132 -0.4339
   22SAPC   H3R 2874   7.005   6.321   9.936  2.7032 -1.5593  1.0832
   22SAPC   H3S 2875   6.843   6.353  10.004  1.7058  1.1199  2.6874
   22SAPC   C24 2876   6.876   6.147   9.907 -0.2970 -0.3781 -0.1673
   22SAPC   H4R 2877   6.788   6.107   9.961  0.1859 -1.7323 -0.3393
   22SAPC   H4S 2878   6.950   6.065   9.919  0.3501  0.1158 -0.7021
   22SAPC   C25 2879   6.825   6.158   9.764 -0.0690 -0.3006  0.4232
   22SAPC   H5R 2880   6.784   6.255   9.732  2.1754  0.5931  0.1889
   22SAPC   C26 2881   6.837   6.068   9.670  0.5656 -0.2023  0.2496
   22SAPC   H6R 2882   6.806   6.099   9.569  1.7441 -1.5887 -0.5589
   22SAPC   C27 2883   6.895   5.935   9.676  1.1539 -0.1851  0.4530
   22SAPC   H7R 2884   6.945   5.917   9.773  3.3073 -2.8640 -1.0696
   22SAPC   H7S 2885   6.976   5.921   9.601  0.7188  2.8977 -0.6635
   22SAPC   C28 2886   6.793   5.823   9.656  0.0307  0.6664 -0.0159
   22SAPC   H8R 2887   6.711   5.818   9.729  0.8467  0.6018  0.9072
   22SAPC   C29 2888   6.791   5.735   9.557 -0.2838  0.3948  0.0513
   22SAPC   H9R 2889   6.715   5.656   9.562  0.0700  0.0974  0.8203
   22SAPC  C210 2890   6.879   5.726   9.438 -0.2416 -0.1827 -0.4554
   22SAPC  H10R 2891   6.908   5.622   9.412  0.1121 -0.1187 -0.3269
   22SAPC  H10S 2892   6.981   5.762   9.467  0.0462 -0.0961 -1.5702
   22SAPC  C211 2893   6.840   5.805   9.321  0.0845  0.0979 -0.2158
   22SAPC  H11R 2894   6.815   5.910   9.344  1.5140  0.5034 -0.4334
   22SAPC  C212 2895   6.840   5.771   9.193  0.6288 -0.8144  0.3651
   22SAPC  H12R 2896   6.816   5.845   9.114  1.4138 -1.1080 -0.1586
   22SAPC  C213 2897   6.874   5.640   9.135 -0.5509  0.4517 -0.0186
   22SAPC  H13R 2898   6.865   5.560   9.211 -1.5790 -0.1647 -0.7684
   22SAPC  H13S 2899   6.980   5.648   9.105 -0.2891  0.4378  0.8920
   22SAPC  C214 2900   6.768   5.603   9.030 -0.3387  0.1883 -0.4578
   22SAPC  H14R 2901   6.693   5.524   9.048  0.6074 -0.6968 -0.3865
   22SAPC  C215 2902   6.779   5.654   8.908  0.6380 -0.4119  0.1721
   22SAPC  H15R 2903   6.707   5.621   8.832  0.5176 -1.4979  0.7628
   22SAPC  C216 2904   6.872   5.758   8.859  0.3466  0.2503  0.5441
   22SAPC  H16R 2905   6.931   5.800   8.943  0.6096 -0.2881  0.6341
   22SAPC  H16S 2906   6.810   5.841   8.818  0.1591 -0.3101 -0.3279
   22SAPC  C217 2907   6.948   5.703   8.740 -0.3874  0.4325  0.4835
   22SAPC  H17R 2908   6.889   5.694   8.646 -0.2641  1.8042  0.2621
   22SAPC  H17S 2909   7.003   5.608   8.757  0.3981  0.7558 -0.1840
   22SAPC  C218 2910   7.056   5.809   8.720  0.3224 -0.2095 -0.0024
   22SAPC  H18R 2911   7.118   5.770   8.636  1.2497 -1.2547  1.1581
   22SAPC  H18S 2912   7.131   5.816   8.801 -1.2554  0.2272  1.4518
   22SAPC  C219 2913   7.020   5.950   8.671  0.0666  0.0716  0.5319
   22SAPC  H19R 2914   7.027   6.025   8.753 -0.5355  2.8223 -1.8336
   22SAPC  H19S 2915   6.918   5.944   8.627 -0.3084 -2.5159  1.6944
   22SAPC  C220 2916   7.113   6.006   8.557 -0.2573 -0.4457 -0.4776
   22SAPC  H20R 2917   7.079   5.936   8.478 -2.3019 -2.4852  2.1096
   22SAPC  H20S 2918   7.216   5.975   8.586  0.8689  3.9293  0.5097
   22SAPC  H20T 2919   7.103   6.117   8.558  0.6373 -0.3649  0.2571
   22SAPC   C33 2920   7.248   6.530   9.970  0.0282  0.3616 -0.2102
   22SAPC   H3X 2921   7.141   6.548   9.994 -0.0942 -0.6583  0.0285
   22SAPC   H3Y 2922   7.267   6.426  10.003  0.3275 -0.0218 -1.5673
   22SAPC   C34 2923   7.273   6.532   9.821 -0.6825  0.4114 -0.1936
   22SAPC   H4X 2924   7.381   6.515   9.803 -0.4267  1.8565 -0.0719
   22SAPC   H4Y 2925   7.241   6.634   9.791 -2.1179 -0.2059 -0.7980
   22SAPC   C35 2926   7.188   6.421   9.749  0.0101 -0.2263  0.7698
   22SAPC   H5X 2927   7.079   6.443   9.749  0.0716  0.1895 -1.7454
   22SAPC   H5Y 2928   7.195   6.329   9.811 -1.0719 -1.2702 -0.6237
   22SAPC   C36 2929   7.236   6.392   9.605  0.3017 -0.1871  0.1917
   22SAPC   H6X 2930   7.333   6.341   9.624  0.0876 -0.4357  0.6157
   22SAPC   H6Y 2931   7.251   6.477   9.535 -1.1824 -0.6596 -0.7150
   22SAPC   C37 2932   7.149   6.289   9.530 -0.4478 -0.1813  1.1740
   22SAPC   H7X 2933   7.057   6.341   9.496 -0.8129 -1.7616 -0.3620
   22SAPC   H7Y 2934   7.142   6.201   9.596 -0.0094 -0.2827  1.0820
   22SAPC   C38 2935   7.215   6.253   9.398  0.0370  0.0387  0.7728
   22SAPC   H8X 2936   7.312   6.204   9.421 -0.1085 -0.1105  1.0807
   22SAPC   H8Y 2937   7.228   6.350   9.345 -0.1867 -0.3248  0.0554
   22SAPC   C39 2938   7.136   6.155   9.313  0.1398  0.3557 -1.1857
   22SAPC   H9X 2939   7.111   6.063   9.370  0.0184  1.8982  1.3136
   22SAPC   H9Y 2940   7.208   6.120   9.236  1.6813 -2.3254  1.4182
   22SAPC  C310 2941   7.002   6.208   9.254 -0.4836 -0.0542  0.1718
   22SAPC  H10X 2942   6.945   6.245   9.341  1.1716  2.3542  0.2726
   22SAPC  H10Y 2943   6.947   6.127   9.201 -0.0979 -0.9126  1.0606
   22SAPC  C311 2944   7.015   6.319   9.155  0.0396 -0.2530  0.0966
   22SAPC  H11X 2945   7.068   6.406   9.201  0.8810  0.0594 -1.4168
   22SAPC  H11Y 2946   6.913   6.344   9.119 -0.8651 -2.6364  0.9049
   22SAPC  C312 2947   7.079   6.257   9.024  0.2271 -0.2502 -0.4140
   22SAPC  H12X 2948   7.015   6.175   8.986 -0.4467 -0.2997  0.7866
   22SAPC  H12Y 2949   7.184   6.227   9.044  0.0693 -0.6042 -0.0939
   22SAPC  C313 2950   7.075   6.365   8.907  0.5837 -0.1186 -0.3039
   22SAPC  H13X 2951   7.104   6.461   8.956 -0.5738  0.7747 -1.3314
   22SAPC  H13Y 2952   6.966   6.382   8.890  0.4683 -1.0140 -0.4544
   22SAPC  C314 2953   7.162   6.360   8.777 -0.1522  0.0229 -0.5461
   22SAPC  H14X 2954   7.150   6.256   8.740  0.2782 -0.7512  1.4018
   22SAPC  H14Y 2955   7.267   6.382   8.807 -0.7721  2.4664 -0.0810
   22SAPC  C315 2956   7.116   6.467   8.685 -0.3606  0.2290  0.2748
   22SAPC  H15X 2957   7.143   6.566   8.727  0.5699 -0.5536  1.5356
   22SAPC  H15Y 2958   7.006   6.476   8.666 -0.1104 -0.1895 -1.4449
   22SAPC  C316 2959   7.179   6.448   8.546 -0.3747  0.4958  0.2554
   22SAPC  H16X 2960   7.100   6.421   8.473 -0.3111 -0.2524  0.4597
   22SAPC  H16Y 2961   7.252   6.365   8.554  0.0587  0.7645 -0.8173
   22SAPC  C317 2962   7.273   6.566   8.507  0.5773 -0.1835  0.3710
   22SAPC  H17X 2963   7.316   6.600   8.604 -1.4339  0.2487  1.1498
   22SAPC  H17Y 2964   7.224   6.656   8.465  0.3643 -1.9497 -3.3979
   22SAPC  C318 2965   7.378   6.524   8.405  0.1434  0.5054 -0.5227
   22SAPC  H18X 2966   7.445   6.611   8.386  0.2504  0.7568  0.8929
   22SAPC  H18Y 2967   7.346   6.498   8.302 -1.1542 -0.6980  0.1836
   22SAPC  H18Z 2968   7.454   6.451   8.441 -0.3206  0.6371  0.7588
   23SAPC     N 2969   1.334   0.135  10.843 -0.1091  0.1169  0.9308
   23SAPC   C12 2970   1.323   0.275  10.784  0.7317 -0.0955 -0.0862
   23SAPC  H12A 2971   1.290   0.282  10.682 -0.7555  3.0413  0.5498
   23SAPC  H12B 2972   1.425   0.310  10.780  0.8846 -0.7444 -3.4211
   23SAPC   C13 2973   1.207   0.055  10.826 -0.1536  0.1443 -0.4852
   23SAPC  H13A 2974   1.133   0.086  10.899 -1.9211 -1.4866 -1.5672
   23SAPC  H13B 2975   1.161   0.077  10.731 -2.1564  0.1539  0.4483
   23SAPC  H13C 2976   1.224  -0.051  10.837  2.3288  0.7417  2.2116
   23SAPC   C14 2977   1.448   0.067  10.776  0.1161 -0.0478 -0.4534
   23SAPC  H14A 2978   1.428   0.078  10.670 -0.9444  2.8568  0.0029
   23SAPC  H14B 2979   1.546   0.106  10.796  0.3076 -0.8875  0.2961
   23SAPC  H14C 2980   1.449  -0.037  10.807 -0.0546 -0.0257 -0.3732
   23SAPC   C15 2981   1.359   0.143  10.990  0.0682  0.4501  0.0015
   23SAPC  H15A 2982   1.391   0.047  11.027  3.4396  0.8704 -1.6774
   23SAPC  H15B 2983   1.440   0.213  11.006  0.3625  0.4302 -1.3753
   23SAPC  H15C 2984   1.275   0.177  11.049 -0.0704  1.2434 -0.6496
   23SAPC   C11 2985   1.237   0.380  10.850 -0.7588  0.2628  0.0051
   23SAPC  H11A 2986   1.257   0.475  10.796  0.6592  0.1711  0.3524
   23SAPC  H11B 2987   1.262   0.398  10.957 -2.7815 -0.4499  0.6135
   23SAPC     P 2988   1.018   0.359  10.712  0.1286 -0.0894  0.5396
   23SAPC   O13 2989   0.924   0.244  10.709 -0.0378 -0.8913  0.0981
   23SAPC   O14 2990   0.966   0.495  10.705  0.6923  0.0840 -0.1760
   23SAPC   O12 2991   1.108   0.337  10.833  0.3076  0.3190 -0.4539
   23SAPC   O11 2992   1.117   0.339  10.595  0.1946 -0.1841 -0.5869
   23SAPC    C1 2993   1.074   0.387  10.467 -0.1211 -0.0375  0.3002
   23SAPC    HA 2994   1.093   0.304  10.395 -0.8182 -0.3231  0.4368
   23SAPC    HB 2995   0.963   0.400  10.460 -0.1328 -0.7280 -1.0639
   23SAPC    C2 2996   1.150   0.515  10.429 -0.1061  0.1245 -0.7667
   23SAPC    HS 2997   1.115   0.605  10.486  1.9072 -0.9176  2.2536
   23SAPC   O21 2998   1.148   0.527  10.284  0.5215  0.3634 -0.1766
   23SAPC   C21 2999   1.047   0.596  10.247  0.3422  0.2716  0.0253
   23SAPC   O22 3000   0.946   0.610  10.316  0.7975  0.6204 -0.2457
   23SAPC   C22 3001   1.057   0.627  10.102 -0.4447  0.3962  0.4205
   23SAPC   H2R 3002   0.977   0.704  10.094 -0.6710  0.6206  3.9673
   23SAPC   H2S 3003   1.162   0.658  10.084 -0.4011 -0.0938 -0.2020
   23SAPC    C3 3004   1.305   0.502  10.479 -0.2018 -0.0411 -0.1397
   23SAPC    HX 3005   1.338   0.399  10.450 -0.3553 -0.3796  0.8757
   23SAPC    HY 3006   1.311   0.509  10.589 -2.8743 -0.1383  0.0501
   23SAPC   O31 3007   1.382   0.602  10.402  0.2054  0.0469  0.5796
   23SAPC   C31 3008   1.391   0.722  10.455  0.1292 -0.0995 -0.2522
   23SAPC   O32 3009   1.317   0.761  10.544 -0.5085  0.4528 -0.6225
   23SAPC   C32 3010   1.505   0.810  10.398  0.7168  0.4767 -0.0950
   23SAPC   H2X 3011   1.488   0.916  10.429  0.7645  1.1142 -2.1995
   23SAPC   H2Y 3012   1.505   0.794  10.288  0.4745  0.1466 -0.0481
   23SAPC   C23 3013   1.029   0.504  10.013  0.6931  0.2172 -0.4837
   23SAPC   H3R 3014   0.930   0.470  10.053  1.2663  1.9883  2.6430
   23SAPC   H3S 3015   1.106   0.427  10.034  1.2784  0.9347 -0.0093
   23SAPC   C24 3016   1.028   0.524   9.862 -0.4412 -0.0177 -0.8824
   23SAPC   H4R 3017   1.118   0.576   9.825 -0.0705  3.0514  3.8609
   23SAPC   H4S 3018   0.948   0.599   9.843  1.7847  1.9507 -2.5736
   23SAPC   C25 3019   1.007   0.403   9.773  0.5671  0.1337 -0.6977
   23SAPC   H5R 3020   0.981   0.306   9.818 -2.0341  0.1631 -2.0580
   23SAPC   C26 3021   1.028   0.410   9.638 -0.1856 -0.4770  0.2032
   23SAPC   H6R 3022   1.025   0.324   9.569 -0.6107 -0.0957 -0.2549
   23SAPC   C27 3023   1.064   0.538   9.561  0.8281 -0.0348  0.0956
   23SAPC   H7R 3024   1.058   0.633   9.618 -0.4997  0.5896 -1.0489
   23SAPC   H7S 3025   0.982   0.554   9.488  2.1040 -0.0069 -1.3645
   23SAPC   C28 3026   1.193   0.516   9.481  0.0636  1.4589  0.1582
   23SAPC   H8R 3027   1.287   0.492   9.533 -0.2386  0.6757  0.3433
   23SAPC   C29 3028   1.199   0.511   9.344  0.9157  0.0768  0.2285
   23SAPC   H9R 3029   1.301   0.502   9.301  0.6045 -0.4890 -0.4054
   23SAPC  C210 3030   1.080   0.526   9.247  0.7146 -0.1227  0.1315
   23SAPC  H10R 3031   0.989   0.477   9.288 -0.1038 -0.1825 -1.6965
   23SAPC  H10S 3032   1.089   0.467   9.153 -0.5869  0.1081 -0.1431
   23SAPC  C211 3033   1.055   0.671   9.202  0.4691 -0.0279  0.4483
   23SAPC  H11R 3034   1.000   0.736   9.271  0.9481  1.0512 -0.1737
   23SAPC  C212 3035   1.097   0.732   9.087 -0.3134  0.0844  0.0794
   23SAPC  H12R 3036   1.071   0.838   9.074 -1.2823 -0.0137  1.1023
   23SAPC  C213 3037   1.166   0.659   8.967 -0.7097 -1.2011 -0.3139
   23SAPC  H13R 3038   1.097   0.661   8.880  0.1505 -0.8163 -0.9932
   23SAPC  H13S 3039   1.202   0.560   9.003  0.6105  0.1603  2.2632
   23SAPC  C214 3040   1.289   0.741   8.921 -0.2577  0.8474 -0.4555
   23SAPC  H14R 3041   1.365   0.761   8.998 -1.2591  1.3971  0.3979
   23SAPC  C215 3042   1.311   0.791   8.795 -0.1787  0.5386  0.1412
   23SAPC  H15R 3043   1.407   0.842   8.780  0.3900 -0.6589 -0.4089
   23SAPC  C216 3044   1.229   0.781   8.673  0.1835  0.3113 -0.2192
   23SAPC  H16R 3045   1.179   0.682   8.664  3.0648 -0.9920 -2.4090
   23SAPC  H16S 3046   1.281   0.801   8.577 -0.3963  2.1139 -0.1786
   23SAPC  C217 3047   1.116   0.889   8.671  0.5117 -0.3543  0.4404
   23SAPC  H17R 3048   1.171   0.983   8.653 -0.4249  0.5262  2.0469
   23SAPC  H17S 3049   1.073   0.897   8.773  0.5906  0.1247  0.4356
   23SAPC  C218 3050   1.011   0.868   8.560  0.7352 -0.5816  0.5023
   23SAPC  H18R 3051   0.943   0.789   8.597  0.8931  0.7557  3.8097
   23SAPC  H18S 3052   1.055   0.826   8.467 -1.7964 -0.0272 -0.9890
   23SAPC  C219 3053   0.942   1.002   8.524 -0.7101 -0.2490  0.4173
   23SAPC  H19R 3054   0.860   0.963   8.461 -1.1610  2.5759 -0.8335
   23SAPC  H19S 3055   1.011   1.051   8.452 -1.1238 -0.1798  0.0660
   23SAPC  C220 3056   0.908   1.103   8.639 -0.2265  0.7927  0.6494
   23SAPC  H20R 3057   0.998   1.152   8.681 -0.2443  0.9705  0.4814
   23SAPC  H20S 3058   0.856   1.051   8.722  1.4960  0.5322  1.5901
   23SAPC  H20T 3059   0.851   1.187   8.594 -1.5864  0.2189  1.2800
   23SAPC   C33 3060   1.644   0.766  10.453  0.8490  0.2162  0.2956
   23SAPC   H3X 3061   1.676   0.683  10.388 -0.4733  0.4411 -0.6718
   23SAPC   H3Y 3062   1.639   0.724  10.556 -0.7912  0.4229  0.3250
   23SAPC   C34 3063   1.748   0.882  10.442 -0.1439  0.1826 -1.0763
   23SAPC   H4X 3064   1.846   0.850  10.483 -0.8419  2.8368  3.0240
   23SAPC   H4Y 3065   1.709   0.967  10.502 -1.1060 -1.2417  0.3787
   23SAPC   C35 3066   1.765   0.934  10.305  0.3142  0.0481 -0.2545
   23SAPC   H5X 3067   1.856   0.998  10.300 -1.1894  2.1943 -0.7301
   23SAPC   H5Y 3068   1.673   0.990  10.277  0.4328  0.9357  1.0468
   23SAPC   C36 3069   1.782   0.817  10.207 -0.7552 -0.0679 -0.4801
   23SAPC   H6X 3070   1.686   0.774  10.170 -0.4485 -1.3204  0.1509
   23SAPC   H6Y 3071   1.822   0.734  10.270 -2.1753  0.2551  0.8667
   23SAPC   C37 3072   1.877   0.843  10.089 -0.1544  0.1006  0.3030
   23SAPC   H7X 3073   1.896   0.742  10.047  0.8067 -0.0040  0.9732
   23SAPC   H7Y 3074   1.970   0.877  10.138  1.8057 -2.7654 -1.3192
   23SAPC   C38 3075   1.817   0.932   9.983 -0.3528 -0.3225 -0.6018
   23SAPC   H8X 3076   1.812   1.034  10.028 -0.5303  0.0187 -1.3934
   23SAPC   H8Y 3077   1.716   0.902   9.951 -1.1822 -0.0125  1.6246
   23SAPC   C39 3078   1.897   0.953   9.854  0.2353  0.1199 -0.1113
   23SAPC   H9X 3079   1.898   0.854   9.805 -1.3831  0.5678 -1.0709
   23SAPC   H9Y 3080   2.001   0.977   9.887 -0.2364  0.1660  1.3983
   23SAPC  C310 3081   1.854   1.051   9.752  0.1090  0.4440  0.0459
   23SAPC  H10X 3082   1.845   1.147   9.807 -0.4768 -0.2170  1.1117
   23SAPC  H10Y 3083   1.753   1.024   9.717  1.2806 -0.4928 -2.6920
   23SAPC  C311 3084   1.955   1.070   9.634  0.8772 -0.0145  0.0768
   23SAPC  H11X 3085   2.016   0.978   9.634  0.1844 -0.4888 -1.2375
   23SAPC  H11Y 3086   2.024   1.152   9.663  0.6729  0.1377  0.1336
   23SAPC  C312 3087   1.883   1.100   9.504  0.2078 -0.6325  0.3251
   23SAPC  H12X 3088   1.806   1.180   9.512 -0.1483 -0.5273 -3.3210
   23SAPC  H12Y 3089   1.836   1.008   9.466 -0.9678 -0.1253  0.5359
   23SAPC  C313 3090   1.981   1.151   9.394  0.7999 -0.3450 -0.6545
   23SAPC  H13X 3091   2.026   1.060   9.350 -0.6310 -2.5596  2.2880
   23SAPC  H13Y 3092   2.053   1.225   9.434 -0.1811  1.1689 -1.5922
   23SAPC  C314 3093   1.900   1.226   9.288  0.4637 -0.3709  0.2882
   23SAPC  H14X 3094   1.849   1.311   9.339  1.0539  0.1401  0.0260
   23SAPC  H14Y 3095   1.818   1.165   9.244  1.2229 -0.6270 -0.8050
   23SAPC  C315 3096   1.983   1.287   9.180 -0.0504 -0.0824  0.0905
   23SAPC  H15X 3097   2.045   1.347   9.250 -1.3823 -0.7782  1.8950
   23SAPC  H15Y 3098   1.909   1.346   9.122 -1.1238  0.4424  1.9585
   23SAPC  C316 3099   2.069   1.203   9.083  0.6982  0.0852 -0.2187
   23SAPC  H16X 3100   1.995   1.159   9.013 -0.4928 -0.0426  1.1011
   23SAPC  H16Y 3101   2.126   1.121   9.131 -1.0490 -0.8728  0.2312
   23SAPC  C317 3102   2.169   1.290   9.004 -0.8395 -0.1399 -0.0682
   23SAPC  H17X 3103   2.223   1.362   9.069 -0.0330  1.7255 -2.7231
   23SAPC  H17Y 3104   2.102   1.347   8.936  1.6811  0.8067 -1.8317
   23SAPC  C318 3105   2.268   1.203   8.930  0.1442  0.2519 -0.3244
   23SAPC  H18X 3106   2.346   1.273   8.894  1.4465 -0.7808  0.4462
   23SAPC  H18Y 3107   2.222   1.161   8.838 -0.3323 -1.5465  0.7201
   23SAPC  H18Z 3108   2.319   1.118   8.980 -0.3952 -0.2778 -0.6575
   24SAPC     N 3109   3.778   1.936  11.361  0.6872 -0.0949 -0.2608
   24SAPC   C12 3110   3.784   1.784  11.347  0.1757 -0.9363  0.7618
   24SAPC  H12A 3111   3.869   1.745  11.400  1.5949 -0.6681 -1.2350
   24SAPC  H12B 3112   3.814   1.763  11.245 -0.2988 -0.5286  0.5413
   24SAPC   C13 3113   3.686   1.992  11.258  0.1275 -0.1047  0.1216
   24SAPC  H13A 3114   3.639   2.081  11.299  0.8593  0.9054 -1.1714
   24SAPC  H13B 3115   3.749   2.005  11.172 -0.4659 -0.6393 -0.4015
   24SAPC  H13C 3116   3.619   1.911  11.233  1.4537 -1.8256  2.0324
   24SAPC   C14 3117   3.717   1.969  11.499 -0.6432 -0.3352 -0.4790
   24SAPC  H14A 3118   3.680   2.071  11.499  0.3999  0.0489 -1.6820
   24SAPC  H14B 3119   3.632   1.903  11.509  0.0222 -0.9052  1.9535
   24SAPC  H14C 3120   3.783   1.952  11.583  0.2024  1.0302 -0.8568
   24SAPC   C15 3121   3.914   2.002  11.348  0.0129 -0.7736 -0.2517
   24SAPC  H15A 3122   3.990   1.957  11.409  1.3002  2.4847  0.6113
   24SAPC  H15B 3123   3.952   2.007  11.247 -0.9759 -1.1534 -0.6513
   24SAPC  H15C 3124   3.913   2.103  11.386 -0.1412 -0.1761 -1.7883
   24SAPC   C11 3125   3.660   1.692  11.372 -0.1910 -0.4624  0.8580
   24SAPC  H11A 3126   3.643   1.691  11.482  1.5998  0.8215  1.1581
   24SAPC  H11B 3127   3.693   1.590  11.342  1.8447  0.3290  0.3323
   24SAPC     P 3128   3.547   1.682  11.138  0.3747  0.1439 -0.2519
   24SAPC   O13 3129   3.534   1.533  11.135 -0.1527  0.2307 -0.5295
   24SAPC   O14 3130   3.437   1.757  11.068 -0.1263  0.2086 -0.0269
   24SAPC   O12 3131   3.553   1.728  11.284  0.2644  0.5946  0.3466
   24SAPC   O11 3132   3.685   1.733  11.079  0.0467  0.7979 -0.1095
   24SAPC    C1 3133   3.796   1.651  11.061 -0.3871 -0.4771 -0.2391
   24SAPC    HA 3134   3.884   1.719  11.074 -0.0164 -1.2424  1.3761
   24SAPC    HB 3135   3.808   1.576  11.142  0.3237 -0.1633 -0.0489
   24SAPC    C2 3136   3.814   1.593  10.922 -0.2759  0.0430  0.2129
   24SAPC    HS 3137   3.923   1.578  10.908 -0.6454 -2.1601 -0.5520
   24SAPC   O21 3138   3.760   1.676  10.824 -0.0274 -0.1179  0.1069
   24SAPC   C21 3139   3.826   1.786  10.810  0.2313  0.2758 -0.4116
   24SAPC   O22 3140   3.935   1.809  10.846 -0.2644  0.0142  0.1586
   24SAPC   C22 3141   3.738   1.882  10.727  0.3968  0.1403 -0.1938
   24SAPC   H2R 3142   3.635   1.868  10.765  0.3348  2.5359  0.5974
   24SAPC   H2S 3143   3.771   1.986  10.749  1.1384  0.0575 -0.8630
   24SAPC    C3 3144   3.739   1.453  10.915  0.7379  0.8792  0.8563
   24SAPC    HX 3145   3.629   1.463  10.911  0.8527  1.5418 -3.2191
   24SAPC    HY 3146   3.761   1.402  11.011  1.5898 -0.3954 -0.0101
   24SAPC   O31 3147   3.774   1.375  10.797  0.7061 -0.0352  0.5110
   24SAPC   C31 3148   3.895   1.330  10.776  0.9047 -0.0840  0.5166
   24SAPC   O32 3149   3.990   1.337  10.853  0.2559 -0.5710  0.3217
   24SAPC   C32 3150   3.900   1.251  10.644  0.0684 -1.0690  0.1792
   24SAPC   H2X 3151   3.805   1.195  10.656  0.0519 -1.1514 -0.3413
   24SAPC   H2Y 3152   3.986   1.183  10.658 -1.2979 -2.5253  1.7139
   24SAPC   C23 3153   3.743   1.853  10.577  0.3616  0.3038 -0.0176
   24SAPC   H3R 3154   3.711   1.749  10.558 -1.5955  0.9413 -0.3346
   24SAPC   H3S 3155   3.847   1.859  10.540  0.2019  1.2752 -0.3347
   24SAPC   C24 3156   3.639   1.944  10.503  0.6123 -0.7549  0.6142
   24SAPC   H4R 3157   3.536   1.947  10.545  0.8193  1.7429  1.0274
   24SAPC   H4S 3158   3.634   1.903  10.400 -1.0802 -1.4761  0.9745
   24SAPC   C25 3159   3.674   2.089  10.488 -0.6167  0.2690 -0.0741
   24SAPC   H5R 3160   3.702   2.144  10.579  0.0140  0.6931 -0.5203
   24SAPC   C26 3161   3.665   2.161  10.370 -0.2827 -0.3403 -0.3939
   24SAPC   H6R 3162   3.684   2.269  10.366  0.9277 -0.6241 -2.4827
   24SAPC   C27 3163   3.605   2.103  10.244 -0.4610 -0.4104 -0.3142
   24SAPC   H7R 3164   3.510   2.052  10.270 -0.7603  0.6122  0.6419
   24SAPC   H7S 3165   3.669   2.022  10.205  0.3894 -0.6519  1.5339
   24SAPC   C28 3166   3.580   2.177  10.117 -0.7599 -0.3112 -0.1326
   24SAPC   H8R 3167   3.662   2.241  10.081 -0.8044 -0.4486 -0.4833
   24SAPC   C29 3168   3.474   2.173  10.032 -0.0069 -0.0611 -0.0084
   24SAPC   H9R 3169   3.465   2.225   9.936 -2.8958 -0.7521 -0.1397
   24SAPC  C210 3170   3.359   2.090  10.066  0.2460  0.5255 -0.0776
   24SAPC  H10R 3171   3.336   2.108  10.173 -5.0810  0.3007 -1.0222
   24SAPC  H10S 3172   3.379   1.983  10.047  0.9899  0.4419  1.1419
   24SAPC  C211 3173   3.229   2.118  10.000  0.0159  0.7089  0.3384
   24SAPC  H11R 3174   3.157   2.150  10.076  0.0272  1.5823 -0.0103
   24SAPC  C212 3175   3.195   2.108   9.874  0.3901 -0.0763 -0.1051
   24SAPC  H12R 3176   3.089   2.130   9.855 -0.1564  0.0230  2.7647
   24SAPC  C213 3177   3.277   2.065   9.755  0.2574  0.2317  0.4555
   24SAPC  H13R 3178   3.354   1.993   9.788 -0.2559 -0.4758  0.1308
   24SAPC  H13S 3179   3.321   2.148   9.696 -2.4659  1.5744  0.2464
   24SAPC  C214 3180   3.193   1.969   9.676 -0.0214 -0.0303  0.1680
   24SAPC  H14R 3181   3.175   1.874   9.729 -0.8681 -1.6419 -2.8851
   24SAPC  C215 3182   3.163   1.982   9.542  0.0323 -0.3595  0.1862
   24SAPC  H15R 3183   3.106   1.902   9.491  2.4362 -1.1504 -1.3816
   24SAPC  C216 3184   3.195   2.095   9.447  0.3242 -0.1333  0.1416
   24SAPC  H16R 3185   3.304   2.098   9.428  0.6795  0.3711  2.1474
   24SAPC  H16S 3186   3.165   2.187   9.501 -1.2981  0.5774 -1.9100
   24SAPC  C217 3187   3.129   2.096   9.310  0.6248 -0.2760 -0.3279
   24SAPC  H17R 3188   3.021   2.076   9.324  0.2893  2.2386  1.1166
   24SAPC  H17S 3189   3.167   2.018   9.241  1.1130  0.5191 -0.9710
   24SAPC  C218 3190   3.123   2.240   9.252 -0.0387  0.4578  0.2832
   24SAPC  H18R 3191   3.224   2.284   9.256  1.5347 -2.6297 -2.8120
   24SAPC  H18S 3192   3.047   2.296   9.310 -0.0954  2.4149 -1.5990
   24SAPC  C219 3193   3.083   2.234   9.106 -0.2185  0.4317  0.0846
   24SAPC  H19R 3194   3.139   2.148   9.063 -2.2155 -1.7899  1.8190
   24SAPC  H19S 3195   3.113   2.331   9.061  1.0889  0.8263  1.7632
   24SAPC  C220 3196   2.935   2.220   9.095  0.2492  0.3493  0.1111
   24SAPC  H20R 3197   2.879   2.299   9.149  0.9217 -0.7366  2.4470
   24SAPC  H20S 3198   2.899   2.134   9.155 -1.1831  0.7899 -0.0827
   24SAPC  H20T 3199   2.902   2.207   8.989 -0.0570  0.4221  0.1968
   24SAPC   C33 3200   3.892   1.337  10.512 -0.2285  0.0063  0.6146
   24SAPC   H3X 3201   3.926   1.264  10.435  0.5884 -0.2772  1.2504
   24SAPC   H3Y 3202   3.975   1.410  10.510  0.5290 -0.7940  2.4776
   24SAPC   C34 3203   3.758   1.400  10.481 -1.0173  0.6022  0.0051
   24SAPC   H4X 3204   3.730   1.474  10.559  0.6052 -0.6988  1.8887
   24SAPC   H4Y 3205   3.680   1.321  10.484 -0.7032  0.3086  0.7603
   24SAPC   C35 3206   3.764   1.454  10.341 -0.1538  0.5816  0.8104
   24SAPC   H5X 3207   3.660   1.462  10.303 -0.6319 -1.9503  1.4532
   24SAPC   H5Y 3208   3.836   1.405  10.272 -0.8177  1.6457 -0.6550
   24SAPC   C36 3209   3.823   1.599  10.331 -0.2562 -0.0395 -0.8102
   24SAPC   H6X 3210   3.918   1.591  10.387 -1.4725 -1.6192  1.1096
   24SAPC   H6Y 3211   3.759   1.675  10.381  1.9205 -1.2783  4.1659
   24SAPC   C37 3212   3.846   1.639  10.189 -0.8288  0.5230 -0.6226
   24SAPC   H7X 3213   3.907   1.564  10.135 -0.6775  0.3400 -0.1997
   24SAPC   H7Y 3214   3.899   1.736  10.204 -0.3930 -0.0618  1.8306
   24SAPC   C38 3215   3.716   1.676  10.112 -0.5536  0.0021  0.0612
   24SAPC   H8X 3216   3.667   1.758  10.169 -0.0308  1.8863 -2.1228
   24SAPC   H8Y 3217   3.653   1.585  10.113 -2.0854  0.9763 -3.3236
   24SAPC   C39 3218   3.745   1.715   9.970 -0.1768  0.0819 -0.6004
   24SAPC   H9X 3219   3.774   1.623   9.916 -0.5321  0.1267 -0.8713
   24SAPC   H9Y 3220   3.825   1.792   9.972 -1.7826  1.7620  0.1934
   24SAPC  C310 3221   3.618   1.773   9.903 -0.2040 -0.2341 -0.9358
   24SAPC  H10X 3222   3.573   1.844   9.975  2.8432  0.8450 -0.0127
   24SAPC  H10Y 3223   3.545   1.690   9.889  2.0043 -2.6864  1.5389
   24SAPC  C311 3224   3.655   1.827   9.767  0.4458  0.6508 -0.0764
   24SAPC  H11X 3225   3.748   1.887   9.778 -0.4381  2.2885 -1.3225
   24SAPC  H11Y 3226   3.571   1.893   9.735 -0.0779  1.0357  2.0161
   24SAPC  C312 3227   3.676   1.718   9.660  0.4569  0.0537  0.0298
   24SAPC  H12X 3228   3.698   1.621   9.709  0.6994 -0.9293 -1.9657
   24SAPC  H12Y 3229   3.760   1.755   9.598 -0.3525  0.9110 -0.5686
   24SAPC  C313 3230   3.559   1.705   9.571  0.4508 -0.7730 -0.2276
   24SAPC  H13X 3231   3.469   1.722   9.634  0.8957 -3.3504  1.1544
   24SAPC  H13Y 3232   3.549   1.603   9.528  0.4025 -1.7101  1.9206
   24SAPC  C314 3233   3.556   1.806   9.459  0.4537  0.4565  1.1591
   24SAPC  H14X 3234   3.658   1.821   9.418 -0.0518 -0.0763 -0.3222
   24SAPC  H14Y 3235   3.531   1.904   9.504  0.9130 -0.2470  2.9902
   24SAPC  C315 3236   3.453   1.774   9.348  1.0186  0.3054  0.1933
   24SAPC  H15X 3237   3.358   1.758   9.405  1.1070  1.2957  0.6187
   24SAPC  H15Y 3238   3.478   1.678   9.298 -0.5480  0.9877 -1.9704
   24SAPC  C316 3239   3.445   1.872   9.231  0.6762 -0.5354 -0.8263
   24SAPC  H16X 3240   3.548   1.874   9.191  0.0744 -0.4539 -2.3784
   24SAPC  H16Y 3241   3.428   1.974   9.271  0.2140 -0.3491 -1.4949
   24SAPC  C317 3242   3.337   1.824   9.128  0.1967  0.6564  0.0619
   24SAPC  H17X 3243   3.243   1.833   9.186  0.1451 -1.5116  0.3544
   24SAPC  H17Y 3244   3.353   1.715   9.112 -0.5850  0.2261  2.0060
   24SAPC  C318 3245   3.332   1.888   8.992 -0.5019 -0.7020 -0.3431
   24SAPC  H18X 3246   3.227   1.884   8.955 -0.0625  0.8606 -1.8335
   24SAPC  H18Y 3247   3.392   1.834   8.915 -1.7187 -1.3727 -0.8323
   24SAPC  H18Z 3248   3.360   1.995   8.987  0.3184 -0.8139  1.4145
   25SAPC     N 3249   6.362   4.966   6.005 -0.0278  0.3036 -1.0208
   25SAPC   C12 3250   6.456   5.071   5.952  0.2166  0.4683  0.1207
   25SAPC  H12A 3251   6.492   5.032   5.858  0.0881 -2.4892  1.2339
   25SAPC  H12B 3252   6.542   5.065   6.017 -0.1114  0.8013  0.5843
   25SAPC   C13 3253   6.348   4.998   6.154 -0.2918  0.1636  0.3761
   25SAPC  H13A 3254   6.263   4.944   6.194 -1.2300  2.3269  1.3877
   25SAPC  H13B 3255   6.430   4.963   6.214  1.6818  3.0228 -0.5802
   25SAPC  H13C 3256   6.335   5.104   6.165  0.3531  0.3919 -0.9394
   25SAPC   C14 3257   6.234   4.972   5.935 -0.0143  0.0082 -0.2188
   25SAPC  H14A 3258   6.168   4.897   5.976  0.3514 -0.5979 -0.7534
   25SAPC  H14B 3259   6.179   5.065   5.938 -0.1587  0.0235 -2.5058
   25SAPC  H14C 3260   6.238   4.959   5.828 -1.1651  0.9519 -0.3937
   25SAPC   C15 3261   6.421   4.821   5.984 -0.5272 -0.1360 -0.5827
   25SAPC  H15A 3262   6.436   4.800   5.879  1.0501 -2.4358  0.0614
   25SAPC  H15B 3263   6.521   4.815   6.024 -0.3803 -1.2252 -1.1163
   25SAPC  H15C 3264   6.358   4.759   6.047 -1.8702  3.0463  1.3312
   25SAPC   C11 3265   6.421   5.222   5.958 -0.8277 -0.0043  0.7776
   25SAPC  H11A 3266   6.331   5.235   5.894 -1.0952 -0.8881  0.9795
   25SAPC  H11B 3267   6.508   5.268   5.905 -1.2761 -1.1289 -0.9812
   25SAPC     P 3268   6.310   5.395   6.106  0.4405  0.3726 -0.1060
   25SAPC   O13 3269   6.329   5.490   5.996 -0.7925  0.4206 -0.1684
   25SAPC   O14 3270   6.173   5.340   6.122 -0.0312 -0.4253  0.2609
   25SAPC   O12 3271   6.407   5.271   6.092  0.4909 -0.4761 -0.2553
   25SAPC   O11 3272   6.360   5.461   6.241  0.2521  0.0883  0.2019
   25SAPC    C1 3273   6.464   5.552   6.254 -0.3176 -0.0889 -0.3187
   25SAPC    HA 3274   6.561   5.499   6.246 -1.7467 -2.9982  1.0352
   25SAPC    HB 3275   6.462   5.624   6.170 -0.2723 -1.4771 -1.5246
   25SAPC    C2 3276   6.433   5.640   6.378 -0.4038 -0.2502 -0.8032
   25SAPC    HS 3277   6.504   5.726   6.384  0.8565 -1.2975 -0.4613
   25SAPC   O21 3278   6.455   5.554   6.495  0.5056 -0.1054  0.0811
   25SAPC   C21 3279   6.576   5.540   6.531  0.1818  0.6379  0.1326
   25SAPC   O22 3280   6.677   5.555   6.461  0.1475  0.0592  0.5858
   25SAPC   C22 3281   6.583   5.488   6.676  0.5776  0.5427  0.2388
   25SAPC   H2R 3282   6.536   5.387   6.680 -1.0667  1.2578 -0.5676
   25SAPC   H2S 3283   6.689   5.479   6.710 -0.6544  0.1710  4.3082
   25SAPC    C3 3284   6.283   5.697   6.370 -0.0802 -0.2027 -0.1547
   25SAPC    HX 3285   6.208   5.618   6.348 -0.0456  0.3337 -2.3346
   25SAPC    HY 3286   6.290   5.759   6.278  0.9206 -1.1369 -0.7138
   25SAPC   O31 3287   6.256   5.783   6.483 -0.0244  0.0822 -0.5185
   25SAPC   C31 3288   6.205   5.717   6.594 -0.5347 -0.0484 -0.5127
   25SAPC   O32 3289   6.186   5.596   6.599  0.4958 -0.2261 -0.1659
   25SAPC   C32 3290   6.191   5.810   6.714 -0.3977 -0.3536  0.0952
   25SAPC   H2X 3291   6.108   5.881   6.698 -0.5754 -0.6891 -0.4947
   25SAPC   H2Y 3292   6.281   5.874   6.710 -0.2270 -0.5517  0.7211
   25SAPC   C23 3293   6.511   5.584   6.777 -0.7686  0.5305  0.1970
   25SAPC   H3R 3294   6.401   5.577   6.759 -0.8389  0.1957  0.7487
   25SAPC   H3S 3295   6.544   5.688   6.754 -1.6975  0.2174 -2.7975
   25SAPC   C24 3296   6.552   5.560   6.926  0.1558  0.4377 -1.1014
   25SAPC   H4R 3297   6.517   5.640   6.995 -3.3369 -3.0474  1.3942
   25SAPC   H4S 3298   6.662   5.552   6.928 -0.0761 -3.5797  1.3980
   25SAPC   C25 3299   6.478   5.428   6.968 -0.0622  0.0849  0.1232
   25SAPC   H5R 3300   6.477   5.354   6.886  0.9119  1.0586 -0.7818
   25SAPC   C26 3301   6.415   5.406   7.088 -0.6540  0.3464 -0.1935
   25SAPC   H6R 3302   6.364   5.309   7.099 -0.2301  0.2305  0.8784
   25SAPC   C27 3303   6.400   5.509   7.196 -0.9997 -0.2174  0.0598
   25SAPC   H7R 3304   6.294   5.519   7.229 -1.0032 -2.6559  0.9166
   25SAPC   H7S 3305   6.429   5.614   7.173 -2.7951  0.4902  0.8819
   25SAPC   C28 3306   6.482   5.466   7.325  0.5227 -0.2170 -0.1632
   25SAPC   H8R 3307   6.579   5.515   7.344 -0.5145  0.5936  3.3149
   25SAPC   C29 3308   6.442   5.381   7.419 -0.4014  1.7561 -0.7205
   25SAPC   H9R 3309   6.515   5.344   7.493 -1.0844 -1.5709 -1.6067
   25SAPC  C210 3310   6.306   5.310   7.420 -0.5006 -0.4348  0.6944
   25SAPC  H10R 3311   6.295   5.258   7.322  1.9477 -0.4890  0.4128
   25SAPC  H10S 3312   6.229   5.389   7.412  0.7288  0.8760  1.5254
   25SAPC  C211 3313   6.274   5.204   7.517  0.3650  0.2720  0.6908
   25SAPC  H11R 3314   6.254   5.104   7.478 -2.4339  0.9355  0.3032
   25SAPC  C212 3315   6.264   5.214   7.651 -0.6019 -0.1425 -0.6862
   25SAPC  H12R 3316   6.260   5.123   7.712  1.1188 -0.4870 -1.0450
   25SAPC  C213 3317   6.274   5.341   7.732  0.2608 -0.1246 -0.1093
   25SAPC  H13R 3318   6.211   5.324   7.822 -0.9907 -1.6706 -1.2277
   25SAPC  H13S 3319   6.247   5.434   7.679  3.0327 -0.6855 -2.6384
   25SAPC  C214 3320   6.417   5.371   7.775  0.1636  1.2173 -0.0768
   25SAPC  H14R 3321   6.489   5.319   7.710 -0.0947  0.8534 -0.0764
   25SAPC  C215 3322   6.444   5.428   7.892 -0.3094 -0.3159  0.3356
   25SAPC  H15R 3323   6.549   5.434   7.925 -0.0772 -0.8176 -0.2881
   25SAPC  C216 3324   6.344   5.487   7.987  0.9582  0.9885 -0.5326
   25SAPC  H16R 3325   6.328   5.415   8.070 -1.3448  2.8730  0.7127
   25SAPC  H16S 3326   6.242   5.505   7.948 -0.3909 -0.1983  2.3002
   25SAPC  C217 3327   6.387   5.624   8.054 -0.2455  0.3440 -0.0567
   25SAPC  H17R 3328   6.466   5.617   8.132  0.0675 -0.2378 -0.4229
   25SAPC  H17S 3329   6.296   5.653   8.111 -0.7666 -1.0810 -0.1257
   25SAPC  C218 3330   6.425   5.726   7.951  0.4749 -0.1657 -0.1507
   25SAPC  H18R 3331   6.354   5.720   7.866 -1.9557  2.1259  1.6329
   25SAPC  H18S 3332   6.524   5.709   7.903  0.5412 -1.1550  0.3109
   25SAPC  C219 3333   6.417   5.862   8.008  0.0989 -0.0993  0.0208
   25SAPC  H19R 3334   6.312   5.894   8.025  0.1537 -0.5416  1.2793
   25SAPC  H19S 3335   6.453   5.927   7.926  0.6535 -1.8643 -1.1576
   25SAPC  C220 3336   6.501   5.891   8.132 -1.0404  0.0434  0.1138
   25SAPC  H20R 3337   6.448   5.854   8.223  0.6948 -1.4065  0.5684
   25SAPC  H20S 3338   6.503   6.002   8.136 -0.0091  0.0855 -1.1224
   25SAPC  H20T 3339   6.601   5.843   8.120 -2.0474 -2.0126 -0.3120
   25SAPC   C33 3340   6.181   5.738   6.849 -0.4242  0.1553  0.0062
   25SAPC   H3X 3341   6.276   5.684   6.873  0.3276  1.1010 -0.7855
   25SAPC   H3Y 3342   6.100   5.662   6.851 -0.9181  0.6648 -0.4206
   25SAPC   C34 3343   6.153   5.842   6.965 -0.6764  0.1706 -0.1018
   25SAPC   H4X 3344   6.055   5.890   6.942 -2.1452 -0.6294  3.9950
   25SAPC   H4Y 3345   6.234   5.918   6.963 -1.0678  0.5792 -0.8179
   25SAPC   C35 3346   6.156   5.767   7.095 -0.5360  0.5417 -0.2434
   25SAPC   H5X 3347   6.251   5.718   7.125 -0.7033  0.4507  0.1343
   25SAPC   H5Y 3348   6.076   5.690   7.087 -0.0709  0.1210 -0.8798
   25SAPC   C36 3349   6.126   5.852   7.224  0.2216  0.4169 -0.6159
   25SAPC   H6X 3350   6.023   5.894   7.214 -0.7713 -2.1953 -1.5355
   25SAPC   H6Y 3351   6.210   5.924   7.230  2.3705 -2.1815  2.0102
   25SAPC   C37 3352   6.138   5.762   7.353  0.0721 -0.8677 -0.0766
   25SAPC   H7X 3353   6.238   5.722   7.328 -0.2153 -0.3325 -2.1508
   25SAPC   H7Y 3354   6.058   5.685   7.347 -2.5957  1.5928  1.9055
   25SAPC   C38 3355   6.140   5.831   7.487 -0.3155  0.3423 -0.0164
   25SAPC   H8X 3356   6.061   5.909   7.496 -0.5268  0.6416 -3.7372
   25SAPC   H8Y 3357   6.232   5.892   7.503 -1.2855  1.5926  0.9085
   25SAPC   C39 3358   6.134   5.733   7.603 -0.2660 -0.4354 -0.1794
   25SAPC   H9X 3359   6.219   5.662   7.607 -0.2056 -0.3001  0.9563
   25SAPC   H9Y 3360   6.040   5.675   7.596  0.9554 -2.3043 -1.6890
   25SAPC  C310 3361   6.140   5.803   7.747 -0.5190 -0.1575  0.5996
   25SAPC  H10X 3362   6.229   5.869   7.755 -1.4118  1.0386  0.7907
   25SAPC  H10Y 3363   6.144   5.722   7.823  0.7161  0.8397  1.6020
   25SAPC  C311 3364   6.016   5.901   7.769 -0.6346 -0.4265 -0.2503
   25SAPC  H11X 3365   5.924   5.839   7.776 -0.5178 -0.4122  1.5851
   25SAPC  H11Y 3366   6.012   5.957   7.673 -1.4731 -0.3453 -0.1719
   25SAPC  C312 3367   6.018   5.983   7.897  0.1569 -0.3608 -0.0090
   25SAPC  H12X 3368   6.020   5.923   7.991  1.8058 -0.4368 -0.0752
   25SAPC  H12Y 3369   5.923   6.039   7.901  0.3660  0.1987 -2.1519
   25SAPC  C313 3370   6.126   6.096   7.903  0.6229 -0.5550 -0.2011
   25SAPC  H13X 3371   6.130   6.153   7.807 -0.7469 -0.3423 -0.1473
   25SAPC  H13Y 3372   6.224   6.045   7.896 -0.1894 -1.9304 -1.8844
   25SAPC  C314 3373   6.116   6.183   8.029 -0.2031 -0.6113 -0.4746
   25SAPC  H14X 3374   6.130   6.116   8.117 -1.5866 -1.0767 -0.5944
   25SAPC  H14Y 3375   6.018   6.237   8.034 -0.1289 -0.4747 -0.5208
   25SAPC  C315 3376   6.221   6.298   8.033  0.3154 -0.2030 -0.3736
   25SAPC  H15X 3377   6.180   6.385   7.978  1.6168  0.3659 -0.4641
   25SAPC  H15Y 3378   6.311   6.260   7.981 -0.4125 -1.4747 -0.7282
   25SAPC  C316 3379   6.255   6.349   8.171  0.5875  1.2784  0.5341
   25SAPC  H16X 3380   6.273   6.259   8.232 -0.8869 -0.2561 -1.2412
   25SAPC  H16Y 3381   6.173   6.407   8.219  0.1467  0.4076  0.8404
   25SAPC  C317 3382   6.366   6.453   8.166 -0.1680 -0.3866  0.1328
   25SAPC  H17X 3383   6.316   6.550   8.148  0.2515 -0.6454 -2.5758
   25SAPC  H17Y 3384   6.427   6.431   8.076 -1.0644 -1.4267 -0.2216
   25SAPC  C318 3385   6.457   6.455   8.288 -0.0060 -0.2741  0.6249
   25SAPC  H18X 3386   6.548   6.519   8.278  0.0009 -0.2455  0.8661
   25SAPC  H18Y 3387   6.500   6.361   8.330  0.0951 -0.4728  0.0786
   25SAPC  H18Z 3388   6.400   6.497   8.374  1.5404  0.8534  1.1146
   26SAPC     N 3389   5.091   0.210   5.820 -0.4947 -0.0115  0.4658
   26SAPC   C12 3390   5.180   0.218   5.939 -0.4042 -0.5525 -0.6881
   26SAPC  H12A 3391   5.261   0.150   5.915 -0.8979 -0.7104 -1.9327
   26SAPC  H12B 3392   5.130   0.175   6.025  1.2478 -0.3581  0.3929
   26SAPC   C13 3393   5.051   0.064   5.819  0.7800 -0.2784  0.4266
   26SAPC  H13A 3394   4.969   0.045   5.750  0.9074  0.9603 -0.0805
   26SAPC  H13B 3395   5.133   0.004   5.782 -0.0374 -1.0117 -0.2294
   26SAPC  H13C 3396   5.016   0.032   5.916  2.0710 -3.5812 -0.1243
   26SAPC   C14 3397   4.969   0.291   5.829 -0.4203  0.0817 -0.6321
   26SAPC  H14A 3398   4.901   0.287   5.745 -3.1485  0.1862  1.4890
   26SAPC  H14B 3399   4.903   0.265   5.911  0.0620 -1.8960 -0.8454
   26SAPC  H14C 3400   4.999   0.392   5.853  0.9014 -0.9419  2.3741
   26SAPC   C15 3401   5.152   0.240   5.689  0.3197 -0.2482  0.3122
   26SAPC  H15A 3402   5.098   0.204   5.603 -0.5951 -0.9771  1.1862
   26SAPC  H15B 3403   5.157   0.348   5.676 -0.9044 -0.2955 -0.6078
   26SAPC  H15C 3404   5.250   0.199   5.672 -0.2229 -1.2003 -0.5486
   26SAPC   C11 3405   5.233   0.363   5.990  0.2318  0.3692 -0.9847
   26SAPC  H11A 3406   5.281   0.406   5.899 -1.9117  0.6666 -2.0313
   26SAPC  H11B 3407   5.302   0.350   6.075  0.6518  1.5113 -1.1315
   26SAPC     P 3408   5.128   0.597   6.044 -0.1462  0.1059 -0.0245
   26SAPC   O13 3409   5.230   0.633   5.943  0.3294 -0.0942  0.3000
   26SAPC   O14 3410   4.987   0.637   6.025  0.3007  0.3504 -0.2760
   26SAPC   O12 3411   5.125   0.440   6.053  0.4996 -0.2895  0.5738
   26SAPC   O11 3412   5.174   0.648   6.186 -0.1578 -0.2734  0.2048
   26SAPC    C1 3413   5.299   0.680   6.233  0.0834  0.5701  0.3972
   26SAPC    HA 3414   5.358   0.739   6.161  0.8131 -0.3673  0.2087
   26SAPC    HB 3415   5.293   0.750   6.319 -1.5241 -0.2013  0.9340
   26SAPC    C2 3416   5.386   0.551   6.278  0.7046  0.1888  0.5776
   26SAPC    HS 3417   5.402   0.490   6.186  1.2092 -1.2512  1.5880
   26SAPC   O21 3418   5.323   0.480   6.383  0.1979  0.4635 -0.0066
   26SAPC   C21 3419   5.369   0.360   6.410  0.5420  0.0424 -0.3899
   26SAPC   O22 3420   5.437   0.292   6.333 -0.2431  0.2701 -0.6822
   26SAPC   C22 3421   5.319   0.327   6.550 -0.4396  0.5458 -0.2254
   26SAPC   H2R 3422   5.219   0.369   6.574  0.1015  1.7787 -0.1284
   26SAPC   H2S 3423   5.301   0.217   6.555 -1.7175  0.6923 -1.1537
   26SAPC    C3 3424   5.530   0.587   6.323  0.0513  0.0039 -0.6335
   26SAPC    HX 3425   5.566   0.650   6.239  1.8449  0.1083  0.1891
   26SAPC    HY 3426   5.590   0.494   6.330  0.1940  0.3253  3.4218
   26SAPC   O31 3427   5.542   0.662   6.454  0.0384  1.0792  0.3290
   26SAPC   C31 3428   5.660   0.716   6.468 -0.3325 -0.2422  0.5481
   26SAPC   O32 3429   5.757   0.707   6.398  0.2092  0.3721 -0.3287
   26SAPC   C32 3430   5.663   0.790   6.604  0.7741  0.5135  0.6356
   26SAPC   H2X 3431   5.558   0.824   6.622  0.1546 -1.2983  0.5106
   26SAPC   H2Y 3432   5.721   0.884   6.593  0.4958  0.4534 -1.5342
   26SAPC   C23 3433   5.415   0.372   6.653 -0.6388 -1.0480 -0.6081
   26SAPC   H3R 3434   5.368   0.372   6.754 -0.3209 -0.1443 -0.4516
   26SAPC   H3S 3435   5.445   0.476   6.628  1.0137 -1.0459  1.2395
   26SAPC   C24 3436   5.531   0.278   6.668 -0.5629  0.5545  0.2353
   26SAPC   H4R 3437   5.563   0.247   6.567 -1.4967  0.6580 -0.0895
   26SAPC   H4S 3438   5.486   0.186   6.710  1.2470 -0.3561  0.2285
   26SAPC   C25 3439   5.656   0.330   6.735  0.6932 -0.5105  0.3544
   26SAPC   H5R 3440   5.725   0.379   6.665 -1.5351  2.0459 -0.1196
   26SAPC   C26 3441   5.697   0.298   6.862  0.6863  0.7021  0.1200
   26SAPC   H6R 3442   5.785   0.345   6.908 -0.0832  3.0646 -0.6973
   26SAPC   C27 3443   5.625   0.212   6.963 -0.2043 -0.0279 -0.2428
   26SAPC   H7R 3444   5.698   0.139   7.003  0.4322  0.3453 -0.7144
   26SAPC   H7S 3445   5.548   0.143   6.925 -1.0650  0.7936 -0.0212
   26SAPC   C28 3446   5.547   0.273   7.072 -0.3030  0.6575  0.4074
   26SAPC   H8R 3447   5.439   0.281   7.053 -0.3439  2.8451  1.4553
   26SAPC   C29 3448   5.592   0.311   7.192 -0.0828  0.5355  0.1004
   26SAPC   H9R 3449   5.519   0.349   7.264 -2.2789  1.2207 -2.4197
   26SAPC  C210 3450   5.733   0.297   7.235 -0.2913 -1.0252  0.6980
   26SAPC  H10R 3451   5.764   0.395   7.277 -0.3175 -0.4272 -0.6543
   26SAPC  H10S 3452   5.803   0.287   7.150 -1.2302  1.7961 -0.4448
   26SAPC  C211 3453   5.757   0.186   7.336 -0.6801 -0.2808 -0.4019
   26SAPC  H11R 3454   5.752   0.085   7.293 -0.1031 -0.0679 -0.9817
   26SAPC  C212 3455   5.788   0.194   7.466  0.4146  0.5493 -0.2406
   26SAPC  H12R 3456   5.818   0.102   7.518 -0.8366 -0.3568 -1.0998
   26SAPC  C213 3457   5.788   0.314   7.556 -0.3862  0.2893  0.1833
   26SAPC  H13R 3458   5.735   0.400   7.510 -1.6089 -0.0748  0.8679
   26SAPC  H13S 3459   5.893   0.340   7.578 -0.0618  0.7108 -1.8371
   26SAPC  C214 3460   5.695   0.295   7.677  0.0262 -0.3393  0.7257
   26SAPC  H14R 3461   5.602   0.354   7.674  0.5992  0.5843  0.6802
   26SAPC  C215 3462   5.723   0.214   7.781  0.3186  0.0202 -0.1909
   26SAPC  H15R 3463   5.651   0.207   7.864 -0.2419 -0.5098 -0.7172
   26SAPC  C216 3464   5.847   0.129   7.811  0.2644  0.5193  0.1474
   26SAPC  H16R 3465   5.883   0.084   7.716  2.0361  2.4351 -0.1384
   26SAPC  H16S 3466   5.822   0.044   7.877 -0.3670  1.1824  0.7640
   26SAPC  C217 3467   5.957   0.219   7.874  0.4823  0.4810  0.1157
   26SAPC  H17R 3468   5.927   0.251   7.977 -0.9057  0.7736 -0.3635
   26SAPC  H17S 3469   5.985   0.314   7.824 -0.8633  0.5927 -0.4436
   26SAPC  C218 3470   6.087   0.136   7.890  0.1199 -0.0070 -0.2235
   26SAPC  H18R 3471   6.116   0.122   7.784 -0.9530 -0.1661 -0.5057
   26SAPC  H18S 3472   6.056   0.038   7.932 -1.4738  0.4364 -0.2975
   26SAPC  C219 3473   6.201   0.208   7.964 -0.1088  0.6182 -0.0710
   26SAPC  H19R 3474   6.181   0.314   7.938 -1.2567  0.8495  1.6742
   26SAPC  H19S 3475   6.299   0.176   7.925 -1.0023  0.4399 -2.2271
   26SAPC  C220 3476   6.198   0.189   8.115 -0.0893 -0.0743  0.6076
   26SAPC  H20R 3477   6.099   0.212   8.160 -0.6172  1.5107 -1.2940
   26SAPC  H20S 3478   6.274   0.260   8.155 -0.3877 -0.5536  2.0797
   26SAPC  H20T 3479   6.212   0.080   8.133 -0.6545 -0.0600  1.1592
   26SAPC   C33 3480   5.713   0.707   6.723 -0.1781 -0.1363 -0.2482
   26SAPC   H3X 3481   5.820   0.679   6.718  0.5527  2.0827  1.8457
   26SAPC   H3Y 3482   5.642   0.623   6.740  1.2211 -0.9135  1.9875
   26SAPC   C34 3483   5.698   0.797   6.856 -0.1696 -0.1225 -0.1662
   26SAPC   H4X 3484   5.602   0.852   6.869 -0.7852 -1.2419  0.1215
   26SAPC   H4Y 3485   5.780   0.871   6.841  0.7238 -0.9350  0.6600
   26SAPC   C35 3486   5.724   0.711   6.978 -0.3985  0.5718  0.6916
   26SAPC   H5X 3487   5.819   0.656   6.956 -0.4304  0.3874  1.0098
   26SAPC   H5Y 3488   5.654   0.627   6.998 -0.4574  0.2589 -0.7641
   26SAPC   C36 3489   5.759   0.787   7.105 -0.0174  0.0585 -0.0184
   26SAPC   H6X 3490   5.660   0.810   7.150 -0.4902 -0.8442 -0.5768
   26SAPC   H6Y 3491   5.802   0.883   7.068 -0.7504  1.2970  2.2647
   26SAPC   C37 3492   5.850   0.704   7.198  0.3202 -0.2362 -0.0469
   26SAPC   H7X 3493   5.942   0.672   7.145 -0.1869 -0.2082 -0.9591
   26SAPC   H7Y 3494   5.795   0.614   7.232 -0.1412 -0.2976 -0.9394
   26SAPC   C38 3495   5.887   0.781   7.330 -0.4159  0.0757  0.3402
   26SAPC   H8X 3496   5.796   0.838   7.359 -0.3680 -0.3798  1.4327
   26SAPC   H8Y 3497   5.976   0.846   7.313 -0.4243 -0.7687 -3.1540
   26SAPC   C39 3498   5.914   0.686   7.441 -0.0367 -0.6461  0.1517
   26SAPC   H9X 3499   5.992   0.611   7.415  1.0800 -0.0367  1.6497
   26SAPC   H9Y 3500   5.822   0.626   7.454 -0.1352 -0.7473 -1.0034
   26SAPC  C310 3501   5.962   0.756   7.568 -0.4342 -0.2804  0.2026
   26SAPC  H10X 3502   5.883   0.833   7.586 -1.3419 -1.2109  0.2816
   26SAPC  H10Y 3503   6.066   0.788   7.548  0.0197 -2.0518 -0.3888
   26SAPC  C311 3504   5.956   0.652   7.689 -0.1557  0.3900 -0.1184
   26SAPC  H11X 3505   6.010   0.558   7.665  0.2067  0.0954  1.8431
   26SAPC  H11Y 3506   5.852   0.617   7.705  0.6348 -1.4633  1.1631
   26SAPC  C312 3507   6.017   0.721   7.813 -0.5953 -0.5639 -0.6595
   26SAPC  H12X 3508   5.992   0.827   7.835  0.2051 -0.4777 -0.1517
   26SAPC  H12Y 3509   6.123   0.727   7.780 -0.8477  1.9786 -1.1065
   26SAPC  C313 3510   6.003   0.640   7.952  0.1391 -1.0767  0.5077
   26SAPC  H13X 3511   6.060   0.544   7.945  1.0153 -0.6849  2.0464
   26SAPC  H13Y 3512   5.899   0.602   7.959 -0.7965  0.8596 -2.1665
   26SAPC  C314 3513   6.036   0.729   8.075 -0.6092  0.1336 -0.5671
   26SAPC  H14X 3514   5.949   0.795   8.093 -0.7122 -0.4588  1.1961
   26SAPC  H14Y 3515   6.125   0.794   8.064 -1.1026  1.1163  1.1551
   26SAPC  C315 3516   6.039   0.654   8.213 -0.8290 -0.2174 -1.1193
   26SAPC  H15X 3517   6.120   0.578   8.219 -0.6073 -0.2263 -3.6594
   26SAPC  H15Y 3518   5.940   0.606   8.223 -0.0949 -1.5097  0.0403
   26SAPC  C316 3519   6.057   0.749   8.336  0.7563 -0.1622 -0.2186
   26SAPC  H16X 3520   5.958   0.799   8.335  1.7766  1.8960 -0.7104
   26SAPC  H16Y 3521   6.129   0.824   8.298 -0.2295  0.9913  0.1566
   26SAPC  C317 3522   6.109   0.683   8.466  0.3982 -0.1771  0.1179
   26SAPC  H17X 3523   6.194   0.620   8.431  1.4485  1.1856  0.1789
   26SAPC  H17Y 3524   6.023   0.626   8.507 -0.6551  3.0395  2.5667
   26SAPC  C318 3525   6.139   0.780   8.577  0.6521  0.4671 -0.1544
   26SAPC  H18X 3526   6.212   0.858   8.548  0.6387  0.7634  0.5866
   26SAPC  H18Y 3527   6.160   0.721   8.669  0.2180  0.2960 -0.1593
   26SAPC  H18Z 3528   6.045   0.835   8.600  1.2779  1.4460  0.1060
   27SAPC     N 3529   3.267   1.180   6.457 -0.1618  0.4758 -0.1536
   27SAPC   C12 3530   3.252   1.162   6.605 -0.1760 -0.7657 -0.1272
   27SAPC  H12A 3531   3.176   1.232   6.637 -0.4000 -0.4266 -1.3867
   27SAPC  H12B 3532   3.347   1.195   6.643  1.1433 -2.3978 -1.9435
   27SAPC   C13 3533   3.136   1.182   6.385 -0.3508 -0.0338  0.3896
   27SAPC  H13A 3534   3.098   1.081   6.391  1.7031 -0.7053  3.3377
   27SAPC  H13B 3535   3.061   1.247   6.429 -1.2502 -1.4848  1.0210
   27SAPC  H13C 3536   3.149   1.199   6.279  2.6413  1.3776  0.9310
   27SAPC   C14 3537   3.343   1.310   6.436 -0.0118  0.0509 -0.0860
   27SAPC  H14A 3538   3.272   1.386   6.466 -0.6103 -0.2266 -0.7734
   27SAPC  H14B 3539   3.433   1.324   6.493 -1.1565  1.8618  1.3476
   27SAPC  H14C 3540   3.370   1.328   6.333 -2.0112  3.4534 -0.1034
   27SAPC   C15 3541   3.349   1.064   6.401 -0.2926  0.0964 -0.3577
   27SAPC  H15A 3542   3.331   0.973   6.456 -0.8688  1.3057  1.5016
   27SAPC  H15B 3543   3.330   1.037   6.298 -2.8530  0.8830 -0.1345
   27SAPC  H15C 3544   3.452   1.097   6.403 -0.7294  1.4754  0.3127
   27SAPC   C11 3545   3.211   1.023   6.663 -0.0481  0.4683  0.3183
   27SAPC  H11A 3546   3.124   0.985   6.606  0.8215 -2.1520  0.6300
   27SAPC  H11B 3547   3.178   1.037   6.768 -0.2613 -3.7868  0.8962
   27SAPC     P 3548   3.445   0.947   6.746  0.0090  0.1437  0.2856
   27SAPC   O13 3549   3.560   0.914   6.661  0.1764  0.1867  0.1670
   27SAPC   O14 3550   3.447   1.080   6.818 -0.3002 -0.2346 -0.6065
   27SAPC   O12 3551   3.318   0.934   6.650 -0.8821 -0.1571 -0.6564
   27SAPC   O11 3552   3.424   0.838   6.855 -0.6693  0.2672 -0.4693
   27SAPC    C1 3553   3.366   0.708   6.844 -0.3995  0.6923 -0.2550
   27SAPC    HA 3554   3.377   0.666   6.742 -1.1021 -1.3583  0.4784
   27SAPC    HB 3555   3.425   0.645   6.915  1.6693  2.0402 -0.7224
   27SAPC    C2 3556   3.216   0.702   6.892  0.6454  0.3631  0.1439
   27SAPC    HS 3557   3.162   0.750   6.807 -1.1931 -0.2884  0.9214
   27SAPC   O21 3558   3.198   0.784   7.007 -0.0710 -0.0857  0.0652
   27SAPC   C21 3559   3.076   0.828   7.036 -0.3243 -0.1671 -0.3918
   27SAPC   O22 3560   2.977   0.818   6.973  0.1045  0.3170 -0.1207
   27SAPC   C22 3561   3.083   0.889   7.175  0.8718 -0.6634 -0.1521
   27SAPC   H2R 3562   3.183   0.878   7.223  1.6580 -1.4542 -1.9226
   27SAPC   H2S 3563   3.069   0.998   7.158  1.7893 -0.0135  2.9422
   27SAPC    C3 3564   3.152   0.562   6.910  0.1971  0.6354 -0.1604
   27SAPC    HX 3565   3.156   0.532   6.803  1.2683  0.8624 -0.1841
   27SAPC    HY 3566   3.043   0.579   6.924 -0.0509 -1.9761  1.4725
   27SAPC   O31 3567   3.211   0.479   7.015 -0.2954  1.0188  0.2849
   27SAPC   C31 3568   3.206   0.354   7.000 -0.7574 -0.5254  0.1343
   27SAPC   O32 3569   3.153   0.297   6.902  0.2834  0.5480  0.3915
   27SAPC   C32 3570   3.281   0.283   7.114  0.1519  0.2523  0.0977
   27SAPC   H2X 3571   3.347   0.205   7.071 -2.1545 -0.9938 -1.2809
   27SAPC   H2Y 3572   3.202   0.214   7.150  0.5086 -1.0429 -1.5060
   27SAPC   C23 3573   2.978   0.830   7.267 -1.0757 -0.3515  0.2136
   27SAPC   H3R 3574   2.923   0.749   7.215 -2.5437  0.0287  1.1529
   27SAPC   H3S 3575   2.894   0.900   7.286 -0.2861 -0.0694  2.8276
   27SAPC   C24 3576   3.032   0.794   7.415 -0.0446  0.3568 -0.2043
   27SAPC   H4R 3577   2.938   0.790   7.474 -0.2990  1.4736 -0.5288
   27SAPC   H4S 3578   3.087   0.885   7.446  1.6461 -0.2719 -1.3212
   27SAPC   C25 3579   3.121   0.668   7.420  0.2716  0.0168  1.0287
   27SAPC   H5R 3580   3.147   0.629   7.321 -1.6209  1.5677 -0.1148
   27SAPC   C26 3581   3.168   0.604   7.529  0.8142  0.0404  0.7369
   27SAPC   H6R 3582   3.235   0.521   7.506  0.9651  0.3348  0.1187
   27SAPC   C27 3583   3.137   0.635   7.675  0.0529  0.4245  0.9073
   27SAPC   H7R 3584   3.059   0.571   7.719 -0.5646  0.0640 -0.6676
   27SAPC   H7S 3585   3.081   0.731   7.679 -0.2215  0.4762 -2.5380
   27SAPC   C28 3586   3.263   0.640   7.766 -0.8215  0.1533 -0.5546
   27SAPC   H8R 3587   3.351   0.677   7.712  1.8253 -0.4373  3.1924
   27SAPC   C29 3588   3.276   0.624   7.900  0.1577 -0.0429  0.3517
   27SAPC   H9R 3589   3.374   0.629   7.949  0.3290 -2.5045  0.3567
   27SAPC  C210 3590   3.150   0.608   7.983  0.1546  0.0170 -0.3676
   27SAPC  H10R 3591   3.055   0.597   7.927  0.7124 -1.8415 -1.0168
   27SAPC  H10S 3592   3.147   0.689   8.058  2.8219 -0.1163 -0.0410
   27SAPC  C211 3593   3.152   0.474   8.051  0.3513 -0.0611 -0.3795
   27SAPC  H11R 3594   3.116   0.393   7.987 -2.2674  1.2357 -0.6070
   27SAPC  C212 3595   3.202   0.441   8.167 -0.5908 -0.3263  0.1656
   27SAPC  H12R 3596   3.194   0.334   8.195  0.0464  0.0729  1.9745
   27SAPC  C213 3597   3.264   0.530   8.269 -0.3281  0.5829  0.0927
   27SAPC  H13R 3598   3.321   0.611   8.218  1.9525  0.0009  1.6448
   27SAPC  H13S 3599   3.345   0.478   8.324  0.8672  1.6935 -0.5819
   27SAPC  C214 3600   3.177   0.599   8.368  0.5321 -0.9183 -0.5519
   27SAPC  H14R 3601   3.161   0.704   8.340  0.4059 -1.1520 -1.3656
   27SAPC  C215 3602   3.137   0.543   8.486 -0.2806 -0.1208  0.1354
   27SAPC  H15R 3603   3.079   0.605   8.557  0.0283  0.3474 -0.0179
   27SAPC  C216 3604   3.164   0.402   8.545  0.4030 -0.8166 -0.7942
   27SAPC  H16R 3605   3.157   0.392   8.655  2.3604  1.9913 -0.3651
   27SAPC  H16S 3606   3.263   0.360   8.520 -1.2880 -6.3943  1.1649
   27SAPC  C217 3607   3.057   0.309   8.496  0.1998  0.4625  0.0918
   27SAPC  H17R 3608   3.039   0.323   8.388 -0.2744  0.3790  0.1602
   27SAPC  H17S 3609   2.956   0.329   8.539 -0.8129 -1.4107 -1.3808
   27SAPC  C218 3610   3.094   0.158   8.511  0.0682  0.0967  0.1118
   27SAPC  H18R 3611   3.136   0.154   8.614  1.0077 -1.9602 -0.3146
   27SAPC  H18S 3612   3.180   0.121   8.452 -0.1586 -2.0166  1.0197
   27SAPC  C219 3613   2.985   0.061   8.478  0.2473 -0.2741  0.1451
   27SAPC  H19R 3614   3.024  -0.043   8.470 -1.4292 -1.0134  1.3564
   27SAPC  H19S 3615   2.936   0.088   8.383 -1.5595 -1.6211  0.6834
   27SAPC  C220 3616   2.870   0.063   8.576 -0.3161 -0.1750  0.1103
   27SAPC  H20R 3617   2.821   0.162   8.571  1.0552  0.4390 -1.4084
   27SAPC  H20S 3618   2.902   0.042   8.680  5.1691 -1.2715 -1.6129
   27SAPC  H20T 3619   2.795  -0.011   8.541  1.4013 -2.0161  0.2180
   27SAPC   C33 3620   3.357   0.360   7.226 -0.0061 -0.0423  0.5828
   27SAPC   H3X 3621   3.378   0.299   7.316  2.7399  0.9639  0.6631
   27SAPC   H3Y 3622   3.291   0.439   7.268 -1.1374 -1.4759  1.5716
   27SAPC   C34 3623   3.480   0.428   7.184  0.4517  0.6221 -0.2889
   27SAPC   H4X 3624   3.469   0.518   7.121 -1.5900  2.9160  3.1861
   27SAPC   H4Y 3625   3.547   0.362   7.124 -0.0491  0.8721 -1.1346
   27SAPC   C35 3626   3.570   0.457   7.311 -1.0496 -0.9390  0.7951
   27SAPC   H5X 3627   3.665   0.486   7.262 -0.7212 -2.8870  0.2118
   27SAPC   H5Y 3628   3.589   0.366   7.371  1.1170 -2.2376 -1.7760
   27SAPC   C36 3629   3.510   0.573   7.389  0.3203 -0.2835  0.4124
   27SAPC   H6X 3630   3.435   0.537   7.462  0.9575 -1.0331  0.7048
   27SAPC   H6Y 3631   3.463   0.645   7.319 -2.5715 -0.4112  2.1671
   27SAPC   C37 3632   3.620   0.658   7.452 -0.3317 -0.3466 -0.7366
   27SAPC   H7X 3633   3.588   0.752   7.501  1.0773 -0.6914  0.8852
   27SAPC   H7Y 3634   3.691   0.686   7.370  0.2897  0.7792  0.1670
   27SAPC   C38 3635   3.706   0.581   7.560 -0.1025  0.3893  0.3024
   27SAPC   H8X 3636   3.809   0.624   7.565  0.0661  0.0670 -0.2855
   27SAPC   H8Y 3637   3.717   0.473   7.533  0.2841  0.5448 -0.1785
   27SAPC   C39 3638   3.655   0.582   7.702 -0.0928  0.2908  0.5437
   27SAPC   H9X 3639   3.552   0.544   7.721  0.5514 -1.3851  0.7675
   27SAPC   H9Y 3640   3.657   0.686   7.739 -0.0865  0.2430  0.6792
   27SAPC  C310 3641   3.729   0.482   7.795 -0.2170 -0.0222  0.3693
   27SAPC  H10X 3642   3.835   0.514   7.793 -0.9375  2.4971  1.1782
   27SAPC  H10Y 3643   3.722   0.379   7.753 -1.3865  0.4539 -0.6306
   27SAPC  C311 3644   3.694   0.477   7.947 -0.6395 -0.2047  0.4031
   27SAPC  H11X 3645   3.772   0.405   7.979 -0.5068 -0.1024  0.3107
   27SAPC  H11Y 3646   3.591   0.436   7.960 -1.4485  1.1898 -1.2994
   27SAPC  C312 3647   3.714   0.609   8.022 -0.3767  0.1471  0.3764
   27SAPC  H12X 3648   3.658   0.681   7.959  4.0318  0.1121 -3.8345
   27SAPC  H12Y 3649   3.817   0.648   8.012 -1.9828  3.7919 -2.9638
   27SAPC  C313 3650   3.674   0.607   8.172  0.0492  0.6649 -0.1371
   27SAPC  H13X 3651   3.566   0.626   8.189  0.0028 -0.5844  1.1138
   27SAPC  H13Y 3652   3.702   0.703   8.221 -2.5987  1.2340  0.3281
   27SAPC  C314 3653   3.726   0.486   8.262  0.4098  0.3493 -0.3690
   27SAPC  H14X 3654   3.835   0.463   8.258  0.2875 -0.2716 -0.1245
   27SAPC  H14Y 3655   3.666   0.399   8.228  2.0220 -0.5381 -1.0095
   27SAPC  C315 3656   3.689   0.496   8.415 -0.2905 -0.0536  0.0567
   27SAPC  H15X 3657   3.672   0.392   8.451 -1.1797 -0.0397 -0.3139
   27SAPC  H15Y 3658   3.585   0.534   8.425  0.2048  0.7395  2.5461
   27SAPC  C316 3659   3.775   0.588   8.494 -0.5716  0.7773 -0.2567
   27SAPC  H16X 3660   3.779   0.688   8.447  3.8809  0.7073 -0.2967
   27SAPC  H16Y 3661   3.878   0.546   8.493 -1.6042 -1.8289 -1.1762
   27SAPC  C317 3662   3.728   0.621   8.648 -0.4848 -0.0020 -0.1389
   27SAPC  H17X 3663   3.719   0.528   8.707 -0.3621  0.9515  1.4205
   27SAPC  H17Y 3664   3.628   0.664   8.629  0.1489  1.6853  0.2219
   27SAPC  C318 3665   3.820   0.721   8.717 -0.2158 -0.6061  0.0500
   27SAPC  H18X 3666   3.818   0.814   8.657 -0.8512  0.3108  1.4742
   27SAPC  H18Y 3667   3.927   0.688   8.721  0.9146  3.0641  2.0580
   27SAPC  H18Z 3668   3.800   0.740   8.825 -0.0105 -0.8603  0.1330
   28SAPC     N 3669   2.968   4.191   6.154  0.7686  0.1383  0.0454
   28SAPC   C12 3670   2.874   4.242   6.257  1.1250 -0.5468 -0.5448
   28SAPC  H12A 3671   2.930   4.317   6.311 -0.5271  0.5602 -0.3344
   28SAPC  H12B 3672   2.848   4.170   6.332  1.3399  0.5954  0.6437
   28SAPC   C13 3673   2.907   4.076   6.071 -0.3342 -0.2512 -0.1787
   28SAPC  H13A 3674   2.807   4.108   6.043 -0.3369  0.8142  1.0288
   28SAPC  H13B 3675   2.969   4.050   5.986 -2.1156  0.0196 -1.6017
   28SAPC  H13C 3676   2.891   3.993   6.138  0.8717 -0.2374  0.1287
   28SAPC   C14 3677   3.011   4.301   6.065  0.3116  0.4491  0.5087
   28SAPC  H14A 3678   3.105   4.265   6.026 -0.4927  0.4834 -1.5780
   28SAPC  H14B 3679   2.934   4.324   5.992 -1.3915 -0.8416  1.8491
   28SAPC  H14C 3680   3.033   4.386   6.127 -1.5988  0.6086  0.9952
   28SAPC   C15 3681   3.088   4.127   6.229 -0.1397 -0.5028 -0.3078
   28SAPC  H15A 3682   3.141   4.205   6.282 -0.3460 -0.5634 -0.0117
   28SAPC  H15B 3683   3.050   4.060   6.304  1.4736  0.3460  1.3163
   28SAPC  H15C 3684   3.158   4.076   6.165  1.0172  2.2679 -1.3183
   28SAPC   C11 3685   2.736   4.315   6.216  0.2641 -0.7830  0.8392
   28SAPC  H11A 3686   2.747   4.390   6.135 -2.0493 -1.4721 -0.1757
   28SAPC  H11B 3687   2.705   4.369   6.308  0.2724  0.5578  0.0605
   28SAPC     P 3688   2.565   4.141   6.295  0.4703 -0.4377 -0.0145
   28SAPC   O13 3689   2.494   4.029   6.227 -0.1375  0.0922 -0.1867
   28SAPC   O14 3690   2.655   4.099   6.410 -0.2906  0.0454  0.0830
   28SAPC   O12 3691   2.650   4.204   6.173  0.1391  0.4397  0.1671
   28SAPC   O11 3692   2.461   4.255   6.337  0.1339  0.0375  0.0734
   28SAPC    C1 3693   2.369   4.208   6.436  0.4095  0.3682 -0.3616
   28SAPC    HA 3694   2.285   4.279   6.425  0.8542  0.4752 -3.4494
   28SAPC    HB 3695   2.314   4.115   6.412  0.5175 -0.2340  1.6796
   28SAPC    C2 3696   2.422   4.217   6.583  0.1926  0.6495  0.2034
   28SAPC    HS 3697   2.472   4.122   6.611  0.0774  1.1414  2.1397
   28SAPC   O21 3698   2.313   4.224   6.676 -0.0125  0.1199 -0.7971
   28SAPC   C21 3699   2.234   4.123   6.690 -0.8010 -0.0770 -0.7068
   28SAPC   O22 3700   2.239   4.019   6.623 -0.4825 -0.0013 -0.0877
   28SAPC   C22 3701   2.144   4.143   6.808 -0.2374 -0.8510  1.1257
   28SAPC   H2R 3702   2.058   4.200   6.768  2.6436  2.0395 -1.1280
   28SAPC   H2S 3703   2.117   4.038   6.835  0.1976 -0.7156  2.1196
   28SAPC    C3 3704   2.513   4.334   6.615  0.2779  0.2013  0.2061
   28SAPC    HX 3705   2.445   4.422   6.613  0.7596  0.5713 -0.2112
   28SAPC    HY 3706   2.589   4.342   6.534 -2.9705 -1.8447 -3.1796
   28SAPC   O31 3707   2.572   4.315   6.748 -0.2489  0.5119 -0.2286
   28SAPC   C31 3708   2.660   4.407   6.774 -0.7801 -0.3729 -0.2183
   28SAPC   O32 3709   2.682   4.508   6.710  0.8695  0.0089  0.5826
   28SAPC   C32 3710   2.743   4.372   6.894 -0.8241  0.6141 -0.0538
   28SAPC   H2X 3711   2.729   4.261   6.898  0.4882  0.3862 -1.4950
   28SAPC   H2Y 3712   2.685   4.415   6.979 -0.2205  1.4197 -0.0464
   28SAPC   C23 3713   2.218   4.212   6.926 -0.5762 -0.8935 -0.5548
   28SAPC   H3R 3714   2.251   4.314   6.896  0.0956 -0.9457  0.0129
   28SAPC   H3S 3715   2.317   4.171   6.956  0.6734  0.3082 -2.8993
   28SAPC   C24 3716   2.125   4.229   7.050 -0.1454  0.2548  0.7257
   28SAPC   H4R 3717   2.174   4.301   7.119  0.9616  1.8609 -1.6668
   28SAPC   H4S 3718   2.029   4.282   7.033  0.1980  0.5705 -0.2770
   28SAPC   C25 3719   2.102   4.105   7.131 -0.4793  0.2915  0.1535
   28SAPC   H5R 3720   2.054   4.022   7.077  0.6595 -0.5662  0.4318
   28SAPC   C26 3721   2.125   4.091   7.268 -0.2243  0.3908 -0.3257
   28SAPC   H6R 3722   2.091   3.995   7.310  0.6670  0.1384 -0.1858
   28SAPC   C27 3723   2.188   4.181   7.363  0.4971 -0.0236  0.1973
   28SAPC   H7R 3724   2.248   4.258   7.310 -2.0355  0.1517 -2.4713
   28SAPC   H7S 3725   2.258   4.127   7.432  1.4826 -0.4035 -1.0744
   28SAPC   C28 3726   2.080   4.269   7.428 -0.0846  1.2400 -0.1347
   28SAPC   H8R 3727   2.038   4.348   7.363 -0.4352  1.9502  0.9491
   28SAPC   C29 3728   2.042   4.257   7.552  1.3075  0.2291  0.6303
   28SAPC   H9R 3729   1.957   4.321   7.579 -0.9220 -2.0722 -0.7682
   28SAPC  C210 3730   2.097   4.157   7.646  0.5099  0.2748  0.1003
   28SAPC  H10R 3731   2.206   4.151   7.628  0.4011  0.1170 -0.4918
   28SAPC  H10S 3732   2.062   4.054   7.626  2.7960 -0.1754 -1.7026
   28SAPC  C211 3733   2.079   4.192   7.789  0.6025 -0.6613 -0.0444
   28SAPC  H11R 3734   1.993   4.151   7.844  0.1115  0.5329  0.0823
   28SAPC  C212 3735   2.159   4.274   7.860  0.0430  0.5024  0.5371
   28SAPC  H12R 3736   2.139   4.303   7.964  1.1516 -2.7654  1.7366
   28SAPC  C213 3737   2.277   4.335   7.798  0.2652 -1.2949  0.4677
   28SAPC  H13R 3738   2.276   4.440   7.834 -1.2189 -1.3670  0.7015
   28SAPC  H13S 3739   2.252   4.347   7.690 -1.0685 -0.9650  0.8005
   28SAPC  C214 3740   2.406   4.263   7.821  0.1530  0.2718 -0.1707
   28SAPC  H14R 3741   2.393   4.163   7.864  0.9366 -0.5928 -1.8659
   28SAPC  C215 3742   2.527   4.304   7.785 -0.8858  0.7574  0.4687
   28SAPC  H15R 3743   2.617   4.241   7.794 -0.5594  1.0171 -0.8333
   28SAPC  C216 3744   2.551   4.434   7.707  0.5030  0.4999 -0.3193
   28SAPC  H16R 3745   2.615   4.493   7.776 -0.3365 -0.0839  0.9711
   28SAPC  H16S 3746   2.462   4.500   7.696  0.3489  0.4811  0.7663
   28SAPC  C217 3747   2.625   4.418   7.574 -0.1955  0.6415  0.6377
   28SAPC  H17R 3748   2.720   4.363   7.588  0.2492  0.7508 -1.7356
   28SAPC  H17S 3749   2.652   4.523   7.548  0.6793  0.8578  2.3405
   28SAPC  C218 3750   2.536   4.381   7.463 -0.0740 -0.0090  0.5114
   28SAPC  H18R 3751   2.448   4.449   7.450  0.5144  0.6338 -0.1423
   28SAPC  H18S 3752   2.488   4.282   7.479 -0.1938  0.2388  1.7697
   28SAPC  C219 3753   2.603   4.388   7.329  0.2314  0.1222  0.0221
   28SAPC  H19R 3754   2.690   4.319   7.320  1.4485  1.4065  1.7236
   28SAPC  H19S 3755   2.636   4.494   7.327 -0.6521  0.3937 -0.6369
   28SAPC  C220 3756   2.508   4.363   7.219  0.2288 -0.8608  0.7596
   28SAPC  H20R 3757   2.427   4.439   7.214 -1.6339 -2.9343 -2.8032
   28SAPC  H20S 3758   2.437   4.283   7.251 -1.2943  1.1815  2.6366
   28SAPC  H20T 3759   2.548   4.333   7.119  0.9059  1.8048  0.2047
   28SAPC   C33 3760   2.895   4.402   6.894 -0.2457 -0.3840  0.6064
   28SAPC   H3X 3761   2.913   4.510   6.910 -1.9160 -0.2428  1.7034
   28SAPC   H3Y 3762   2.936   4.377   6.794  0.0608 -0.7151  0.8152
   28SAPC   C34 3763   2.977   4.340   7.006  0.8701  0.2632  0.0946
   28SAPC   H4X 3764   3.085   4.351   6.986  0.8173  0.1559 -0.2421
   28SAPC   H4Y 3765   2.958   4.231   7.009 -0.8466  0.5635  3.6250
   28SAPC   C35 3766   2.951   4.411   7.138  0.3465 -0.2387  0.0256
   28SAPC   H5X 3767   2.844   4.395   7.166 -0.5806  3.2090 -1.3508
   28SAPC   H5Y 3768   2.951   4.522   7.133  0.8033 -0.2643 -0.5847
   28SAPC   C36 3769   3.054   4.376   7.251  0.1730 -0.3053 -0.0127
   28SAPC   H6X 3770   3.146   4.437   7.234 -0.9423  1.7737  1.2167
   28SAPC   H6Y 3771   3.081   4.268   7.255  0.2933 -0.2634  0.3942
   28SAPC   C37 3772   3.016   4.433   7.389  0.1875  0.0578  0.2352
   28SAPC   H7X 3773   2.913   4.396   7.407 -0.2751  1.6983  1.0151
   28SAPC   H7Y 3774   3.023   4.544   7.390 -1.6360  0.1922  0.4013
   28SAPC   C38 3775   3.107   4.383   7.497 -0.4541 -1.2894 -0.1503
   28SAPC   H8X 3776   3.213   4.405   7.473  0.2817 -3.9503  0.5052
   28SAPC   H8Y 3777   3.102   4.272   7.494 -0.0679 -1.2804 -1.4530
   28SAPC   C39 3778   3.066   4.437   7.633  0.3056  0.2635 -0.1095
   28SAPC   H9X 3779   2.956   4.428   7.649  0.1748  1.3161 -0.3162
   28SAPC   H9Y 3780   3.095   4.545   7.634  0.6916  0.1583  0.9237
   28SAPC  C310 3781   3.142   4.361   7.746  0.8618  0.3837  0.1655
   28SAPC  H10X 3782   3.250   4.385   7.732  1.4693 -2.5316 -0.3243
   28SAPC  H10Y 3783   3.148   4.252   7.728  1.4542  0.5025 -0.4040
   28SAPC  C311 3784   3.081   4.393   7.882 -0.0196  0.2997  0.4667
   28SAPC  H11X 3785   2.979   4.350   7.889 -0.2467  0.8203  0.2789
   28SAPC  H11Y 3786   3.079   4.501   7.904  1.9781  0.4395  0.0674
   28SAPC  C312 3787   3.170   4.328   7.993 -0.4052  0.0327 -0.4347
   28SAPC  H12X 3788   3.278   4.349   7.976  0.0472 -0.4840  1.6345
   28SAPC  H12Y 3789   3.166   4.217   7.989  3.2195 -0.2094  0.4535
   28SAPC  C313 3790   3.137   4.394   8.129 -0.0526  0.7146  0.0582
   28SAPC  H13X 3791   3.191   4.490   8.138 -1.9039  1.6392  1.7645
   28SAPC  H13Y 3792   3.173   4.333   8.214 -4.6239 -2.2435  0.0489
   28SAPC  C314 3793   2.980   4.401   8.157 -0.7035  0.4712  0.7193
   28SAPC  H14X 3794   2.939   4.471   8.081  2.0789  2.0653  0.5880
   28SAPC  H14Y 3795   2.973   4.451   8.256 -0.2406  1.4917  0.2512
   28SAPC  C315 3796   2.914   4.264   8.167 -0.0056  0.7872  0.2643
   28SAPC  H15X 3797   2.972   4.200   8.238 -2.4742 -0.2047  1.4369
   28SAPC  H15Y 3798   2.919   4.217   8.066 -1.7018 -0.3881  0.7038
   28SAPC  C316 3799   2.768   4.261   8.214 -0.5911  0.6447  0.3014
   28SAPC  H16X 3800   2.760   4.283   8.322  1.3532  1.5946  0.2876
   28SAPC  H16Y 3801   2.727   4.160   8.194  1.4258 -0.1622  0.1435
   28SAPC  C317 3802   2.678   4.353   8.135 -0.2525  0.1281 -0.6003
   28SAPC  H17X 3803   2.601   4.286   8.091  0.6256 -0.9923 -0.4705
   28SAPC  H17Y 3804   2.733   4.380   8.042 -1.9847  0.2449 -1.6024
   28SAPC  C318 3805   2.628   4.478   8.213 -0.1566 -0.2335  0.1269
   28SAPC  H18X 3806   2.718   4.539   8.237  1.8813 -1.9256 -2.8020
   28SAPC  H18Y 3807   2.583   4.429   8.302  1.7593  0.6136  1.6096
   28SAPC  H18Z 3808   2.563   4.541   8.149  1.0623  0.4515 -0.4665
   29SAPC     N 3809   5.048   1.041   5.949  0.7787 -0.0134 -0.4825
   29SAPC   C12 3810   5.043   1.129   6.072  0.5931 -0.2378  0.3209
   29SAPC  H12A 3811   4.956   1.193   6.072  1.3692  0.8673  2.3160
   29SAPC  H12B 3812   5.125   1.199   6.068 -1.0724  1.6392 -2.0604
   29SAPC   C13 3813   5.031   1.125   5.828  0.0050  0.0869  0.0817
   29SAPC  H13A 3814   4.994   1.067   5.744 -1.0704  2.6532 -1.2770
   29SAPC  H13B 3815   4.953   1.197   5.847 -2.5593 -2.9114  1.3321
   29SAPC  H13C 3816   5.118   1.181   5.798  0.6445  0.2676  2.2042
   29SAPC   C14 3817   5.177   0.963   5.935 -0.2530 -0.6701 -0.2170
   29SAPC  H14A 3818   5.167   0.863   5.896  0.9724 -1.3818  1.2459
   29SAPC  H14B 3819   5.240   1.034   5.882 -1.6698  1.5160  0.9516
   29SAPC  H14C 3820   5.223   0.943   6.031  2.6754 -2.3921 -1.9248
   29SAPC   C15 3821   4.940   0.932   5.959 -0.4673 -1.4077  0.4320
   29SAPC  H15A 3822   4.846   0.980   5.938  0.7305  0.3995 -1.0688
   29SAPC  H15B 3823   4.958   0.866   5.876 -0.9976 -0.8890 -0.0980
   29SAPC  H15C 3824   4.937   0.872   6.049 -1.3175  1.4228  2.3535
   29SAPC   C11 3825   5.068   1.057   6.209  0.0747  0.2483 -0.1372
   29SAPC  H11A 3826   5.001   0.969   6.212 -1.5100  1.4160 -0.8622
   29SAPC  H11B 3827   5.040   1.125   6.293 -0.3198 -1.0940  0.8319
   29SAPC     P 3828   5.326   1.105   6.247 -0.0843  0.2244 -0.2257
   29SAPC   O13 3829   5.456   1.039   6.222 -0.3946  0.4585 -0.3808
   29SAPC   O14 3830   5.311   1.242   6.188 -0.0812  0.0033 -0.6379
   29SAPC   O12 3831   5.200   1.015   6.213  0.0801 -0.5153  0.5453
   29SAPC   O11 3832   5.297   1.114   6.402 -0.1159 -0.3374 -0.5941
   29SAPC    C1 3833   5.268   1.001   6.480  0.2013  0.2408 -0.1397
   29SAPC    HA 3834   5.176   0.950   6.445 -0.4669 -1.3686  3.7944
   29SAPC    HB 3835   5.346   0.924   6.460 -0.8819 -0.9423  0.1847
   29SAPC    C2 3836   5.263   1.015   6.635  0.4595  1.0390  0.3187
   29SAPC    HS 3837   5.177   1.080   6.663  1.0335  1.5009  1.0364
   29SAPC   O21 3838   5.387   1.076   6.677 -0.1260  0.0776 -0.0526
   29SAPC   C21 3839   5.370   1.156   6.785  0.7199  0.3577 -0.6259
   29SAPC   O22 3840   5.267   1.177   6.847  0.3418 -0.0539 -0.9251
   29SAPC   C22 3841   5.507   1.190   6.847 -1.1172 -0.1104 -0.0952
   29SAPC   H2R 3842   5.571   1.102   6.823 -0.7767  0.1085  0.0090
   29SAPC   H2S 3843   5.540   1.279   6.790 -0.2394  0.4620  1.2761
   29SAPC    C3 3844   5.245   0.872   6.697 -0.8202  0.6612  0.4991
   29SAPC    HX 3845   5.336   0.816   6.665 -0.2733  1.7100  0.2128
   29SAPC    HY 3846   5.157   0.822   6.651  0.7221  1.2392 -3.2594
   29SAPC   O31 3847   5.231   0.866   6.843  0.2299  0.1410 -0.5684
   29SAPC   C31 3848   5.114   0.909   6.886  0.1771 -0.5589  0.3352
   29SAPC   O32 3849   5.020   0.955   6.827  0.2524 -0.1967  0.0208
   29SAPC   C32 3850   5.120   0.921   7.039  0.3250  0.7083 -0.3984
   29SAPC   H2X 3851   5.205   0.987   7.066  0.9646 -0.8944  1.6716
   29SAPC   H2Y 3852   5.145   0.819   7.076  1.1304  1.0567  0.0320
   29SAPC   C23 3853   5.508   1.222   6.997 -0.3558  0.7309  0.0974
   29SAPC   H3R 3854   5.477   1.138   7.062 -3.0398 -1.6436 -4.0614
   29SAPC   H3S 3855   5.428   1.299   7.005 -0.9150  0.5064 -2.7903
   29SAPC   C24 3856   5.638   1.269   7.053  0.4324  0.0221  0.7940
   29SAPC   H4R 3857   5.685   1.347   6.989  0.1987  0.7423  1.4858
   29SAPC   H4S 3858   5.711   1.186   7.062  0.4113 -0.2044 -0.9897
   29SAPC   C25 3859   5.622   1.339   7.187 -0.6494 -0.2086  0.1988
   29SAPC   H5R 3860   5.611   1.448   7.178  1.6821 -0.2821 -4.6201
   29SAPC   C26 3861   5.622   1.274   7.307 -0.0846 -0.1483  0.5691
   29SAPC   H6R 3862   5.603   1.333   7.398  0.8708  0.2914  0.4930
   29SAPC   C27 3863   5.641   1.121   7.314 -0.1617  0.7826  0.5962
   29SAPC   H7R 3864   5.749   1.105   7.337  0.7498  1.2747 -3.0268
   29SAPC   H7S 3865   5.634   1.069   7.217  0.6168 -0.1308  1.0182
   29SAPC   C28 3866   5.562   1.036   7.414 -0.5006  0.5826 -0.0518
   29SAPC   H8R 3867   5.485   0.967   7.376 -0.0028 -0.0450  0.0693
   29SAPC   C29 3868   5.591   1.028   7.547  0.4898  0.3465 -0.3789
   29SAPC   H9R 3869   5.522   0.975   7.615  0.5975  0.8019  0.0827
   29SAPC  C210 3870   5.700   1.099   7.616  0.7131 -0.0079  0.2411
   29SAPC  H10R 3871   5.761   1.151   7.539 -1.8305  1.2676 -0.9690
   29SAPC  H10S 3872   5.762   1.015   7.655 -0.0998 -0.2546  1.0177
   29SAPC  C211 3873   5.651   1.203   7.719  0.2327 -0.4735  0.9408
   29SAPC  H11R 3874   5.639   1.311   7.702  2.3329 -0.4414 -0.4254
   29SAPC  C212 3875   5.646   1.177   7.856 -0.7121  0.3992  0.4599
   29SAPC  H12R 3876   5.621   1.253   7.932  1.0526 -2.0348  3.6102
   29SAPC  C213 3877   5.674   1.035   7.914 -0.0052  0.2495  0.1892
   29SAPC  H13R 3878   5.761   0.989   7.862 -0.5155 -0.6850  0.1402
   29SAPC  H13S 3879   5.587   0.972   7.885 -0.9564  0.5464  2.3096
   29SAPC  C214 3880   5.683   1.027   8.065  0.3506  0.4772  0.2809
   29SAPC  H14R 3881   5.595   0.983   8.113  1.6481 -0.7106  1.6081
   29SAPC  C215 3882   5.778   1.063   8.156 -0.3710  0.6480  0.3845
   29SAPC  H15R 3883   5.765   1.025   8.258  1.0597  1.2233  0.7830
   29SAPC  C216 3884   5.910   1.132   8.133 -0.4698 -0.3492 -0.0831
   29SAPC  H16R 3885   5.913   1.140   8.022 -2.9258 -2.7887 -0.3846
   29SAPC  H16S 3886   5.991   1.058   8.154 -1.0683 -0.4480  1.9139
   29SAPC  C217 3887   5.942   1.265   8.204 -0.1966 -0.2589 -0.4920
   29SAPC  H17R 3888   5.866   1.344   8.183 -0.3984 -0.5224 -0.7439
   29SAPC  H17S 3889   6.036   1.305   8.160 -0.2305 -1.8240 -1.9926
   29SAPC  C218 3890   5.969   1.265   8.353 -0.2655  0.6468  0.0877
   29SAPC  H18R 3891   6.021   1.175   8.392  2.0098  2.0471  0.3438
   29SAPC  H18S 3892   5.875   1.284   8.409  0.7145 -1.3410  2.5050
   29SAPC  C219 3893   6.066   1.372   8.395  1.0817  1.0844 -0.2675
   29SAPC  H19R 3894   6.034   1.464   8.340  2.5616  2.0102  0.3873
   29SAPC  H19S 3895   6.168   1.345   8.362  1.6539  2.5270  0.2954
   29SAPC  C220 3896   6.050   1.399   8.548  0.0570  0.3983  0.4993
   29SAPC  H20R 3897   6.124   1.476   8.579  1.5480 -0.5145 -0.7329
   29SAPC  H20S 3898   6.073   1.316   8.619  2.7627  0.5569 -0.1349
   29SAPC  H20T 3899   5.951   1.446   8.565 -0.1156  0.3350 -0.3497
   29SAPC   C33 3900   4.994   0.973   7.115  0.4855  0.2154 -0.8378
   29SAPC   H3X 3901   4.899   0.931   7.076 -0.3935  1.8737 -0.5253
   29SAPC   H3Y 3902   4.995   1.083   7.100 -0.7335  0.2694 -0.5566
   29SAPC   C34 3903   5.001   0.944   7.266 -0.0195 -0.5558  0.8182
   29SAPC   H4X 3904   4.977   0.837   7.283  0.2171 -0.6859  0.3602
   29SAPC   H4Y 3905   4.910   0.990   7.312  0.2943  1.5051 -0.5396
   29SAPC   C35 3906   5.130   0.992   7.340  0.6961  0.3031 -0.5778
   29SAPC   H5X 3907   5.139   1.101   7.321  0.0195  0.4283 -0.1590
   29SAPC   H5Y 3908   5.214   0.924   7.311 -2.0151 -2.7237 -1.5904
   29SAPC   C36 3909   5.110   0.974   7.494 -0.1393  0.1769  0.8258
   29SAPC   H6X 3910   5.116   0.864   7.507  2.5193 -0.2939 -3.4859
   29SAPC   H6Y 3911   5.011   1.011   7.529 -1.0255 -2.9488  1.8027
   29SAPC   C37 3912   5.223   1.028   7.583  0.4013 -0.3018 -0.6269
   29SAPC   H7X 3913   5.246   1.135   7.565  1.4281 -1.0008 -3.6930
   29SAPC   H7Y 3914   5.315   0.966   7.575  0.8040  0.3650 -1.1628
   29SAPC   C38 3915   5.171   1.007   7.728  0.3723 -0.5223 -0.3972
   29SAPC   H8X 3916   5.188   0.904   7.766 -2.3569 -0.2494  1.7088
   29SAPC   H8Y 3917   5.061   1.021   7.731  0.7695  2.8059  1.9953
   29SAPC   C39 3918   5.239   1.107   7.826  0.3045  0.3223 -0.7094
   29SAPC   H9X 3919   5.197   1.210   7.816  1.1612  0.7280 -0.2693
   29SAPC   H9Y 3920   5.345   1.120   7.795  0.6190  0.6334  0.4784
   29SAPC  C310 3921   5.230   1.061   7.971 -0.0870 -0.6147 -0.0377
   29SAPC  H10X 3922   5.284   0.964   7.975 -0.0491 -0.6960 -1.8582
   29SAPC  H10Y 3923   5.121   1.051   7.993 -0.4549  2.1516 -0.3753
   29SAPC  C311 3924   5.295   1.163   8.062  0.6662  0.1338  0.5140
   29SAPC  H11X 3925   5.284   1.268   8.026 -2.0314 -0.6279 -0.9459
   29SAPC  H11Y 3926   5.402   1.132   8.067  1.3603  2.3881  0.4967
   29SAPC  C312 3927   5.243   1.147   8.208  0.0058  1.0921  0.0123
   29SAPC  H12X 3928   5.233   1.041   8.239  0.8939  1.6290  2.2387
   29SAPC  H12Y 3929   5.139   1.186   8.215 -0.1518  0.5811  0.5335
   29SAPC  C313 3930   5.327   1.204   8.323  0.1538  0.1184 -0.3962
   29SAPC  H13X 3931   5.349   1.312   8.310 -3.4017  1.2340  1.8346
   29SAPC  H13Y 3932   5.417   1.140   8.330  0.9969  1.5413  2.6451
   29SAPC  C314 3933   5.248   1.187   8.459 -0.6039 -0.3469 -0.4859
   29SAPC  H14X 3934   5.162   1.256   8.461 -0.3874 -0.1245  3.5823
   29SAPC  H14Y 3935   5.318   1.207   8.543 -1.3975  0.1615  0.0567
   29SAPC  C315 3936   5.198   1.044   8.494 -0.2619  0.3628  0.5664
   29SAPC  H15X 3937   5.283   0.974   8.477  0.2646  0.7988  1.3523
   29SAPC  H15Y 3938   5.123   1.012   8.419  1.3926 -1.5772 -0.3101
   29SAPC  C316 3939   5.130   1.031   8.631 -0.3804 -0.0144 -0.6358
   29SAPC  H16X 3940   5.033   0.978   8.618 -0.3367  0.2163 -1.9263
   29SAPC  H16Y 3941   5.112   1.136   8.662  2.0743  1.3185 -3.5403
   29SAPC  C317 3942   5.218   0.970   8.740 -0.5785  0.6068 -0.5299
   29SAPC  H17X 3943   5.174   0.994   8.840 -1.2465 -0.0841 -0.6552
   29SAPC  H17Y 3944   5.318   1.018   8.736  1.0865 -2.5864  0.9708
   29SAPC  C318 3945   5.226   0.816   8.745  0.8650  0.2698 -0.1296
   29SAPC  H18X 3946   5.289   0.781   8.829  1.4805  0.9429 -0.3097
   29SAPC  H18Y 3947   5.267   0.778   8.649 -0.3652 -0.1805 -0.4818
   29SAPC  H18Z 3948   5.125   0.776   8.768  0.6216  1.9406  1.8709
   30SAPC     N 3949   6.707   2.159   6.060  0.5690  0.5163 -0.6301
   30SAPC   C12 3950   6.563   2.163   6.113  0.2083  0.0770 -0.3000
   30SAPC  H12A 3951   6.494   2.210   6.045 -0.2966  2.6699  1.9341
   30SAPC  H12B 3952   6.567   2.235   6.193 -1.1152 -0.2993  0.1287
   30SAPC   C13 3953   6.801   2.066   6.134 -0.1300  0.4389 -0.3037
   30SAPC  H13A 3954   6.839   2.113   6.223  0.5504  1.2071 -0.9903
   30SAPC  H13B 3955   6.750   1.975   6.162  0.0071  0.6829  0.7475
   30SAPC  H13C 3956   6.888   2.035   6.079 -1.5850  1.2201 -3.1396
   30SAPC   C14 3957   6.708   2.115   5.916  0.1405 -0.2588  0.5073
   30SAPC  H14A 3958   6.800   2.131   5.863  1.2659 -0.0864  2.4558
   30SAPC  H14B 3959   6.682   2.010   5.904  0.5832 -0.3173  0.0667
   30SAPC  H14C 3960   6.631   2.172   5.866 -1.5030 -0.4785  2.7280
   30SAPC   C15 3961   6.760   2.293   6.061 -0.3407 -0.6091  0.1292
   30SAPC  H15A 3962   6.865   2.290   6.036  0.3721 -2.3274  3.1237
   30SAPC  H15B 3963   6.700   2.354   5.995  0.8969  0.2198 -0.2593
   30SAPC  H15C 3964   6.755   2.350   6.153  0.9638  0.3478 -0.3780
   30SAPC   C11 3965   6.494   2.030   6.155  0.1915 -0.1414  0.0651
   30SAPC  H11A 3966   6.388   2.054   6.180  0.0714  1.8034 -2.2213
   30SAPC  H11B 3967   6.547   2.009   6.251  1.3494 -1.2055 -0.7996
   30SAPC     P 3968   6.575   1.796   6.072 -0.5486  0.1439 -0.3068
   30SAPC   O13 3969   6.491   1.687   6.022 -0.1359 -0.1573 -0.4360
   30SAPC   O14 3970   6.706   1.805   6.001  1.0076 -0.7558  0.5253
   30SAPC   O12 3971   6.496   1.932   6.057 -0.3820  0.1399 -0.3326
   30SAPC   O11 3972   6.597   1.774   6.228 -0.4189  0.0130  0.4705
   30SAPC    C1 3973   6.493   1.749   6.322  0.1810  0.4761 -0.3302
   30SAPC    HA 3974   6.407   1.814   6.296  2.2900  2.9943 -1.2807
   30SAPC    HB 3975   6.454   1.646   6.313  0.4282  0.5123 -1.8959
   30SAPC    C2 3976   6.540   1.781   6.466  0.2341  0.2339  0.2523
   30SAPC    HS 3977   6.580   1.884   6.458  0.6152 -0.1355 -3.2778
   30SAPC   O21 3978   6.635   1.687   6.517  0.0070 -0.8646 -0.2839
   30SAPC   C21 3979   6.752   1.702   6.482 -0.0601 -0.5611 -0.2535
   30SAPC   O22 3980   6.795   1.800   6.421 -0.3854 -0.3776 -0.6071
   30SAPC   C22 3981   6.838   1.584   6.517 -0.0840  0.0937  0.2405
   30SAPC   H2R 3982   6.854   1.528   6.423 -1.3927  0.9124 -0.4932
   30SAPC   H2S 3983   6.940   1.621   6.537 -0.4262  1.6910 -0.8662
   30SAPC    C3 3984   6.419   1.783   6.567 -0.3986  0.2207  0.6838
   30SAPC    HX 3985   6.361   1.689   6.554 -1.0182  0.8078 -0.9842
   30SAPC    HY 3986   6.355   1.861   6.520  0.4901  0.9162  0.6251
   30SAPC   O31 3987   6.450   1.807   6.704 -0.3169  0.4220 -0.9365
   30SAPC   C31 3988   6.409   1.718   6.798 -0.3425 -0.2418 -0.4593
   30SAPC   O32 3989   6.357   1.613   6.775  0.0475 -0.2440  0.1631
   30SAPC   C32 3990   6.436   1.777   6.930  0.0830  0.0703  0.0328
   30SAPC   H2X 3991   6.525   1.842   6.919  0.0894 -0.0647 -0.7650
   30SAPC   H2Y 3992   6.445   1.698   7.008 -1.5751 -0.3882 -0.2199
   30SAPC   C23 3993   6.782   1.492   6.623  0.2361  0.4537 -0.0104
   30SAPC   H3R 3994   6.833   1.393   6.620  1.1327  0.8646  1.0212
   30SAPC   H3S 3995   6.682   1.449   6.602  0.3423 -1.2279  2.5885
   30SAPC   C24 3996   6.787   1.555   6.766 -0.3915 -0.4176  0.4778
   30SAPC   H4R 3997   6.769   1.664   6.763  0.1672 -0.1764  3.9084
   30SAPC   H4S 3998   6.892   1.565   6.802 -0.0100 -0.7069 -0.5499
   30SAPC   C25 3999   6.710   1.481   6.871  0.2389  0.6440 -0.0452
   30SAPC   H5R 4000   6.640   1.404   6.836 -1.2899  1.4539  1.2010
   30SAPC   C26 4001   6.730   1.475   7.006 -0.5088  0.1058  0.1959
   30SAPC   H6R 4002   6.653   1.428   7.069 -1.5749  3.2910  1.3802
   30SAPC   C27 4003   6.841   1.544   7.084  0.3089 -0.8475 -0.1291
   30SAPC   H7R 4004   6.925   1.555   7.012 -0.4605  2.2440 -0.6108
   30SAPC   H7S 4005   6.881   1.477   7.163  0.5985 -0.8226 -0.2520
   30SAPC   C28 4006   6.807   1.677   7.144  0.1536  0.2087  0.2284
   30SAPC   H8R 4007   6.783   1.755   7.071  0.3012 -0.4878 -0.5665
   30SAPC   C29 4008   6.800   1.710   7.272  0.5792 -0.0865  0.5517
   30SAPC   H9R 4009   6.792   1.818   7.294  1.4585  0.0931  0.0034
   30SAPC  C210 4010   6.827   1.623   7.399 -0.2406  0.1774 -0.8664
   30SAPC  H10R 4011   6.930   1.631   7.442  0.0940 -0.5421 -1.5120
   30SAPC  H10S 4012   6.833   1.521   7.356  1.8522 -0.0136 -0.1902
   30SAPC  C211 4013   6.715   1.626   7.503 -0.0166 -0.0712  0.2874
   30SAPC  H11R 4014   6.609   1.626   7.473  0.4832  0.7356 -1.5173
   30SAPC  C212 4015   6.746   1.623   7.636  0.4020 -0.7424 -0.6398
   30SAPC  H12R 4016   6.666   1.624   7.711  0.0264  2.0459 -1.0285
   30SAPC  C213 4017   6.880   1.627   7.704 -0.1995 -0.3449  0.0342
   30SAPC  H13R 4018   6.959   1.617   7.627 -0.5188 -2.0344 -0.1049
   30SAPC  H13S 4019   6.887   1.550   7.783 -0.2780  0.2328  0.6121
   30SAPC  C214 4020   6.908   1.761   7.773 -0.0281 -0.3820 -0.1924
   30SAPC  H14R 4021   6.945   1.839   7.706  0.7892  0.1249  0.8449
   30SAPC  C215 4022   6.874   1.789   7.901 -0.0157  0.7053 -0.3553
   30SAPC  H15R 4023   6.903   1.882   7.952  1.0386  0.4951 -0.5638
   30SAPC  C216 4024   6.809   1.687   7.996 -0.4065 -0.1071  0.4279
   30SAPC  H16R 4025   6.729   1.627   7.948 -1.1812  0.3639  1.1021
   30SAPC  H16S 4026   6.754   1.753   8.068 -0.6859  0.3967 -0.2412
   30SAPC  C217 4027   6.906   1.604   8.083 -0.1067  0.2955  0.2898
   30SAPC  H17R 4028   6.960   1.664   8.160 -0.8239 -0.3097  1.2798
   30SAPC  H17S 4029   6.984   1.560   8.018  2.4214  2.1123  1.9669
   30SAPC  C218 4030   6.831   1.487   8.151  0.3432 -0.3822 -0.0661
   30SAPC  H18R 4031   6.798   1.413   8.075 -0.7707 -0.5774  0.6082
   30SAPC  H18S 4032   6.738   1.525   8.199  0.3449  0.8206 -0.9836
   30SAPC  C219 4033   6.918   1.405   8.249 -0.1266 -0.5815  0.8646
   30SAPC  H19R 4034   6.958   1.484   8.317  0.8645 -0.4277  0.1176
   30SAPC  H19S 4035   7.011   1.378   8.194  1.0463  0.7751  2.1328
   30SAPC  C220 4036   6.851   1.287   8.309  0.0345 -0.5729  0.0435
   30SAPC  H20R 4037   6.897   1.190   8.281 -0.5295 -0.7983 -0.1162
   30SAPC  H20S 4038   6.748   1.285   8.267  0.0718  2.6094 -0.3015
   30SAPC  H20T 4039   6.839   1.293   8.419 -1.2643  0.9454 -0.1543
   30SAPC   C33 4040   6.316   1.865   6.969 -0.8159 -0.5809  0.2764
   30SAPC   H3X 4041   6.220   1.811   6.984 -0.6852 -1.3901 -1.6489
   30SAPC   H3Y 4042   6.294   1.945   6.895 -1.7069  0.3222  1.4966
   30SAPC   C34 4043   6.344   1.939   7.100  0.1037 -0.1418 -0.4423
   30SAPC   H4X 4044   6.257   2.006   7.119 -0.1238 -0.4207 -0.4816
   30SAPC   H4Y 4045   6.434   2.000   7.081 -0.5662  0.4598 -1.7753
   30SAPC   C35 4046   6.368   1.836   7.222  0.4650  0.5748 -0.2121
   30SAPC   H5X 4047   6.460   1.774   7.214  1.4131  1.6517  1.9299
   30SAPC   H5Y 4048   6.281   1.769   7.237 -0.0213  1.5759  1.6941
   30SAPC   C36 4049   6.373   1.907   7.353  0.3958 -0.4250  0.1189
   30SAPC   H6X 4050   6.283   1.972   7.360  1.4261  1.0375 -0.0293
   30SAPC   H6Y 4051   6.467   1.965   7.363  0.2712 -0.2683  0.4088
   30SAPC   C37 4052   6.351   1.802   7.469 -0.1580 -0.4573  0.3474
   30SAPC   H7X 4053   6.420   1.716   7.455  0.2007  0.2057 -2.1367
   30SAPC   H7Y 4054   6.245   1.768   7.466  0.2343 -1.5841 -1.3933
   30SAPC   C38 4055   6.383   1.867   7.604  0.5861 -0.2830  0.0633
   30SAPC   H8X 4056   6.310   1.946   7.629  1.0036  0.7934 -2.0892
   30SAPC   H8Y 4057   6.488   1.902   7.609  0.4117  0.3659 -0.7567
   30SAPC   C39 4058   6.351   1.767   7.712  0.7055 -0.8084 -0.1042
   30SAPC   H9X 4059   6.419   1.680   7.705  0.0367 -1.3650  0.3144
   30SAPC   H9Y 4060   6.249   1.728   7.696 -1.1930  3.3886  1.0328
   30SAPC  C310 4061   6.350   1.841   7.846  0.0951  0.5779  0.0475
   30SAPC  H10X 4062   6.296   1.937   7.832  0.1752  0.4847 -0.9598
   30SAPC  H10Y 4063   6.454   1.865   7.878 -0.5076  1.0809  1.6708
   30SAPC  C311 4064   6.277   1.767   7.960 -0.1149 -1.0165 -0.2663
   30SAPC  H11X 4065   6.174   1.768   7.918 -0.0062 -0.5402 -0.5243
   30SAPC  H11Y 4066   6.285   1.820   8.057 -5.0403 -1.5224  0.5820
   30SAPC  C312 4067   6.333   1.623   7.981 -0.0421 -0.6471 -0.3947
   30SAPC  H12X 4068   6.439   1.596   7.962 -0.2625 -0.0036 -2.7387
   30SAPC  H12Y 4069   6.279   1.560   7.907  1.2977 -0.9686 -1.1190
   30SAPC  C313 4070   6.311   1.570   8.126 -0.5271 -0.0974  0.1868
   30SAPC  H13X 4071   6.308   1.459   8.136 -2.0294  0.0514  1.4712
   30SAPC  H13Y 4072   6.217   1.618   8.159 -0.3717 -0.4635  1.1805
   30SAPC  C314 4073   6.419   1.616   8.223 -0.3500  0.6084 -0.0249
   30SAPC  H14X 4074   6.417   1.727   8.234 -2.4631  0.4363  1.8599
   30SAPC  H14Y 4075   6.519   1.586   8.186 -1.3523 -1.5553 -1.0737
   30SAPC  C315 4076   6.410   1.541   8.356 -0.1498 -0.5119 -0.6482
   30SAPC  H15X 4077   6.401   1.432   8.334 -1.6692 -1.2976  3.4215
   30SAPC  H15Y 4078   6.313   1.563   8.405  1.3948  0.8388  1.8762
   30SAPC  C316 4079   6.514   1.581   8.463 -1.0406  0.1942  0.3305
   30SAPC  H16X 4080   6.605   1.530   8.427  0.3241  0.8801  2.7127
   30SAPC  H16Y 4081   6.486   1.523   8.554 -1.0249 -1.5563 -0.7559
   30SAPC  C317 4082   6.527   1.728   8.497 -0.0572 -0.1175 -0.1016
   30SAPC  H17X 4083   6.521   1.749   8.606 -3.0171  1.7319 -0.5724
   30SAPC  H17Y 4084   6.436   1.768   8.447  0.2796  0.3526 -0.3454
   30SAPC  C318 4085   6.648   1.784   8.429 -0.1358 -0.4287  0.4599
   30SAPC  H18X 4086   6.634   1.753   8.323  1.9953 -2.0391  0.6075
   30SAPC  H18Y 4087   6.741   1.748   8.478  0.3331  0.9182  0.5873
   30SAPC  H18Z 4088   6.639   1.895   8.422 -3.6507 -0.7927 -1.8463
   31SAPC     N 4089   0.190   2.764   6.095 -0.6645  0.2108  0.2446
   31SAPC   C12 4090   0.333   2.738   6.132 -0.4358  0.3058  0.4008
   31SAPC  H12A 4091   0.406   2.813   6.102  1.4602 -1.2969  0.8986
   31SAPC  H12B 4092   0.359   2.645   6.084  1.0122  0.3376  1.1042
   31SAPC   C13 4093   0.172   2.758   5.944 -0.5131  0.1178 -0.2394
   31SAPC  H13A 4094   0.252   2.818   5.902  0.4724 -2.1808 -1.7633
   31SAPC  H13B 4095   0.177   2.653   5.917  2.1854 -0.4029  1.9746
   31SAPC  H13C 4096   0.077   2.803   5.923 -0.0065  1.2336 -0.1837
   31SAPC   C14 4097   0.095   2.661   6.146  0.7347 -0.5567 -0.0364
   31SAPC  H14A 4098   0.130   2.568   6.104  1.9586  0.3195 -0.9898
   31SAPC  H14B 4099   0.094   2.662   6.254  0.5379  1.1464 -0.0419
   31SAPC  H14C 4100  -0.007   2.687   6.123  1.5091  2.5103 -0.2372
   31SAPC   C15 4101   0.152   2.903   6.158  0.2603  0.7625 -0.5183
   31SAPC  H15A 4102   0.207   2.985   6.115  2.2700 -0.6098 -0.6428
   31SAPC  H15B 4103   0.045   2.921   6.153 -0.0801 -0.7996  0.8201
   31SAPC  H15C 4104   0.189   2.904   6.259  2.6997 -1.8612 -1.2940
   31SAPC   C11 4105   0.360   2.709   6.282 -0.2288  0.0279 -0.7448
   31SAPC  H11A 4106   0.310   2.780   6.351  0.4337 -1.0559  0.8896
   31SAPC  H11B 4107   0.469   2.728   6.293 -0.6952  1.8601  0.8541
   31SAPC     P 4108   0.421   2.452   6.284  0.1545 -0.4642  0.3399
   31SAPC   O13 4109   0.358   2.328   6.327 -0.2434  0.3606  0.2708
   31SAPC   O14 4110   0.451   2.459   6.139 -0.1878  0.2688  0.1066
   31SAPC   O12 4111   0.327   2.580   6.309 -0.1975  0.2101 -0.6919
   31SAPC   O11 4112   0.557   2.476   6.357 -0.1411 -0.9220  0.2893
   31SAPC    C1 4113   0.579   2.534   6.483 -0.5493 -0.0274  0.3971
   31SAPC    HA 4114   0.603   2.641   6.465 -0.3409  0.0068  0.8720
   31SAPC    HB 4115   0.485   2.525   6.541 -2.0343 -1.5246 -2.1484
   31SAPC    C2 4116   0.707   2.474   6.547 -0.2498 -0.3060  0.2671
   31SAPC    HS 4117   0.786   2.486   6.470  0.6352 -0.5609  1.1171
   31SAPC   O21 4118   0.684   2.337   6.570 -0.0061 -0.1783 -0.3086
   31SAPC   C21 4119   0.797   2.269   6.602 -0.0857 -0.3429  0.4938
   31SAPC   O22 4120   0.911   2.306   6.584  0.2950  0.0954  0.0677
   31SAPC   C22 4121   0.755   2.139   6.663 -0.2432  0.1143 -1.1564
   31SAPC   H2R 4122   0.675   2.148   6.741 -0.5656 -1.5404 -1.2654
   31SAPC   H2S 4123   0.725   2.073   6.579  1.0479 -2.3748  0.2778
   31SAPC    C3 4124   0.755   2.553   6.674 -0.2628  0.4353  0.2474
   31SAPC    HX 4125   0.765   2.656   6.634  0.3868 -0.0399 -0.8549
   31SAPC    HY 4126   0.857   2.519   6.702  0.1570  0.5239 -1.1567
   31SAPC   O31 4127   0.672   2.543   6.786  0.3431 -0.2724  0.2274
   31SAPC   C31 4128   0.564   2.620   6.801  0.4605  0.5498 -0.2819
   31SAPC   O32 4129   0.521   2.705   6.725 -0.3051  0.2969  0.1991
   31SAPC   C32 4130   0.499   2.578   6.930  0.2758  1.0558  0.0327
   31SAPC   H2X 4131   0.478   2.469   6.926 -0.1183  1.1619 -1.1386
   31SAPC   H2Y 4132   0.400   2.620   6.957  0.6839  1.8983  0.2377
   31SAPC   C23 4133   0.878   2.075   6.736  0.1156 -0.2513 -0.0428
   31SAPC   H3R 4134   0.980   2.106   6.705  0.1881  0.5179  0.9183
   31SAPC   H3S 4135   0.876   1.965   6.722  1.8074 -0.6117  2.1466
   31SAPC   C24 4136   0.872   2.075   6.893  0.8092 -0.9580  0.0484
   31SAPC   H4R 4137   0.952   2.007   6.928  1.4386 -0.8633 -1.1701
   31SAPC   H4S 4138   0.776   2.029   6.923 -1.8142  1.3015 -4.2832
   31SAPC   C25 4139   0.879   2.209   6.966  0.2241  0.6994  0.3685
   31SAPC   H5R 4140   0.981   2.250   6.952 -0.4447  1.3390 -3.1843
   31SAPC   C26 4141   0.790   2.273   7.042  0.2675  0.0547 -0.3497
   31SAPC   H6R 4142   0.821   2.360   7.102  0.7369 -0.6997  0.5159
   31SAPC   C27 4143   0.660   2.214   7.089  0.9357  0.8626 -0.2801
   31SAPC   H7R 4144   0.604   2.178   7.000  1.1965  2.2090 -1.0034
   31SAPC   H7S 4145   0.601   2.302   7.126 -1.5011  0.2699 -2.6067
   31SAPC   C28 4146   0.674   2.112   7.207 -0.6006 -0.0841 -0.0683
   31SAPC   H8R 4147   0.677   2.008   7.172  1.5217 -0.2436  0.5123
   31SAPC   C29 4148   0.704   2.129   7.337 -0.9167  0.9456 -0.7450
   31SAPC   H9R 4149   0.720   2.046   7.407 -3.5310  0.9475 -0.0745
   31SAPC  C210 4150   0.720   2.264   7.399 -0.2737 -0.4814 -0.1034
   31SAPC  H10R 4151   0.657   2.274   7.490  1.3923 -0.8479  1.1235
   31SAPC  H10S 4152   0.674   2.349   7.345 -1.1779 -0.0155  1.3566
   31SAPC  C211 4153   0.863   2.302   7.438 -0.0089  0.0598  0.7647
   31SAPC  H11R 4154   0.943   2.249   7.385 -0.5217  0.6178 -0.5927
   31SAPC  C212 4155   0.900   2.392   7.525 -0.8603 -0.1268 -0.1744
   31SAPC  H12R 4156   1.008   2.400   7.544 -0.9800  2.2303 -0.2661
   31SAPC  C213 4157   0.814   2.478   7.617 -0.6223 -0.0421 -0.8954
   31SAPC  H13R 4158   0.773   2.408   7.692 -0.7808 -1.9205 -2.6857
   31SAPC  H13S 4159   0.721   2.509   7.565  0.5343 -0.2144 -3.1557
   31SAPC  C214 4160   0.880   2.601   7.681 -0.0917  0.6937 -0.2124
   31SAPC  H14R 4161   0.904   2.684   7.612  1.0212  1.1218  0.6629
   31SAPC  C215 4162   0.906   2.621   7.811 -0.1903 -0.4607 -0.1612
   31SAPC  H15R 4163   0.916   2.728   7.836 -0.2661 -0.3963 -0.4052
   31SAPC  C216 4164   0.874   2.519   7.918  0.3696  0.3346 -0.2347
   31SAPC  H16R 4165   0.876   2.411   7.890  0.9844  0.3814 -0.3772
   31SAPC  H16S 4166   0.773   2.535   7.961  2.1712 -0.6196  4.6507
   31SAPC  C217 4167   0.968   2.537   8.042 -0.1870 -0.4871 -0.3562
   31SAPC  H17R 4168   0.914   2.481   8.121 -2.8848 -0.5558 -2.1881
   31SAPC  H17S 4169   0.988   2.645   8.063  0.8657 -0.9269  0.9385
   31SAPC  C218 4170   1.102   2.469   8.012 -0.1959  0.0104 -0.4598
   31SAPC  H18R 4171   1.155   2.499   7.920  2.6212  0.8636  1.3643
   31SAPC  H18S 4172   1.077   2.360   8.012 -0.8948  0.1566  1.2625
   31SAPC  C219 4173   1.207   2.479   8.130 -0.5627 -0.8019  0.3082
   31SAPC  H19R 4174   1.179   2.576   8.176  2.0282  0.2892 -0.3431
   31SAPC  H19S 4175   1.315   2.480   8.104 -0.1563 -1.3570  1.8732
   31SAPC  C220 4176   1.201   2.354   8.219  0.0883 -0.5117  0.4799
   31SAPC  H20R 4177   1.270   2.340   8.305 -1.2612  0.9529  1.8168
   31SAPC  H20S 4178   1.225   2.264   8.158  2.1230  0.0710  0.3611
   31SAPC  H20T 4179   1.095   2.327   8.237  0.4279 -0.9532  1.8743
   31SAPC   C33 4180   0.594   2.612   7.047  0.6648  0.4342  1.2675
   31SAPC   H3X 4181   0.636   2.715   7.037 -0.6741  0.7798 -1.4779
   31SAPC   H3Y 4182   0.685   2.549   7.052 -1.2648 -2.5936  0.1161
   31SAPC   C34 4183   0.525   2.608   7.182  0.6082  0.4167  0.6030
   31SAPC   H4X 4184   0.610   2.581   7.249 -0.1769  0.8443  1.7810
   31SAPC   H4Y 4185   0.467   2.513   7.188 -2.3369  2.0556 -1.0751
   31SAPC   C35 4186   0.445   2.728   7.232 -0.2113  0.3535 -0.2137
   31SAPC   H5X 4187   0.370   2.771   7.161  0.7825 -0.4352 -1.7813
   31SAPC   H5Y 4188   0.503   2.820   7.254  0.5940  0.5128 -2.8414
   31SAPC   C36 4189   0.381   2.709   7.371  0.3799  0.2853  0.0387
   31SAPC   H6X 4190   0.301   2.635   7.348  0.8704 -0.0457 -0.6338
   31SAPC   H6Y 4191   0.335   2.803   7.407 -2.1043 -1.1659  0.7627
   31SAPC   C37 4192   0.481   2.645   7.460 -0.2178  0.4970 -0.0209
   31SAPC   H7X 4193   0.581   2.692   7.457  0.1578 -0.3331 -0.8800
   31SAPC   H7Y 4194   0.504   2.538   7.438 -0.7492  0.7203 -1.7688
   31SAPC   C38 4195   0.426   2.643   7.602  0.7727 -0.4277  0.1232
   31SAPC   H8X 4196   0.315   2.637   7.603  0.6821 -0.5938 -3.8281
   31SAPC   H8Y 4197   0.461   2.740   7.643  1.6452  0.2246 -2.0777
   31SAPC   C39 4198   0.486   2.542   7.703 -0.0426  0.3375 -0.3196
   31SAPC   H9X 4199   0.582   2.579   7.743 -0.2184 -1.5534  1.9520
   31SAPC   H9Y 4200   0.502   2.450   7.642  1.7186  0.9029 -0.7257
   31SAPC  C310 4201   0.404   2.507   7.831 -0.1378 -0.5205 -0.2524
   31SAPC  H10X 4202   0.439   2.418   7.888  0.3897 -0.4993 -0.5392
   31SAPC  H10Y 4203   0.301   2.486   7.798  0.6151 -3.0596 -1.0908
   31SAPC  C311 4204   0.399   2.625   7.925 -0.4009  0.6655 -0.6011
   31SAPC  H11X 4205   0.341   2.707   7.878 -1.1558 -0.0460 -0.9280
   31SAPC  H11Y 4206   0.502   2.657   7.951  0.3420 -0.1734 -2.3714
   31SAPC  C312 4207   0.328   2.581   8.054  0.4006  1.0630 -0.9642
   31SAPC  H12X 4208   0.387   2.507   8.114  0.1188  1.4350 -0.2238
   31SAPC  H12Y 4209   0.232   2.529   8.033  2.0286 -3.0216  1.1693
   31SAPC  C313 4210   0.305   2.693   8.161  0.0557 -0.3363 -1.2226
   31SAPC  H13X 4211   0.232   2.770   8.127 -2.3871 -2.0432 -0.0457
   31SAPC  H13Y 4212   0.407   2.729   8.184  1.3976 -3.1656 -2.5091
   31SAPC  C314 4213   0.262   2.637   8.296 -0.0676 -0.5765  0.4741
   31SAPC  H14X 4214   0.325   2.553   8.332  0.0357 -0.6549  0.1147
   31SAPC  H14Y 4215   0.156   2.607   8.286 -0.0979 -0.7927  1.3553
   31SAPC  C315 4216   0.258   2.745   8.410  0.3503 -0.0516  0.4637
   31SAPC  H15X 4217   0.203   2.834   8.375 -0.3154 -0.1554  1.2223
   31SAPC  H15Y 4218   0.364   2.774   8.426  0.5566 -0.6466  0.1991
   31SAPC  C316 4219   0.179   2.702   8.540 -0.0472 -0.8819  0.4700
   31SAPC  H16X 4220   0.076   2.670   8.514 -0.1380  0.9502 -1.5743
   31SAPC  H16Y 4221   0.172   2.796   8.598  0.5024 -0.2411 -0.4943
   31SAPC  C317 4222   0.253   2.594   8.621 -0.2221 -0.7498 -0.5614
   31SAPC  H17X 4223   0.361   2.620   8.623 -0.4059 -0.0519  0.6980
   31SAPC  H17Y 4224   0.250   2.502   8.557  1.0137 -1.2370  0.0682
   31SAPC  C318 4225   0.182   2.580   8.756  0.0516 -1.2626 -0.1398
   31SAPC  H18X 4226   0.225   2.492   8.809  0.0665 -1.6263 -0.7523
   31SAPC  H18Y 4227   0.076   2.550   8.742 -0.0726 -0.6848 -0.4315
   31SAPC  H18Z 4228   0.197   2.667   8.823  2.2898 -1.3522 -0.5044
   32SAPC     N 4229   2.975   3.299   5.918 -0.3674 -0.0057 -0.3241
   32SAPC   C12 4230   2.857   3.295   6.008  0.7352 -0.8285 -0.6102
   32SAPC  H12A 4231   2.886   3.323   6.108  0.7386  0.3994 -0.9382
   32SAPC  H12B 4232   2.816   3.195   6.007  2.9596 -1.7589 -0.6995
   32SAPC   C13 4233   3.090   3.226   5.981 -0.3131  0.3753 -0.7994
   32SAPC  H13A 4234   3.155   3.281   6.048  0.3770 -0.6977 -0.5776
   32SAPC  H13B 4235   3.050   3.147   6.042  0.9089  0.4079  0.0831
   32SAPC  H13C 4236   3.156   3.186   5.905 -0.6211 -0.5236 -0.6003
   32SAPC   C14 4237   2.961   3.224   5.791 -0.4418  0.1620  0.4099
   32SAPC  H14A 4238   3.048   3.227   5.727 -0.1680 -0.3076  0.7592
   32SAPC  H14B 4239   2.947   3.119   5.810  2.5890 -0.7748 -2.1375
   32SAPC  H14C 4240   2.873   3.252   5.734  1.5081 -0.8978 -3.3105
   32SAPC   C15 4241   3.016   3.439   5.876 -0.1691 -0.5599  0.0051
   32SAPC  H15A 4242   3.111   3.434   5.824  1.4718  0.9784  2.7238
   32SAPC  H15B 4243   2.936   3.475   5.814  1.0225 -0.6948 -1.6341
   32SAPC  H15C 4244   3.028   3.511   5.956  0.1704 -0.7232  0.1011
   32SAPC   C11 4245   2.739   3.392   5.981 -0.5465  0.4210 -0.5200
   32SAPC  H11A 4246   2.647   3.347   6.025 -0.0144 -0.0990  0.0594
   32SAPC  H11B 4247   2.720   3.405   5.872  1.2558  0.1695 -0.8758
   32SAPC     P 4248   2.719   3.560   6.181  0.2420 -0.2608  0.2755
   32SAPC   O13 4249   2.823   3.502   6.275  0.2385  0.5812  0.0601
   32SAPC   O14 4250   2.708   3.704   6.181  0.4227  0.0099  0.2837
   32SAPC   O12 4251   2.762   3.517   6.038 -0.0166 -0.0319  0.3364
   32SAPC   O11 4252   2.580   3.490   6.210 -0.8432 -0.3921 -0.5898
   32SAPC    C1 4253   2.556   3.382   6.301 -0.4492 -0.2415  0.1267
   32SAPC    HA 4254   2.470   3.324   6.261 -0.9341  1.0245 -0.6755
   32SAPC    HB 4255   2.644   3.317   6.321  2.1246  3.0282 -0.1014
   32SAPC    C2 4256   2.527   3.443   6.442  0.5245  0.2785  0.3199
   32SAPC    HS 4257   2.464   3.533   6.426 -0.2808 -0.5819 -1.4136
   32SAPC   O21 4258   2.652   3.462   6.513  1.0081  0.0947 -0.0263
   32SAPC   C21 4259   2.673   3.577   6.565  0.0765  0.4876 -0.6839
   32SAPC   O22 4260   2.597   3.668   6.574  0.6255  0.2073  0.0414
   32SAPC   C22 4261   2.825   3.580   6.590 -0.0036  0.2380  0.4062
   32SAPC   H2R 4262   2.865   3.477   6.583 -2.4607 -0.8637  1.9924
   32SAPC   H2S 4263   2.876   3.645   6.515 -3.1665  2.2809 -0.0922
   32SAPC    C3 4264   2.443   3.339   6.513 -0.3663 -0.3598  0.5077
   32SAPC    HX 4265   2.491   3.239   6.505 -2.3421 -1.4918  2.3200
   32SAPC    HY 4266   2.352   3.327   6.450  0.2533  1.0061 -0.6818
   32SAPC   O31 4267   2.416   3.386   6.651  0.2398  0.2771  0.1905
   32SAPC   C31 4268   2.492   3.335   6.743 -0.2717 -0.0675 -0.1047
   32SAPC   O32 4269   2.583   3.253   6.730 -0.1815 -0.2987  0.0718
   32SAPC   C32 4270   2.446   3.389   6.881 -0.5316  1.0314 -0.1819
   32SAPC   H2X 4271   2.335   3.388   6.888 -0.4255  1.8644  1.8181
   32SAPC   H2Y 4272   2.462   3.499   6.884 -0.0635  0.9330  1.0568
   32SAPC   C23 4273   2.865   3.647   6.721  0.4133 -0.5884 -0.1769
   32SAPC   H3R 4274   2.827   3.751   6.722 -0.5615 -0.9442  2.6479
   32SAPC   H3S 4275   2.970   3.660   6.754 -0.1435  1.4656  0.8493
   32SAPC   C24 4276   2.804   3.579   6.842  0.1922  0.2428 -0.1465
   32SAPC   H4R 4277   2.694   3.589   6.859  0.5175  1.3593  1.4472
   32SAPC   H4S 4278   2.849   3.623   6.933 -0.6137 -2.4212  1.6083
   32SAPC   C25 4279   2.833   3.431   6.848  0.4174  0.1682  1.3500
   32SAPC   H5R 4280   2.790   3.370   6.766  2.4214  1.7699 -0.9676
   32SAPC   C26 4281   2.918   3.370   6.926 -0.2863  0.8616 -0.0318
   32SAPC   H6R 4282   2.914   3.261   6.945 -0.7527  1.0221  0.8476
   32SAPC   C27 4283   3.001   3.431   7.035 -0.2750  0.1649 -0.2030
   32SAPC   H7R 4284   2.930   3.469   7.111 -1.3865 -0.7755 -0.7479
   32SAPC   H7S 4285   3.054   3.520   6.995 -2.5695  2.2958  1.4315
   32SAPC   C28 4286   3.107   3.334   7.098 -0.2720 -0.2199  0.6710
   32SAPC   H8R 4287   3.191   3.295   7.039  0.0661 -0.4615  1.3182
   32SAPC   C29 4288   3.089   3.279   7.220  0.0554 -0.3845  0.4688
   32SAPC   H9R 4289   3.160   3.206   7.262  2.4212  1.0894 -0.8645
   32SAPC  C210 4290   2.971   3.299   7.312  0.2278 -0.2394  0.0172
   32SAPC  H10R 4291   2.945   3.207   7.369 -0.8911  1.3546  2.1595
   32SAPC  H10S 4292   2.878   3.309   7.253 -1.6118 -0.9838  2.6729
   32SAPC  C211 4293   2.992   3.413   7.415 -0.1887 -0.7954  0.3259
   32SAPC  H11R 4294   3.024   3.513   7.383 -0.0987 -0.1468  2.3804
   32SAPC  C212 4295   2.980   3.407   7.552  0.7251  0.6796  0.1721
   32SAPC  H12R 4296   3.006   3.497   7.611  0.2323 -0.9034  2.8615
   32SAPC  C213 4297   2.944   3.280   7.627  0.1869 -0.3835 -0.1926
   32SAPC  H13R 4298   2.927   3.192   7.560  0.2489 -0.0881 -0.5991
   32SAPC  H13S 4299   2.848   3.286   7.681 -0.1839  1.3799 -0.9968
   32SAPC  C214 4300   3.056   3.257   7.730  0.2441 -0.2427  0.1457
   32SAPC  H14R 4301   3.109   3.350   7.754 -1.0097  0.7947 -1.0086
   32SAPC  C215 4302   3.089   3.143   7.786 -0.0597 -0.6376 -0.0336
   32SAPC  H15R 4303   3.172   3.143   7.858 -0.0251  1.0873 -0.0559
   32SAPC  C216 4304   3.023   3.010   7.757  0.0776 -0.0506 -0.0073
   32SAPC  H16R 4305   3.088   2.955   7.686 -0.3069 -2.2666  1.3245
   32SAPC  H16S 4306   2.921   3.025   7.715 -0.2425 -1.9985  0.0521
   32SAPC  C217 4307   3.019   2.921   7.878  0.0724 -0.1976 -0.1427
   32SAPC  H17R 4308   3.119   2.922   7.925  0.8864  0.8507 -1.8323
   32SAPC  H17S 4309   3.010   2.819   7.835  1.1610  0.2246 -1.4397
   32SAPC  C218 4310   2.913   2.961   7.984 -0.3215 -0.2127 -0.3599
   32SAPC  H18R 4311   2.884   3.067   7.966  1.7182  0.3719 -0.2829
   32SAPC  H18S 4312   2.956   2.957   8.086  0.5834 -0.9902 -0.7671
   32SAPC  C219 4313   2.790   2.869   7.976 -0.0617  0.0790 -0.2822
   32SAPC  H19R 4314   2.716   2.904   8.052  0.8037  0.3497  0.4536
   32SAPC  H19S 4315   2.825   2.765   7.998  1.6795  0.3491 -1.6597
   32SAPC  C220 4316   2.728   2.858   7.840 -0.6158  0.1970  0.6441
   32SAPC  H20R 4317   2.647   2.782   7.836  1.1529 -1.7014  0.1932
   32SAPC  H20S 4318   2.800   2.823   7.763  0.0572 -0.2372  1.4495
   32SAPC  H20T 4319   2.694   2.954   7.795  0.1644 -0.5310 -1.5538
   32SAPC   C33 4320   2.511   3.323   7.010 -0.7613  0.2114 -0.9954
   32SAPC   H3X 4321   2.622   3.330   7.001 -0.3351  2.2578  4.0729
   32SAPC   H3Y 4322   2.474   3.219   7.012  1.7526 -0.7134  0.5761
   32SAPC   C34 4323   2.471   3.398   7.142  0.3311 -0.1938  0.0528
   32SAPC   H4X 4324   2.362   3.394   7.161  0.2284  3.8047  0.6147
   32SAPC   H4Y 4325   2.493   3.507   7.139 -1.4326  0.1485 -3.1997
   32SAPC   C35 4326   2.528   3.334   7.268 -0.4813  1.1315  0.2964
   32SAPC   H5X 4327   2.637   3.353   7.271 -0.5355  1.2380  2.3594
   32SAPC   H5Y 4328   2.497   3.229   7.286  1.4035  0.3561 -0.9014
   32SAPC   C36 4329   2.470   3.405   7.398 -0.2654  0.6721 -0.8521
   32SAPC   H6X 4330   2.360   3.391   7.399 -0.0247 -1.2780  1.3654
   32SAPC   H6Y 4331   2.495   3.513   7.391 -1.1394  0.8188 -1.8839
   32SAPC   C37 4332   2.531   3.353   7.532  0.4919 -0.2307  0.5712
   32SAPC   H7X 4333   2.640   3.368   7.519  0.6793  0.9731  3.1505
   32SAPC   H7Y 4334   2.509   3.245   7.539 -0.6158 -0.1108 -0.7156
   32SAPC   C38 4335   2.481   3.434   7.661 -0.4585  0.0184  0.6253
   32SAPC   H8X 4336   2.370   3.430   7.660 -0.5291  1.4760 -0.0736
   32SAPC   H8Y 4337   2.517   3.539   7.648  0.5729 -0.2347  1.3731
   32SAPC   C39 4338   2.540   3.397   7.795 -0.6775 -0.2505 -0.1841
   32SAPC   H9X 4339   2.517   3.485   7.860 -0.8123  0.2833 -0.9512
   32SAPC   H9Y 4340   2.650   3.387   7.791 -0.5808 -0.0246  1.3340
   32SAPC  C310 4341   2.470   3.280   7.841 -0.2931  0.1194 -0.1983
   32SAPC  H10X 4342   2.464   3.192   7.772 -1.2268 -0.4933  0.6534
   32SAPC  H10Y 4343   2.364   3.312   7.852 -0.8313 -1.3742 -0.7566
   32SAPC  C311 4344   2.518   3.225   7.973 -0.2088  0.6821 -0.5123
   32SAPC  H11X 4345   2.623   3.190   7.961  0.4226  1.9196  1.1554
   32SAPC  H11Y 4346   2.469   3.128   7.996  3.4549 -1.0417  0.4017
   32SAPC  C312 4347   2.507   3.325   8.085  0.0369  0.6367 -0.3782
   32SAPC  H12X 4348   2.406   3.368   8.069 -0.3988  0.7389  2.4141
   32SAPC  H12Y 4349   2.586   3.397   8.054  0.8632 -0.2859 -0.4401
   32SAPC  C313 4350   2.519   3.252   8.219 -0.3369  0.5507  0.5090
   32SAPC  H13X 4351   2.607   3.185   8.231  1.4372  2.6650 -0.3409
   32SAPC  H13Y 4352   2.433   3.183   8.219  1.2609 -1.5114 -0.7590
   32SAPC  C314 4353   2.515   3.345   8.336 -0.4600  0.3124 -0.2517
   32SAPC  H14X 4354   2.422   3.404   8.319 -1.1075 -0.9368 -1.0688
   32SAPC  H14Y 4355   2.595   3.422   8.339  1.7954 -1.9446 -0.3575
   32SAPC  C315 4356   2.520   3.269   8.465  0.1916 -0.2079 -0.0176
   32SAPC  H15X 4357   2.628   3.249   8.482  0.6043  0.8310 -1.4257
   32SAPC  H15Y 4358   2.462   3.174   8.465 -1.8983  1.0349  0.9975
   32SAPC  C316 4359   2.469   3.360   8.580 -0.5471 -0.0691  0.3772
   32SAPC  H16X 4360   2.362   3.368   8.550 -0.3527 -1.3236 -0.6931
   32SAPC  H16Y 4361   2.524   3.455   8.564  0.8127 -0.6026  1.8593
   32SAPC  C317 4362   2.472   3.304   8.721  0.3510  0.2761 -0.5569
   32SAPC  H17X 4363   2.463   3.386   8.795  1.0274  1.3614 -1.6721
   32SAPC  H17Y 4364   2.573   3.263   8.740 -0.6378 -0.9673  2.4837
   32SAPC  C318 4365   2.352   3.215   8.742 -0.1522  0.6710  0.1916
   32SAPC  H18X 4366   2.257   3.273   8.748  0.4154  1.6171  0.0950
   32SAPC  H18Y 4367   2.366   3.167   8.841 -1.4621  1.6668  0.8683
   32SAPC  H18Z 4368   2.358   3.139   8.661 -0.6076  2.2909 -1.3974
   33POPC     N 4369   1.015   4.783  10.941  0.2177 -0.4488 -0.5928
   33POPC   C12 4370   0.885   4.795  10.859  0.4425 -0.1304 -0.3131
   33POPC  H12A 4371   0.892   4.883  10.796  3.4775  0.8357  1.2833
   33POPC  H12B 4372   0.807   4.825  10.927  1.0536  1.0370 -0.0982
   33POPC   C13 4373   1.013   4.662  11.034  0.3851  0.1675  0.1606
   33POPC  H13A 4374   0.914   4.663  11.076 -0.6350  0.8923 -2.1671
   33POPC  H13B 4375   1.017   4.571  10.976  0.3231  1.7206 -2.4112
   33POPC  H13C 4376   1.095   4.665  11.104  0.9467  3.4961 -0.5671
   33POPC   C14 4377   1.127   4.765  10.845 -0.0114 -0.0680  0.5166
   33POPC  H14A 4378   1.224   4.761  10.892  1.4904 -1.8077 -2.6000
   33POPC  H14B 4379   1.120   4.666  10.803  0.8025  0.3318 -0.5799
   33POPC  H14C 4380   1.134   4.844  10.771 -0.4373  0.4894  1.0639
   33POPC   C15 4381   1.041   4.912  11.011  0.1762  0.7173  0.2009
   33POPC  H15A 4382   1.015   4.995  10.947 -0.8897 -0.3783 -0.8049
   33POPC  H15B 4383   1.148   4.909  11.024 -0.2007 -1.7043  3.3482
   33POPC  H15C 4384   1.011   4.920  11.115  3.0402 -0.9390  1.2171
   33POPC   C11 4385   0.840   4.684  10.753 -0.6558  0.4063  0.1239
   33POPC  H11A 4386   0.750   4.723  10.701 -0.4671 -0.8325 -1.1781
   33POPC  H11B 4387   0.808   4.598  10.816 -0.3261  2.0184  2.5711
   33POPC     P 4388   0.930   4.515  10.583 -0.2640  0.0290 -0.2340
   33POPC   O13 4389   0.906   4.397  10.669 -0.6217  0.4509 -0.0941
   33POPC   O14 4390   1.048   4.500  10.500  0.2028 -0.0722 -0.0300
   33POPC   O12 4391   0.949   4.648  10.662 -0.1952  0.0394 -0.3309
   33POPC   O11 4392   0.806   4.542  10.485 -0.2995 -0.4820  0.7853
   33POPC    C1 4393   0.734   4.434  10.416 -0.8550 -0.7890 -0.2653
   33POPC    HA 4394   0.776   4.333  10.436 -0.9984 -0.7886  0.0290
   33POPC    HB 4395   0.626   4.432  10.441 -0.8525 -0.8110 -0.2562
   33POPC    C2 4396   0.729   4.443  10.261 -0.1829  0.3882  0.3237
   33POPC    HS 4397   0.659   4.361  10.233  0.4288  0.2677 -0.9162
   33POPC   O21 4398   0.860   4.421  10.211  0.0669  0.0410 -0.2770
   33POPC   C21 4399   0.870   4.362  10.095 -0.3023 -0.8978 -0.2143
   33POPC   O22 4400   0.781   4.303  10.038 -1.1752  0.3119  0.1207
   33POPC   C22 4401   1.015   4.352  10.064  0.5483  0.5189  0.0448
   33POPC   H2R 4402   1.028   4.247  10.030  2.0458  0.7640 -0.1920
   33POPC   H2S 4403   1.082   4.357  10.153 -1.8133 -0.0747  1.9214
   33POPC    C3 4404   0.680   4.585  10.218  0.5902 -0.2438 -0.1759
   33POPC    HX 4405   0.761   4.660  10.232 -1.6509  2.3475 -0.4894
   33POPC    HY 4406   0.610   4.628  10.293  1.1105  2.0795 -0.9486
   33POPC   O31 4407   0.617   4.589  10.091 -0.4895 -0.1393  0.2359
   33POPC   C31 4408   0.700   4.624   9.993 -0.1754 -0.1332  0.1186
   33POPC   O32 4409   0.818   4.668  10.010  0.6578  0.1456 -0.0711
   33POPC   C32 4410   0.632   4.595   9.860  0.1811 -0.4017 -0.3256
   33POPC   H2X 4411   0.562   4.681   9.842 -0.5278 -0.9135 -0.0391
   33POPC   H2Y 4412   0.577   4.499   9.870 -0.9403  0.4580  2.3289
   33POPC   C23 4413   1.048   4.450   9.949 -0.2379  0.1287  0.5815
   33POPC   H3R 4414   1.057   4.556   9.980  0.8933 -0.2263  1.5301
   33POPC   H3S 4415   0.963   4.450   9.877  0.3237  0.9010 -0.0875
   33POPC   C24 4416   1.167   4.400   9.867 -0.4801 -0.1941  0.1147
   33POPC   H4R 4417   1.246   4.373   9.940  1.7512  1.0626 -1.8057
   33POPC   H4S 4418   1.212   4.481   9.807  1.6242 -1.2468  0.2250
   33POPC   C25 4419   1.137   4.285   9.773  0.4455 -0.7894 -0.5324
   33POPC   H5R 4420   1.070   4.227   9.841  0.0868  0.1427 -0.0857
   33POPC   H5S 4421   1.229   4.226   9.753  1.6605 -0.6468  4.0351
   33POPC   C26 4422   1.079   4.337   9.645  0.4186 -0.4539  0.1256
   33POPC   H6R 4423   1.161   4.396   9.598  0.7874 -0.3951  0.8331
   33POPC   H6S 4424   0.997   4.411   9.654  2.3766  1.6916  0.7170
   33POPC   C27 4425   1.043   4.237   9.541  0.3062  0.2781 -1.0070
   33POPC   H7R 4426   0.975   4.160   9.585  0.4351  0.1013 -1.1140
   33POPC   H7S 4427   1.138   4.179   9.532  0.4854 -0.9340  5.5999
   33POPC   C28 4428   1.012   4.298   9.402 -0.1506  0.7295  0.3214
   33POPC   H8R 4429   1.112   4.330   9.367  0.8972 -1.9353  0.7392
   33POPC   H8S 4430   0.949   4.389   9.413  2.0948  2.4218 -0.5459
   33POPC   C29 4431   0.940   4.190   9.318  0.1707  0.2185 -0.0176
   33POPC   H91 4432   0.842   4.153   9.349  1.4049 -1.9002  1.4533
   33POPC  C210 4433   0.978   4.154   9.194 -0.1479  0.1631  0.5827
   33POPC  H101 4434   0.902   4.096   9.138 -0.3339  0.5769  0.4036
   33POPC  C211 4435   1.096   4.204   9.116 -0.3522 -0.5325 -0.1221
   33POPC  H11R 4436   1.174   4.131   9.087 -0.3956  0.0117 -1.6194
   33POPC  H11S 4437   1.154   4.281   9.173 -1.8788 -0.8983  1.9972
   33POPC  C212 4438   1.053   4.266   8.979 -0.7912 -0.1233  0.8851
   33POPC  H12R 4439   1.151   4.293   8.934 -1.1018  1.5452  1.1782
   33POPC  H12S 4440   1.003   4.364   8.989  0.4558  0.8853 -2.3464
   33POPC  C213 4441   0.958   4.173   8.888  0.1527  0.0130  0.4114
   33POPC  H13R 4442   0.930   4.236   8.801  3.2629 -0.7731 -1.2441
   33POPC  H13S 4443   0.860   4.157   8.938  1.2023  0.2211  2.5724
   33POPC  C214 4444   1.021   4.041   8.833  0.2243 -0.0133  0.3374
   33POPC  H14R 4445   1.123   4.048   8.788 -1.0805  0.2796 -2.6700
   33POPC  H14S 4446   0.962   4.021   8.742 -0.6107  0.9571  0.6565
   33POPC  C215 4447   0.999   3.922   8.934 -0.4632 -0.1570 -0.2045
   33POPC  H15R 4448   0.893   3.914   8.964 -0.3085 -4.5878 -0.5044
   33POPC  H15S 4449   1.060   3.947   9.023  1.2598  0.1403 -1.4233
   33POPC  C216 4450   1.050   3.789   8.875 -0.4811 -0.7461 -0.2879
   33POPC  H16R 4451   0.998   3.756   8.782 -0.9665  0.2688 -0.3803
   33POPC  H16S 4452   1.026   3.710   8.950 -2.2511 -0.3956 -0.4606
   33POPC  C217 4453   1.212   3.784   8.860 -0.0753  0.2173  0.2420
   33POPC  H17R 4454   1.247   3.795   8.965 -0.0497 -1.1785  0.3909
   33POPC  H17S 4455   1.244   3.874   8.803  3.7261 -1.1924 -0.0278
   33POPC  C218 4456   1.259   3.661   8.794 -0.2115 -0.2713  0.2753
   33POPC  H18R 4457   1.203   3.586   8.853 -0.8703  1.6657  2.1837
   33POPC  H18S 4458   1.371   3.661   8.797 -0.2160  1.8874  1.6160
   33POPC  H18T 4459   1.225   3.653   8.689  1.7134  0.4592 -0.4333
   33POPC   C33 4460   0.717   4.601   9.729  0.6477 -0.0809 -0.0966
   33POPC   H3X 4461   0.805   4.534   9.737  0.7512  0.0810  0.1376
   33POPC   H3Y 4462   0.747   4.707   9.716  0.7650 -0.1523 -0.4192
   33POPC   C34 4463   0.635   4.547   9.618 -0.6491 -0.0005 -0.1897
   33POPC   H4X 4464   0.673   4.595   9.525  1.7787  1.2411  1.4028
   33POPC   H4Y 4465   0.526   4.569   9.625 -0.1510  2.1304  1.3921
   33POPC   C35 4466   0.655   4.398   9.591  0.1595  0.7790 -0.1242
   33POPC   H5X 4467   0.656   4.347   9.689 -1.1737  1.0329  0.0346
   33POPC   H5Y 4468   0.758   4.377   9.556 -0.1292 -4.1081  1.5472
   33POPC   C36 4469   0.566   4.332   9.483 -0.8313 -0.0585 -0.0765
   33POPC   H6X 4470   0.466   4.336   9.533 -1.0225 -0.5546 -0.4157
   33POPC   H6Y 4471   0.591   4.224   9.472 -2.8545 -0.7724  1.8550
   33POPC   C37 4472   0.576   4.403   9.347 -0.1877  0.3735  0.3181
   33POPC   H7X 4473   0.669   4.381   9.290  0.4600  3.6021  0.0265
   33POPC   H7Y 4474   0.579   4.512   9.368 -0.3968  0.3804  0.3118
   33POPC   C38 4475   0.445   4.375   9.260 -0.4871  0.7612 -0.0769
   33POPC   H8X 4476   0.360   4.414   9.320 -1.0722 -0.3154 -0.1900
   33POPC   H8Y 4477   0.435   4.264   9.259 -0.9648  0.8064 -1.0482
   33POPC   C39 4478   0.441   4.451   9.129  0.3259 -0.4141  0.7444
   33POPC   H9X 4479   0.537   4.438   9.075 -0.1977 -2.0514  0.1629
   33POPC   H9Y 4480   0.437   4.560   9.151  1.3399 -0.3207  0.4825
   33POPC  C310 4481   0.317   4.421   9.044  0.2884  0.3938 -0.2209
   33POPC  H10X 4482   0.317   4.312   9.020  1.1656  0.5720 -1.0842
   33POPC  H10Y 4483   0.322   4.453   8.938 -2.7643 -1.4692 -0.9588
   33POPC  C311 4484   0.189   4.454   9.098  0.1766  0.0154 -0.3932
   33POPC  H11X 4485   0.198   4.549   9.155 -0.7573 -0.8239  1.1768
   33POPC  H11Y 4486   0.164   4.374   9.170  1.2488  1.3451  1.5004
   33POPC  C312 4487   0.073   4.472   8.990 -0.0516  0.1440 -0.3744
   33POPC  H12X 4488  -0.027   4.467   9.039 -0.8684 -0.0948 -2.0320
   33POPC  H12Y 4489   0.076   4.392   8.914 -1.1424  1.7502 -2.1547
   33POPC  C313 4490   0.078   4.602   8.913 -0.1926  0.1292  0.0810
   33POPC  H13X 4491   0.168   4.615   8.850  0.9961  1.2668  1.9554
   33POPC  H13Y 4492   0.066   4.684   8.987  1.0008 -1.0292  1.5673
   33POPC  C314 4493  -0.038   4.623   8.810 -0.1681 -0.0791  0.4762
   33POPC  H14X 4494  -0.126   4.650   8.872 -1.6040 -1.4020 -0.9435
   33POPC  H14Y 4495  -0.047   4.531   8.749 -0.7387  0.1460  0.2175
   33POPC  C315 4496  -0.004   4.731   8.709  0.2328 -0.6794  0.1825
   33POPC  H15X 4497   0.094   4.718   8.658  1.1101  3.1411  0.7615
   33POPC  H15Y 4498   0.007   4.824   8.768  0.9259 -0.1141 -0.8155
   33POPC  C316 4499  -0.110   4.745   8.590 -1.2291 -0.4077 -0.6533
   33POPC  H16X 4500  -0.114   4.653   8.528 -0.7448 -0.6097 -0.3866
   33POPC  H16Y 4501  -0.083   4.830   8.523 -0.2301 -1.9023 -2.1964
   33POPC  H16Z 4502  -0.210   4.765   8.634 -0.7489 -1.1965  0.8171
   34POPC     N 4503   0.196   4.925  10.724 -0.2890  0.8082  0.2670
   34POPC   C12 4504   0.318   5.024  10.728 -0.3775 -0.2489 -0.1692
   34POPC  H12A 4505   0.288   5.101  10.797  2.1502  1.4165 -0.8810
   34POPC  H12B 4506   0.327   5.073  10.631 -1.0486 -1.7973 -1.0354
   34POPC   C13 4507   0.080   5.000  10.736 -0.2457 -0.3225  0.4949
   34POPC  H13A 4508   0.089   5.075  10.814  0.6653  1.1162 -0.9683
   34POPC  H13B 4509   0.059   5.052  10.644  0.2172  0.7191  0.9582
   34POPC  H13C 4510  -0.009   4.940  10.745 -1.9446  1.7453 -1.9227
   34POPC   C14 4511   0.191   4.840  10.599 -0.2369 -0.1303  0.3873
   34POPC  H14A 4512   0.207   4.901  10.512 -1.2854  1.1193  1.0452
   34POPC  H14B 4513   0.263   4.760  10.596 -1.6190 -1.3462 -1.8624
   34POPC  H14C 4514   0.100   4.790  10.570  0.3905 -1.5716  0.8558
   34POPC   C15 4515   0.199   4.826  10.838 -0.7065  0.7078 -1.0498
   34POPC  H15A 4516   0.287   4.763  10.843 -0.8990  0.4573 -0.8147
   34POPC  H15B 4517   0.111   4.764  10.831 -0.4900  0.2559  0.2254
   34POPC  H15C 4518   0.195   4.890  10.925 -0.8352  2.6889 -2.4696
   34POPC   C11 4519   0.447   4.968  10.784 -0.0278 -0.4367  0.2151
   34POPC  H11A 4520   0.473   4.872  10.735  0.2990  0.0376 -0.5429
   34POPC  H11B 4521   0.428   4.937  10.889 -2.3664  1.6918  0.4618
   34POPC     P 4522   0.636   5.096  10.646 -0.0419  0.0610 -0.0583
   34POPC   O13 4523   0.760   5.016  10.672 -0.2143  0.4973 -0.5780
   34POPC   O14 4524   0.671   5.237  10.647 -0.0601  0.4421  0.2840
   34POPC   O12 4525   0.548   5.070  10.773 -0.4989 -0.8395 -0.8319
   34POPC   O11 4526   0.563   5.049  10.516 -0.3958  0.2287 -0.3561
   34POPC    C1 4527   0.653   5.012  10.407 -1.8625  0.4708  0.5334
   34POPC    HA 4528   0.723   4.934  10.443 -0.8334  1.4464  0.6931
   34POPC    HB 4529   0.722   5.096  10.385 -0.8319 -0.5899 -0.3645
   34POPC    C2 4530   0.577   4.947  10.292 -0.4505  0.1817 -0.0386
   34POPC    HS 4531   0.652   4.885  10.238  2.1039  1.6851  1.7296
   34POPC   O21 4532   0.509   5.036  10.200  0.1458  0.4385 -0.5297
   34POPC   C21 4533   0.592   5.088  10.107  0.2916  0.2707 -0.0359
   34POPC   O22 4534   0.711   5.072  10.105  0.0527 -0.3424  0.0596
   34POPC   C22 4535   0.502   5.154  10.005  0.4977  0.6426  0.6611
   34POPC   H2R 4536   0.554   5.215   9.928  0.8551 -1.9222 -1.1900
   34POPC   H2S 4537   0.450   5.224  10.073 -0.6218  0.0096  0.4624
   34POPC    C3 4538   0.473   4.845  10.355 -0.1724  0.6520  0.1986
   34POPC    HX 4539   0.393   4.895  10.415  0.1672  2.7039 -0.9976
   34POPC    HY 4540   0.515   4.776  10.432 -0.3676  0.7253  0.3733
   34POPC   O31 4541   0.418   4.760  10.255  0.1521  0.0106 -0.4790
   34POPC   C31 4542   0.307   4.796  10.193  1.3486 -0.2157 -0.3315
   34POPC   O32 4543   0.243   4.899  10.216  0.1587  0.1704  0.2517
   34POPC   C32 4544   0.268   4.694  10.089  0.2122 -0.1400 -0.1908
   34POPC   H2X 4545   0.272   4.592  10.133 -0.8622  0.2755  0.8995
   34POPC   H2Y 4546   0.348   4.695  10.012 -0.3607 -0.8479 -0.8017
   34POPC   C23 4547   0.397   5.060   9.930 -0.3343  0.7938  0.9222
   34POPC   H3R 4548   0.327   5.108   9.859  1.8628  1.5019 -0.8428
   34POPC   H3S 4549   0.335   4.996   9.997 -0.6053 -0.7962 -0.7964
   34POPC   C24 4550   0.472   4.967   9.839 -0.5922  0.2039  0.1493
   34POPC   H4R 4551   0.411   4.877   9.812  0.1948 -0.6030  1.0555
   34POPC   H4S 4552   0.561   4.925   9.890  0.5983 -0.0756 -2.0688
   34POPC   C25 4553   0.511   5.028   9.704  0.2258  0.5046  0.3822
   34POPC   H5R 4554   0.580   5.107   9.739  1.7660 -0.9867  0.7983
   34POPC   H5S 4555   0.420   5.071   9.657 -0.3156  0.3989  1.3198
   34POPC   C26 4556   0.597   4.941   9.612 -0.3214  0.2337 -0.5283
   34POPC   H6R 4557   0.546   4.844   9.593 -1.2407  0.8589 -1.2978
   34POPC   H6S 4558   0.692   4.913   9.661  0.1565  1.0635 -0.9734
   34POPC   C27 4559   0.616   5.003   9.473 -0.1207  0.5931  0.1047
   34POPC   H7R 4560   0.675   5.096   9.490  0.7640 -0.1711  1.2813
   34POPC   H7S 4561   0.513   5.033   9.444  0.0820 -0.3757 -1.6312
   34POPC   C28 4562   0.677   4.906   9.376 -0.3317  0.6407 -0.4573
   34POPC   H8R 4563   0.627   4.806   9.375  1.7392 -0.4370  0.7010
   34POPC   H8S 4564   0.784   4.893   9.401 -0.1918  1.6254 -0.5569
   34POPC   C29 4565   0.678   4.974   9.239  0.6651 -0.2969  0.6252
   34POPC   H91 4566   0.729   5.071   9.240  0.7210 -0.3283  0.9254
   34POPC  C210 4567   0.604   4.942   9.126  0.5452  0.1495 -0.2636
   34POPC  H101 4568   0.611   4.998   9.032  1.5503 -0.7420 -0.7194
   34POPC  C211 4569   0.515   4.825   9.112 -0.1309 -0.1135  0.3514
   34POPC  H11R 4570   0.521   4.748   9.193 -2.1584 -0.9737 -0.2802
   34POPC  H11S 4571   0.547   4.776   9.018  0.0005 -1.3828  1.0503
   34POPC  C212 4572   0.372   4.863   9.075  0.3238 -0.5917  1.0570
   34POPC  H12R 4573   0.340   4.932   9.156  2.4557 -0.2400  1.6389
   34POPC  H12S 4574   0.306   4.775   9.091 -0.5645  0.0006  0.6898
   34POPC  C213 4575   0.352   4.917   8.927  0.6391  0.4271 -0.8590
   34POPC  H13R 4576   0.324   4.836   8.857  0.4224  0.3180 -0.6468
   34POPC  H13S 4577   0.446   4.971   8.900  0.4458  0.9387 -0.5180
   34POPC  C214 4578   0.229   5.009   8.911  0.0565  0.2759 -0.2104
   34POPC  H14R 4579   0.225   5.080   8.996 -1.2627 -0.4388  0.3344
   34POPC  H14S 4580   0.135   4.950   8.902 -0.7971  1.5273  0.3946
   34POPC  C215 4581   0.239   5.091   8.778  0.6868  0.3490 -0.6911
   34POPC  H15R 4582   0.224   5.030   8.686 -0.2442 -0.2064 -0.1728
   34POPC  H15S 4583   0.339   5.141   8.785  2.2101 -2.5092 -1.3678
   34POPC  C216 4584   0.127   5.206   8.779  1.1391 -0.0635 -0.3341
   34POPC  H16R 4585   0.116   5.265   8.873 -2.2149 -0.3778 -0.4751
   34POPC  H16S 4586   0.033   5.147   8.770  2.0244 -1.5511 -0.1153
   34POPC  C217 4587   0.148   5.293   8.655  0.3315 -0.7989 -0.4914
   34POPC  H17R 4588   0.250   5.335   8.666 -0.1473 -0.0023  1.1908
   34POPC  H17S 4589   0.085   5.385   8.665  2.3301  0.3276  2.3328
   34POPC  C218 4590   0.136   5.220   8.520 -0.3443 -0.5343 -0.4795
   34POPC  H18R 4591   0.036   5.175   8.510  0.3451 -2.0994 -0.4598
   34POPC  H18S 4592   0.202   5.133   8.504 -1.4798 -1.7317  1.1571
   34POPC  H18T 4593   0.156   5.292   8.437  0.0704 -0.0357  0.0409
   34POPC   C33 4594   0.133   4.710  10.013 -0.6016 -0.5732  0.0742
   34POPC   H3X 4595   0.126   4.810   9.966  1.1363 -0.1078  0.7679
   34POPC   H3Y 4596   0.045   4.690  10.079 -2.1982  0.4457 -1.6933
   34POPC   C34 4597   0.114   4.616   9.897 -0.0588 -0.1630 -0.3414
   34POPC   H4X 4598   0.005   4.622   9.873 -0.8244 -0.5619  2.8034
   34POPC   H4Y 4599   0.137   4.512   9.926 -1.6409  0.4165  3.3101
   34POPC   C35 4600   0.184   4.661   9.770 -0.4020  0.1439 -0.5726
   34POPC   H5X 4601   0.279   4.604   9.772 -0.7834 -0.5049 -0.8558
   34POPC   H5Y 4602   0.195   4.772   9.771  0.0351  0.1097 -1.1769
   34POPC   C36 4603   0.101   4.636   9.641  0.0250 -0.3916  0.0469
   34POPC   H6X 4604   0.042   4.728   9.618  1.2929  1.1490  2.7181
   34POPC   H6Y 4605   0.032   4.557   9.675 -0.9975  1.0251  1.3551
   34POPC   C37 4606   0.186   4.590   9.514 -0.3036 -0.5680  0.7617
   34POPC   H7X 4607   0.121   4.583   9.424  0.3710 -2.4380  0.3939
   34POPC   H7Y 4608   0.237   4.492   9.527 -0.7163 -0.8782  0.0821
   34POPC   C38 4609   0.286   4.694   9.466 -0.3666 -1.3463  0.2730
   34POPC   H8X 4610   0.357   4.651   9.393 -0.4343 -1.0286  0.0198
   34POPC   H8Y 4611   0.345   4.720   9.557  1.7000  1.6982 -1.8329
   34POPC   C39 4612   0.229   4.830   9.410 -0.0509 -0.5266  0.2694
   34POPC   H9X 4613   0.310   4.894   9.370  0.3335 -1.0817  0.1445
   34POPC   H9Y 4614   0.185   4.884   9.497 -1.4432 -0.0944 -0.6799
   34POPC  C310 4615   0.115   4.805   9.314 -0.4377 -0.2330 -0.0458
   34POPC  H10X 4616   0.034   4.754   9.370  0.6042 -1.2836  0.4933
   34POPC  H10Y 4617   0.162   4.738   9.239 -0.4478 -1.7221  1.2701
   34POPC  C311 4618   0.047   4.932   9.274  0.0926  0.0580  0.4149
   34POPC  H11X 4619   0.108   4.997   9.207  0.3914  0.9876  1.5618
   34POPC  H11Y 4620   0.037   4.993   9.366 -1.1189 -1.2101  1.1338
   34POPC  C312 4621  -0.088   4.911   9.211 -0.3443  0.0419  0.1112
   34POPC  H12X 4622  -0.155   4.847   9.272  0.7472 -0.9540  0.2887
   34POPC  H12Y 4623  -0.070   4.858   9.115  2.0946 -1.1109  1.1344
   34POPC  C313 4624  -0.149   5.041   9.184  0.7304 -0.2147  0.6588
   34POPC  H13X 4625  -0.256   5.025   9.158  1.2976 -1.2307 -1.2095
   34POPC  H13Y 4626  -0.113   5.079   9.085 -0.6013 -0.6096  0.0123
   34POPC  C314 4627  -0.123   5.156   9.286 -0.2550  0.1134  0.0243
   34POPC  H14X 4628  -0.016   5.183   9.284 -0.0838 -0.6558 -2.2945
   34POPC  H14Y 4629  -0.139   5.109   9.386  2.5122 -2.0243 -0.4938
   34POPC  C315 4630  -0.228   5.267   9.280 -0.6690  0.2193  0.2589
   34POPC  H15X 4631  -0.327   5.215   9.272 -0.3984 -0.1926 -0.5101
   34POPC  H15Y 4632  -0.218   5.323   9.184 -0.3437  1.1800  0.8508
   34POPC  C316 4633  -0.207   5.364   9.394 -0.2905  0.0750  0.1185
   34POPC  H16X 4634  -0.198   5.301   9.484  1.5245 -0.1095 -0.1773
   34POPC  H16Y 4635  -0.302   5.421   9.404  0.6728  1.9652 -1.0246
   34POPC  H16Z 4636  -0.112   5.421   9.381 -0.4517  0.2382 -0.3728
   35POPC     N 4637   6.734   2.420  11.096  0.0277  0.2621 -0.4063
   35POPC   C12 4638   6.599   2.472  11.154  0.7806  0.1578 -0.7136
   35POPC  H12A 4639   6.596   2.448  11.259  0.2272  0.3265 -0.6859
   35POPC  H12B 4640   6.516   2.411  11.122  2.6523 -2.2465 -1.1006
   35POPC   C13 4641   6.742   2.451  10.951  0.9083  0.4859 -0.0832
   35POPC  H13A 4642   6.754   2.557  10.937 -0.3523  0.7323  0.6552
   35POPC  H13B 4643   6.831   2.412  10.904  0.9826  1.5210 -0.8065
   35POPC  H13C 4644   6.652   2.417  10.901  0.2312 -0.1306  1.5259
   35POPC   C14 4645   6.854   2.492  11.159 -0.2476 -0.3676  0.1152
   35POPC  H14A 4646   6.841   2.600  11.155  1.1809 -0.2309 -1.3921
   35POPC  H14B 4647   6.867   2.456  11.260  0.1603  0.0469  0.2151
   35POPC  H14C 4648   6.942   2.460  11.106 -1.2135 -1.1722 -0.9969
   35POPC   C15 4649   6.760   2.277  11.114  0.1243 -0.0728  0.4613
   35POPC  H15A 4650   6.788   2.264  11.218 -2.8115  0.2188  1.3206
   35POPC  H15B 4651   6.853   2.260  11.062 -0.2546 -0.8197  0.0159
   35POPC  H15C 4652   6.677   2.213  11.090  0.9798 -1.1233  0.2377
   35POPC   C11 4653   6.575   2.618  11.129  0.6071  0.2967 -0.0821
   35POPC  H11A 4654   6.598   2.650  11.025  1.0753 -0.3732 -0.1888
   35POPC  H11B 4655   6.641   2.681  11.192 -1.1322  0.2431  1.8460
   35POPC     P 4656   6.314   2.589  11.097 -0.0001  0.4438  0.2440
   35POPC   O13 4657   6.191   2.666  11.138  0.0930  0.0496  0.1578
   35POPC   O14 4658   6.321   2.444  11.131  0.3924 -0.0440 -0.0951
   35POPC   O12 4659   6.442   2.657  11.162 -0.4122  0.3662 -0.0841
   35POPC   O11 4660   6.338   2.629  10.952  0.3293 -0.3562 -0.2168
   35POPC    C1 4661   6.327   2.767  10.916  0.5986  0.9458  0.2872
   35POPC    HA 4662   6.431   2.806  10.916  0.1618  2.1658  1.8085
   35POPC    HB 4663   6.266   2.831  10.983  2.9113  2.5978  0.8661
   35POPC    C2 4664   6.241   2.789  10.790 -0.2355 -1.1038 -0.0836
   35POPC    HS 4665   6.137   2.753  10.804 -1.6915  2.5636 -0.8769
   35POPC   O21 4666   6.304   2.731  10.674 -0.6631  0.5094 -0.2049
   35POPC   C21 4667   6.233   2.648  10.602  0.3058 -0.0753  0.0077
   35POPC   O22 4668   6.118   2.612  10.625  0.3266 -0.5856  0.3218
   35POPC   C22 4669   6.310   2.590  10.485 -0.4335  1.0647 -0.1592
   35POPC   H2R 4670   6.313   2.481  10.506 -1.5606  0.6439 -2.1059
   35POPC   H2S 4671   6.413   2.633  10.475 -0.0306  0.2799  0.5602
   35POPC    C3 4672   6.221   2.942  10.760  0.8940  0.8785  0.3346
   35POPC    HX 4673   6.321   2.988  10.750  1.2255  0.7554  2.8201
   35POPC    HY 4674   6.173   2.998  10.844 -1.4883  1.7903 -1.5679
   35POPC   O31 4675   6.149   2.959  10.635  0.6234  0.1908  0.2730
   35POPC   C31 4676   6.021   2.936  10.636  0.1735  0.4022 -0.1230
   35POPC   O32 4677   5.952   2.897  10.728 -0.5843 -0.6454  0.1789
   35POPC   C32 4678   5.964   2.953  10.498  1.0800 -0.1134  0.2025
   35POPC   H2X 4679   6.036   2.969  10.415 -0.9778  1.9019 -1.2362
   35POPC   H2Y 4680   5.910   3.049  10.508  0.8482  0.0617 -2.4513
   35POPC   C23 4681   6.252   2.622  10.344 -0.2106 -0.5794  0.5539
   35POPC   H3R 4682   6.144   2.599  10.341 -0.3217 -0.1631  1.2015
   35POPC   H3S 4683   6.290   2.543  10.276 -1.0820 -1.1390  0.7144
   35POPC   C24 4684   6.291   2.761  10.294  0.9163 -0.2499  0.3785
   35POPC   H4R 4685   6.402   2.771  10.290  0.9986 -1.5770 -1.3102
   35POPC   H4S 4686   6.251   2.835  10.367  1.0808 -1.5748  1.8451
   35POPC   C25 4687   6.244   2.817  10.159  0.4575  0.4184 -0.2289
   35POPC   H5R 4688   6.306   2.908  10.144  0.2577  0.3528 -1.4850
   35POPC   H5S 4689   6.136   2.843  10.161  0.1694 -0.7751  0.2225
   35POPC   C26 4690   6.274   2.726  10.038  0.7170 -0.4648  0.1481
   35POPC   H6R 4691   6.238   2.625  10.066 -0.2500  0.6295  3.0555
   35POPC   H6S 4692   6.385   2.727  10.030  0.7103  0.2896  0.0894
   35POPC   C27 4693   6.216   2.777   9.903  0.5353  0.4974  0.2875
   35POPC   H7R 4694   6.254   2.875   9.865  2.0530 -0.6654 -1.2932
   35POPC   H7S 4695   6.107   2.790   9.920 -0.0752 -2.3997 -1.1960
   35POPC   C28 4696   6.236   2.668   9.797 -0.2444 -0.0108 -0.7331
   35POPC   H8R 4697   6.151   2.691   9.729 -0.3025  2.6999  0.1788
   35POPC   H8S 4698   6.205   2.568   9.833 -3.5662  0.6749 -1.5492
   35POPC   C29 4699   6.374   2.659   9.732  0.0465  0.6664  0.0188
   35POPC   H91 4700   6.459   2.655   9.801 -1.9830  0.9897  2.6078
   35POPC  C210 4701   6.397   2.669   9.594 -0.6900  1.0379  0.0617
   35POPC  H101 4702   6.500   2.673   9.556 -0.5655 -0.9251  0.1454
   35POPC  C211 4703   6.294   2.692   9.485  0.0622  0.6285  1.0464
   35POPC  H11R 4704   6.203   2.741   9.526  1.6093  2.4398  2.4427
   35POPC  H11S 4705   6.254   2.592   9.459 -0.6320  1.3914 -0.9252
   35POPC  C212 4706   6.331   2.766   9.356  0.4332  0.1772 -0.4037
   35POPC  H12R 4707   6.355   2.868   9.394  0.0308  0.0937  0.0930
   35POPC  H12S 4708   6.242   2.781   9.290 -0.0937  0.6657  0.3983
   35POPC  C213 4709   6.431   2.692   9.260 -0.1446 -0.3171 -0.3061
   35POPC  H13R 4710   6.370   2.602   9.235  0.0612 -1.1597  2.0819
   35POPC  H13S 4711   6.519   2.660   9.320 -0.2429 -0.4193 -0.2132
   35POPC  C214 4712   6.474   2.769   9.133 -0.5056  0.5047  0.2437
   35POPC  H14R 4713   6.545   2.709   9.072  0.2695  4.0321 -2.5206
   35POPC  H14S 4714   6.520   2.867   9.157 -1.1698  0.8922 -0.0415
   35POPC  C215 4715   6.351   2.792   9.034 -0.0349  0.0910  0.0265
   35POPC  H15R 4716   6.272   2.851   9.086 -0.9989 -0.8114 -0.4008
   35POPC  H15S 4717   6.307   2.696   9.000 -1.6118  1.2957 -1.3819
   35POPC  C216 4718   6.392   2.860   8.906 -0.1427  0.1506  0.2234
   35POPC  H16R 4719   6.481   2.804   8.870  0.6905  0.9763  0.9480
   35POPC  H16S 4720   6.428   2.960   8.941 -1.6670  1.6760 -2.4303
   35POPC  C217 4721   6.282   2.875   8.803  0.3301 -0.0825 -0.8384
   35POPC  H17R 4722   6.196   2.923   8.854  0.4971 -1.4858  0.8125
   35POPC  H17S 4723   6.231   2.782   8.772 -1.8488  1.7282 -2.8601
   35POPC  C218 4724   6.327   2.952   8.673  0.2490 -0.0486  0.0663
   35POPC  H18R 4725   6.391   2.892   8.604 -0.8458 -2.1589  0.8143
   35POPC  H18S 4726   6.399   3.029   8.709  1.6089 -1.3465  0.2038
   35POPC  H18T 4727   6.240   2.986   8.613 -1.2757 -0.1174  2.2039
   35POPC   C33 4728   5.877   2.841  10.444 -0.2378  0.0767 -0.3832
   35POPC   H3X 4729   5.794   2.816  10.514 -1.4599  2.3203 -0.9646
   35POPC   H3Y 4730   5.935   2.751  10.417 -1.3221 -0.4211 -1.0793
   35POPC   C34 4731   5.812   2.882  10.314 -0.3779 -0.4103  0.1409
   35POPC   H4X 4732   5.866   2.959  10.254 -3.3510  0.4987 -1.4960
   35POPC   H4Y 4733   5.719   2.937  10.339 -0.0530 -0.6309  1.8839
   35POPC   C35 4734   5.770   2.768  10.216 -0.0107 -1.1880 -0.2093
   35POPC   H5X 4735   5.685   2.703  10.247 -0.4182 -1.8723 -2.6539
   35POPC   H5Y 4736   5.856   2.701  10.193  0.8845  0.0566 -0.5405
   35POPC   C36 4737   5.716   2.831  10.078 -0.0055 -0.9471  0.1690
   35POPC   H6X 4738   5.780   2.918  10.051 -2.3718  0.8148  0.1158
   35POPC   H6Y 4739   5.612   2.867  10.083  0.0548 -0.5649 -1.3618
   35POPC   C37 4740   5.729   2.731   9.967  0.3908 -0.6134  0.2168
   35POPC   H7X 4741   5.679   2.639  10.002  0.3076 -1.2947 -1.6460
   35POPC   H7Y 4742   5.836   2.703   9.955 -0.0377 -2.3434  0.3451
   35POPC   C38 4743   5.662   2.785   9.845  0.8312  0.0788 -0.5541
   35POPC   H8X 4744   5.687   2.889   9.813  0.8399 -0.5447 -2.6371
   35POPC   H8Y 4745   5.552   2.784   9.863  0.6603  1.3023 -1.3906
   35POPC   C39 4746   5.701   2.693   9.722  0.2581 -0.8307 -0.1709
   35POPC   H9X 4747   5.683   2.585   9.739 -1.7770 -0.2405  1.7590
   35POPC   H9Y 4748   5.807   2.722   9.707 -0.3187  1.0211 -0.8057
   35POPC  C310 4749   5.616   2.732   9.599 -0.8313 -0.1977 -0.8428
   35POPC  H10X 4750   5.634   2.841   9.599  0.1584 -0.3570 -0.7264
   35POPC  H10Y 4751   5.509   2.722   9.628 -0.5044 -2.2804 -0.2485
   35POPC  C311 4752   5.673   2.654   9.480 -0.3501 -0.0916  1.4972
   35POPC  H11X 4753   5.663   2.545   9.499  0.7020 -0.7932 -1.5669
   35POPC  H11Y 4754   5.782   2.672   9.478 -0.7703  2.5865  1.6269
   35POPC  C312 4755   5.607   2.684   9.348  0.0433 -0.3627  0.5893
   35POPC  H12X 4756   5.611   2.794   9.331  0.7592 -0.3368  0.9174
   35POPC  H12Y 4757   5.500   2.655   9.348 -0.1162  0.2006 -0.3397
   35POPC  C313 4758   5.682   2.610   9.236 -0.1315 -0.1490 -0.3095
   35POPC  H13X 4759   5.687   2.502   9.264 -0.1543  0.3136  1.5619
   35POPC  H13Y 4760   5.784   2.654   9.234 -0.1073 -0.2459 -1.5156
   35POPC  C314 4761   5.613   2.639   9.103 -0.0621 -0.1126 -0.0819
   35POPC  H14X 4762   5.606   2.750   9.097 -0.3625 -0.0249  1.7670
   35POPC  H14Y 4763   5.511   2.597   9.104 -0.5251  0.9066 -1.8052
   35POPC  C315 4764   5.689   2.591   8.978  0.2065  0.0130 -0.2136
   35POPC  H15X 4765   5.696   2.480   8.984  1.3940  0.1524  1.4257
   35POPC  H15Y 4766   5.792   2.632   8.988  0.2225  0.7755 -3.0914
   35POPC  C316 4767   5.635   2.646   8.848  0.1871 -0.0678 -0.3061
   35POPC  H16X 4768   5.524   2.639   8.842  0.2564 -2.0370  0.2047
   35POPC  H16Y 4769   5.690   2.599   8.764  1.8218  0.1135  0.6469
   35POPC  H16Z 4770   5.650   2.756   8.854  3.5908 -0.3487 -2.3000
   36POPC     N 4771   5.879   1.657  11.187 -0.3189 -0.1045  0.0219
   36POPC   C12 4772   5.805   1.588  11.070 -0.4377 -0.3186 -0.1619
   36POPC  H12A 4773   5.708   1.630  11.049 -0.1874 -1.2971 -3.6177
   36POPC  H12B 4774   5.785   1.484  11.088  0.6944 -0.8404 -1.6997
   36POPC   C13 4775   5.901   1.802  11.159  0.4380 -0.0584 -0.4435
   36POPC  H13A 4776   5.803   1.848  11.157  1.0509  1.2373 -1.3201
   36POPC  H13B 4777   5.950   1.850  11.242 -0.9453  0.7166 -0.0469
   36POPC  H13C 4778   5.953   1.808  11.065 -1.3832  0.0367 -1.4768
   36POPC   C14 4779   5.790   1.655  11.307  0.4574  0.2926 -0.2110
   36POPC  H14A 4780   5.687   1.679  11.289 -0.0977  0.4580  2.8643
   36POPC  H14B 4781   5.796   1.559  11.357 -0.1205  0.6574  0.5713
   36POPC  H14C 4782   5.832   1.722  11.380  0.7529  1.4845 -1.4539
   36POPC   C15 4783   6.005   1.588  11.215  0.0654 -0.0427  0.7543
   36POPC  H15A 4784   5.984   1.488  11.251 -0.4908 -0.1716  0.0947
   36POPC  H15B 4785   6.076   1.638  11.279  1.6618 -2.6032  1.0672
   36POPC  H15C 4786   6.058   1.567  11.123 -1.6863 -2.8612  0.3192
   36POPC   C11 4787   5.876   1.588  10.930 -0.4083  0.5811 -0.0041
   36POPC  H11A 4788   5.944   1.675  10.919 -1.6406  1.3231 -2.2251
   36POPC  H11B 4789   5.803   1.595  10.846 -0.7472 -0.4586  0.1982
   36POPC     P 4790   5.885   1.334  10.878 -0.0405  0.1726  0.0954
   36POPC   O13 4791   5.753   1.362  10.819 -0.6497 -0.3395 -0.1680
   36POPC   O14 4792   5.882   1.230  10.986 -0.0387 -0.0687  0.7209
   36POPC   O12 4793   5.963   1.471  10.922  0.0310 -0.0967  0.6880
   36POPC   O11 4794   5.975   1.285  10.757 -0.6237 -0.0410 -0.0862
   36POPC    C1 4795   6.029   1.380  10.657 -0.7386 -0.0654 -0.1260
   36POPC    HA 4796   6.123   1.418  10.704 -0.2030 -1.0036 -0.4237
   36POPC    HB 4797   5.951   1.454  10.631 -0.0110  0.5601 -0.5383
   36POPC    C2 4798   6.055   1.298  10.526  0.2215  0.4556 -0.5484
   36POPC    HS 4799   6.143   1.231  10.535 -0.3730 -0.2366  0.2557
   36POPC   O21 4800   6.077   1.395  10.425 -0.3047  0.5585 -0.1135
   36POPC   C21 4801   6.201   1.457  10.423  0.1643  0.6036 -1.1608
   36POPC   O22 4802   6.285   1.442  10.505  0.0217  0.3644  0.1320
   36POPC   C22 4803   6.223   1.524  10.284 -0.7093 -1.9331 -0.0657
   36POPC   H2R 4804   6.313   1.589  10.282  0.5037 -3.5818 -1.0893
   36POPC   H2S 4805   6.146   1.603  10.277 -1.7641 -2.8827  0.6097
   36POPC    C3 4806   5.925   1.223  10.485  1.1039  0.3135  0.9976
   36POPC    HX 4807   5.843   1.297  10.489  0.2719 -0.6005  1.2063
   36POPC    HY 4808   5.896   1.146  10.560  0.4519  1.4200  1.8796
   36POPC   O31 4809   5.934   1.160  10.354 -0.3521 -0.1988  0.0032
   36POPC   C31 4810   5.994   1.037  10.358 -0.4603 -0.0582  0.6252
   36POPC   O32 4811   6.057   0.988  10.447 -0.5137  0.1158  0.3838
   36POPC   C32 4812   5.958   0.961  10.226 -1.0163 -0.1700 -0.3534
   36POPC   H2X 4813   5.849   0.982  10.213 -1.4581 -2.9270 -1.4331
   36POPC   H2Y 4814   5.967   0.850  10.227 -1.3977 -0.2332  2.4575
   36POPC   C23 4815   6.223   1.420  10.174  0.0291 -0.0887  0.0026
   36POPC   H3R 4816   6.125   1.370  10.165  0.0796  0.0290 -1.1786
   36POPC   H3S 4817   6.295   1.340  10.200 -0.3705  0.5276  3.2141
   36POPC   C24 4818   6.255   1.479  10.036 -0.2382 -0.2206  0.2449
   36POPC   H4R 4819   6.342   1.548  10.039 -1.0141  0.8714 -1.6029
   36POPC   H4S 4820   6.165   1.535  10.003 -0.2419 -0.3542  0.0283
   36POPC   C25 4821   6.282   1.372   9.936  0.4224  0.5912 -0.1569
   36POPC   H5R 4822   6.189   1.315   9.913 -1.3802  2.8769  1.2883
   36POPC   H5S 4823   6.340   1.290   9.983  0.0104  0.1836 -0.3558
   36POPC   C26 4824   6.350   1.399   9.805 -0.4019  0.2486 -0.7067
   36POPC   H6R 4825   6.454   1.430   9.830 -0.8255  0.1277  1.2937
   36POPC   H6S 4826   6.304   1.483   9.749 -1.2971  0.2001 -0.0646
   36POPC   C27 4827   6.352   1.274   9.710  0.2321  0.6498 -0.1091
   36POPC   H7R 4828   6.271   1.204   9.739  2.3717 -1.4403  1.0555
   36POPC   H7S 4829   6.437   1.210   9.742 -2.1085 -1.9509  1.1694
   36POPC   C28 4830   6.339   1.297   9.559  0.1544 -0.1757  0.2553
   36POPC   H8R 4831   6.361   1.201   9.509 -0.6100  0.4013 -1.2057
   36POPC   H8S 4832   6.405   1.384   9.542  0.6007 -0.5277  0.1973
   36POPC   C29 4833   6.202   1.346   9.522  0.1127 -0.2739 -0.2389
   36POPC   H91 4834   6.127   1.361   9.601  1.3133  1.4420  0.6183
   36POPC  C210 4835   6.175   1.370   9.390 -0.2667  0.1348 -0.6856
   36POPC  H101 4836   6.084   1.429   9.372 -0.0518  1.7386  3.0124
   36POPC  C211 4837   6.260   1.352   9.268 -0.3419 -0.7574 -0.0516
   36POPC  H11R 4838   6.350   1.295   9.299  0.0186 -0.6382 -0.8633
   36POPC  H11S 4839   6.292   1.450   9.228  0.8747 -0.7973  0.7972
   36POPC  C212 4840   6.196   1.270   9.155 -0.0206 -0.2715  0.5658
   36POPC  H12R 4841   6.171   1.163   9.172 -0.8968 -0.3502 -1.1650
   36POPC  H12S 4842   6.273   1.270   9.076 -1.1785  5.1162 -0.7929
   36POPC  C213 4843   6.072   1.325   9.083  0.0967 -0.4468  0.0813
   36POPC  H13R 4844   6.085   1.434   9.064 -0.9160 -0.4238 -0.5185
   36POPC  H13S 4845   5.990   1.316   9.158 -1.6281 -0.0728 -1.7154
   36POPC  C214 4846   6.034   1.251   8.957 -0.1405  0.0979 -0.0967
   36POPC  H14R 4847   6.126   1.215   8.904  1.6104  0.3891  2.6576
   36POPC  H14S 4848   5.988   1.326   8.889  3.6641  1.4271 -1.3736
   36POPC  C215 4849   5.954   1.120   8.976 -0.4420  0.2250  0.5318
   36POPC  H15R 4850   5.874   1.157   9.044 -0.3247  0.0657  0.7523
   36POPC  H15S 4851   6.015   1.035   9.014 -1.3596 -1.1847 -1.0492
   36POPC  C216 4852   5.891   1.065   8.848 -0.7137 -0.0365 -0.5070
   36POPC  H16R 4853   5.965   1.000   8.798  0.8575  0.6687  0.8581
   36POPC  H16S 4854   5.873   1.152   8.781 -2.2554 -0.4894 -0.7090
   36POPC  C217 4855   5.761   0.991   8.863  0.3324 -0.0798  0.2444
   36POPC  H17R 4856   5.694   1.064   8.913 -2.2314 -1.1701 -1.5131
   36POPC  H17S 4857   5.781   0.908   8.935  0.3381  0.4750  0.8885
   36POPC  C218 4858   5.694   0.940   8.738 -0.4606  0.1692  0.4841
   36POPC  H18R 4859   5.670   1.028   8.674 -2.0893 -0.6761 -0.0875
   36POPC  H18S 4860   5.596   0.894   8.761 -0.2952 -1.4372 -1.8184
   36POPC  H18T 4861   5.766   0.882   8.677  0.0751 -1.0082  2.2100
   36POPC   C33 4862   6.050   1.016  10.115 -0.2848 -0.7715  0.7262
   36POPC   H3X 4863   6.159   0.998  10.128 -0.2623 -0.0299  1.5561
   36POPC   H3Y 4864   6.029   1.125  10.117 -2.3062 -1.1375  1.0029
   36POPC   C34 4865   6.017   0.960   9.972 -0.0063 -0.1612 -0.1763
   36POPC   H4X 4866   5.907   0.963   9.955  0.0461  1.4555 -0.2908
   36POPC   H4Y 4867   6.063   0.859   9.970  2.1302  0.8235 -1.5286
   36POPC   C35 4868   6.080   1.045   9.859 -0.7182 -0.2230 -0.0938
   36POPC   H5X 4869   6.186   1.063   9.884 -0.1871 -0.4798 -2.1309
   36POPC   H5Y 4870   6.015   1.134   9.849  0.9446  1.1193  0.8820
   36POPC   C36 4871   6.083   0.971   9.721 -0.4069  0.3481 -0.8737
   36POPC   H6X 4872   6.166   0.898   9.732  0.4612  1.1727 -1.8376
   36POPC   H6Y 4873   6.111   1.040   9.638  2.3618 -1.0626 -1.1580
   36POPC   C37 4874   5.947   0.909   9.680 -0.1080 -0.2461 -0.0143
   36POPC   H7X 4875   5.874   0.979   9.726 -0.6771  0.2362 -1.6286
   36POPC   H7Y 4876   5.931   0.809   9.725  1.7218  0.8441  3.2781
   36POPC   C38 4877   5.919   0.914   9.534  0.1441  0.1568 -0.5453
   36POPC   H8X 4878   5.973   1.007   9.503  1.7843  0.3673  2.7812
   36POPC   H8Y 4879   5.809   0.918   9.518 -0.2234  1.7298  2.0759
   36POPC   C39 4880   5.954   0.789   9.451  0.1529  0.3931  0.7148
   36POPC   H9X 4881   5.899   0.708   9.503 -0.6495 -0.1914 -1.0143
   36POPC   H9Y 4882   6.061   0.759   9.459  0.0101 -0.9926 -2.0276
   36POPC  C310 4883   5.953   0.818   9.306 -0.0208  0.2820  0.1769
   36POPC  H10X 4884   6.009   0.912   9.288  0.0867  0.4957  1.5664
   36POPC  H10Y 4885   5.847   0.843   9.281 -0.4586 -1.3331  0.3560
   36POPC  C311 4886   6.016   0.708   9.214  0.6356  0.2004  0.2002
   36POPC  H11X 4887   6.017   0.608   9.263  0.6153  1.1664  2.2070
   36POPC  H11Y 4888   6.120   0.737   9.190 -0.2621  1.7982 -1.9397
   36POPC  C312 4889   5.944   0.697   9.084 -0.0185  0.0689  0.3372
   36POPC  H12X 4890   6.008   0.634   9.020  1.0414  1.2533  0.1998
   36POPC  H12Y 4891   5.929   0.801   9.046  0.5521  0.2629  0.6369
   36POPC  C313 4892   5.820   0.618   9.105  0.0519 -0.3049 -0.3715
   36POPC  H13X 4893   5.773   0.657   9.198  2.7295  0.3103  0.7663
   36POPC  H13Y 4894   5.851   0.513   9.124 -2.2108 -0.5143  2.5750
   36POPC  C314 4895   5.720   0.630   8.991 -0.2919 -0.1697  0.1026
   36POPC  H14X 4896   5.719   0.734   8.953  0.0903 -0.0548  0.4048
   36POPC  H14Y 4897   5.618   0.612   9.032  0.3487 -0.0376  1.7896
   36POPC  C315 4898   5.738   0.542   8.863 -0.0509  0.6238 -0.2088
   36POPC  H15X 4899   5.707   0.437   8.881  0.3371  0.2739 -1.5585
   36POPC  H15Y 4900   5.843   0.543   8.826  0.7178  0.5598  1.8773
   36POPC  C316 4901   5.648   0.594   8.745 -0.0545 -0.0381  0.4566
   36POPC  H16X 4902   5.547   0.620   8.783  0.8209  0.1634  2.6858
   36POPC  H16Y 4903   5.632   0.521   8.662 -5.8199  3.3289 -1.7265
   36POPC  H16Z 4904   5.692   0.686   8.701  1.7003 -1.2443 -0.3383
   37POPC     N 4905   4.175   2.648   6.595 -0.3979 -0.1614  0.4816
   37POPC   C12 4906   4.042   2.721   6.574  0.3714 -0.8906  0.1974
   37POPC  H12A 4907   3.974   2.638   6.564  0.7080 -1.1692  0.2362
   37POPC  H12B 4908   4.040   2.776   6.481 -0.1377 -2.7443 -0.9025
   37POPC   C13 4909   4.281   2.764   6.601 -0.0870  0.6740  0.7895
   37POPC  H13A 4910   4.244   2.835   6.673 -1.7423 -0.8966  1.5224
   37POPC  H13B 4911   4.378   2.731   6.636  0.2772  1.9167  0.9852
   37POPC  H13C 4912   4.290   2.808   6.503  0.0481  0.9037  0.9068
   37POPC   C14 4913   4.183   2.571   6.725 -0.0863  0.3393 -0.2957
   37POPC  H14A 4914   4.108   2.493   6.726  0.2374  0.0265 -0.0616
   37POPC  H14B 4915   4.276   2.517   6.739  0.2385  1.3983  1.9436
   37POPC  H14C 4916   4.170   2.638   6.809 -1.5966 -0.9268  0.5243
   37POPC   C15 4917   4.197   2.555   6.475 -0.6218 -0.6803  0.4710
   37POPC  H15A 4918   4.143   2.463   6.490 -2.2966 -0.3772 -3.2503
   37POPC  H15B 4919   4.302   2.532   6.464 -1.1006 -1.7398 -2.1947
   37POPC  H15C 4920   4.162   2.606   6.387  2.0169  0.0221 -0.2373
   37POPC   C11 4921   4.002   2.815   6.690 -0.2292  0.2667 -0.6309
   37POPC  H11A 4922   4.019   2.773   6.792  1.2989  1.0922 -0.5190
   37POPC  H11B 4923   3.892   2.831   6.691  0.2819  4.4798  1.3079
   37POPC     P 4924   4.058   3.041   6.575 -0.2613  0.5503  0.1702
   37POPC   O13 4925   4.062   2.977   6.441 -0.2402  0.4003  0.2565
   37POPC   O14 4926   4.139   3.162   6.603 -0.0309 -0.2762 -0.2691
   37POPC   O12 4927   4.075   2.932   6.695 -0.2652 -0.6283 -0.2511
   37POPC   O11 4928   3.910   3.078   6.605 -0.0972 -0.5362 -0.4304
   37POPC    C1 4929   3.877   3.178   6.707  0.0452 -0.4108 -0.3372
   37POPC    HA 4930   3.850   3.267   6.646 -0.6372  0.2147  0.8628
   37POPC    HB 4931   3.967   3.212   6.763 -0.0564 -0.5043 -0.1174
   37POPC    C2 4932   3.763   3.136   6.802 -0.3731  0.3099  0.3519
   37POPC    HS 4933   3.739   3.225   6.865 -1.4168  0.2894 -0.0025
   37POPC   O21 4934   3.811   3.026   6.882 -0.1354 -0.3373  0.2830
   37POPC   C21 4935   3.898   3.068   6.972 -0.8415  0.1245  0.0957
   37POPC   O22 4936   3.931   3.184   6.999  0.4475 -0.0094 -0.6534
   37POPC   C22 4937   3.965   2.946   7.041  0.2731 -0.3405 -0.5346
   37POPC   H2R 4938   4.069   2.930   7.007  1.6649 -0.0037  3.3987
   37POPC   H2S 4939   3.904   2.854   7.029 -0.8427  0.3489 -0.3228
   37POPC    C3 4940   3.631   3.100   6.726  0.0425  0.4602  0.1825
   37POPC    HX 4941   3.630   3.001   6.677  1.8410  0.3638  0.3011
   37POPC    HY 4942   3.608   3.173   6.646  2.5235 -0.1783 -1.1455
   37POPC   O31 4943   3.525   3.112   6.824 -0.2177  0.3766 -0.4980
   37POPC   C31 4944   3.487   2.995   6.883 -0.3387  0.0225 -0.3985
   37POPC   O32 4945   3.549   2.888   6.865  0.8552  0.1418  0.5623
   37POPC   C32 4946   3.350   3.004   6.964 -0.6722 -0.9194  0.0723
   37POPC   H2X 4947   3.310   2.900   6.971 -0.2617 -1.1583 -1.0795
   37POPC   H2Y 4948   3.277   3.074   6.920  0.0945  1.3657  2.3285
   37POPC   C23 4949   3.977   2.971   7.202  0.4554  0.2103  0.4004
   37POPC   H3R 4950   4.052   3.052   7.215  1.2454 -0.5399  0.4937
   37POPC   H3S 4951   4.035   2.885   7.241  0.7520 -0.4951 -1.5076
   37POPC   C24 4952   3.843   2.991   7.274 -0.1442  0.1051  0.4352
   37POPC   H4R 4953   3.776   2.910   7.239  3.0998 -0.7298 -4.2102
   37POPC   H4S 4954   3.797   3.088   7.246 -0.4880 -0.3586 -0.5957
   37POPC   C25 4955   3.858   2.976   7.428 -0.1076 -0.9180 -0.2684
   37POPC   H5R 4956   3.920   2.886   7.448  0.9358 -0.1942 -0.2190
   37POPC   H5S 4957   3.759   2.952   7.473 -0.1462 -0.9735 -0.3829
   37POPC   C26 4958   3.908   3.108   7.484  0.2004 -0.0384  0.5655
   37POPC   H6R 4959   3.835   3.190   7.464  0.4617 -0.5615 -2.9197
   37POPC   H6S 4960   4.008   3.126   7.440  0.7596 -1.6047  1.1694
   37POPC   C27 4961   3.936   3.088   7.633  0.1557 -0.3898 -0.1166
   37POPC   H7R 4962   4.038   3.046   7.647  0.9726  1.7835  0.6691
   37POPC   H7S 4963   3.853   3.024   7.672 -1.0179  0.9397 -0.3792
   37POPC   C28 4964   3.930   3.225   7.708  0.6752  0.2139 -0.2039
   37POPC   H8R 4965   3.844   3.288   7.677 -0.1640 -1.1723 -0.7526
   37POPC   H8S 4966   4.028   3.269   7.680  2.3069 -0.6649  3.6662
   37POPC   C29 4967   3.939   3.201   7.855 -0.6179  0.4542  0.3073
   37POPC   H91 4968   4.004   3.114   7.874  0.7671  1.2751 -0.5705
   37POPC  C210 4969   3.867   3.260   7.949  0.1800  0.1854  0.4298
   37POPC  H101 4970   3.871   3.232   8.055  0.9178 -1.4124  0.0017
   37POPC  C211 4971   3.774   3.379   7.924  0.7239  0.1972  0.4502
   37POPC  H11R 4972   3.804   3.433   7.832  0.9518 -1.2641 -0.3539
   37POPC  H11S 4973   3.783   3.448   8.010 -2.7296  1.7413 -0.3441
   37POPC  C212 4974   3.626   3.342   7.928 -0.5120 -0.9196 -0.6618
   37POPC  H12R 4975   3.598   3.262   7.856  0.5911 -0.6035 -1.4478
   37POPC  H12S 4976   3.556   3.425   7.906  0.1870 -0.2096 -0.1901
   37POPC  C213 4977   3.577   3.296   8.073 -0.6054 -0.6914  0.1334
   37POPC  H13R 4978   3.604   3.376   8.145 -1.1014 -0.5746  0.1901
   37POPC  H13S 4979   3.626   3.200   8.102  0.7314  0.0231  0.2597
   37POPC  C214 4980   3.419   3.282   8.084 -0.5785 -0.8133 -0.0813
   37POPC  H14R 4981   3.388   3.231   7.991 -1.8219 -0.9678  0.4139
   37POPC  H14S 4982   3.378   3.385   8.083  1.2304 -0.0175  1.9057
   37POPC  C215 4983   3.362   3.211   8.206  0.5223 -0.5294 -0.1333
   37POPC  H15R 4984   3.404   3.262   8.296 -0.3758 -1.0369  0.5747
   37POPC  H15S 4985   3.407   3.110   8.199 -0.2025 -0.7305 -2.4116
   37POPC  C216 4986   3.207   3.213   8.205 -0.3608 -1.0293 -0.1684
   37POPC  H16R 4987   3.172   3.134   8.275 -2.6123 -0.1158 -0.2213
   37POPC  H16S 4988   3.165   3.188   8.105  2.4997 -3.1393 -0.9275
   37POPC  C217 4989   3.137   3.344   8.254 -0.1677 -0.1529 -0.7686
   37POPC  H17R 4990   3.211   3.424   8.229 -0.3997  0.3063  0.0093
   37POPC  H17S 4991   3.130   3.355   8.364 -2.4300  0.6586 -0.9702
   37POPC  C218 4992   2.993   3.363   8.192 -0.3038 -0.2793 -0.0950
   37POPC  H18R 4993   2.936   3.268   8.200 -0.7977  0.0606  0.4611
   37POPC  H18S 4994   2.991   3.395   8.086  1.3650 -0.7508 -0.2878
   37POPC  H18T 4995   2.947   3.441   8.257  0.9122 -0.6769  1.2646
   37POPC   C33 4996   3.367   3.056   7.108 -0.2105 -0.0202  0.0085
   37POPC   H3X 4997   3.266   3.053   7.156  0.3435  3.7946  1.5984
   37POPC   H3Y 4998   3.411   3.158   7.106  0.3661 -0.2821 -0.8886
   37POPC   C34 4999   3.472   2.983   7.192  0.0846  0.1915  0.3525
   37POPC   H4X 5000   3.502   3.030   7.288  2.4589  0.8178 -0.6491
   37POPC   H4Y 5001   3.571   2.981   7.142 -0.0745  2.3200 -0.1110
   37POPC   C35 5002   3.414   2.843   7.220  0.5556  0.1111  0.0333
   37POPC   H5X 5003   3.390   2.791   7.125  0.6223  2.0997 -1.0806
   37POPC   H5Y 5004   3.327   2.851   7.289  0.8208  0.7735  0.2967
   37POPC   C36 5005   3.511   2.758   7.302 -0.6437  0.1706 -0.9604
   37POPC   H6X 5006   3.548   2.804   7.396 -2.0000 -1.5719  0.4368
   37POPC   H6Y 5007   3.603   2.746   7.240  0.8086  1.9137  0.8228
   37POPC   C37 5008   3.471   2.615   7.350 -0.0150  0.0936 -0.1027
   37POPC   H7X 5009   3.562   2.551   7.340 -1.2386 -1.7882  0.4359
   37POPC   H7Y 5010   3.388   2.593   7.279 -0.0845 -1.5544  0.4552
   37POPC   C38 5011   3.411   2.613   7.495 -0.1863 -0.1417  0.3374
   37POPC   H8X 5012   3.346   2.523   7.493 -2.8730  1.7233  1.1920
   37POPC   H8Y 5013   3.355   2.707   7.519  0.9920  0.2353  1.7109
   37POPC   C39 5014   3.510   2.586   7.602 -0.4790 -0.0878 -0.3117
   37POPC   H9X 5015   3.582   2.671   7.595 -1.3157  0.5897 -0.8284
   37POPC   H9Y 5016   3.570   2.496   7.578 -0.5247 -0.4100  0.7808
   37POPC  C310 5017   3.452   2.574   7.746  0.1603  0.5421  0.1518
   37POPC  H10X 5018   3.376   2.493   7.746 -0.9722  1.5864  0.1626
   37POPC  H10Y 5019   3.394   2.669   7.748  0.0308  0.4632  0.2030
   37POPC  C311 5020   3.551   2.556   7.862 -0.4944  0.2722 -0.7394
   37POPC  H11X 5021   3.620   2.643   7.867 -1.3819  0.9068  0.7564
   37POPC  H11Y 5022   3.615   2.468   7.840 -3.0928 -2.0717  0.7326
   37POPC  C312 5023   3.477   2.534   8.001  0.1672  0.1943  0.3081
   37POPC  H12X 5024   3.415   2.442   7.992 -0.0690  0.2322  1.4976
   37POPC  H12Y 5025   3.423   2.620   8.045 -1.0285 -1.6316  2.4915
   37POPC  C313 5026   3.582   2.507   8.100  0.5341 -0.0485  0.3669
   37POPC  H13X 5027   3.649   2.595   8.102  1.2473 -0.5935  0.7195
   37POPC  H13Y 5028   3.642   2.421   8.064 -1.5889 -1.4256 -0.0349
   37POPC  C314 5029   3.523   2.487   8.241  0.6612 -0.1793  0.4968
   37POPC  H14X 5030   3.455   2.400   8.251  0.2264 -0.0010 -0.7885
   37POPC  H14Y 5031   3.457   2.570   8.275  0.2537 -0.3580  0.1425
   37POPC  C315 5032   3.642   2.465   8.334  0.3884 -0.1711  0.2152
   37POPC  H15X 5033   3.715   2.545   8.312  0.6730 -0.2913  0.7274
   37POPC  H15Y 5034   3.690   2.372   8.297 -0.8983 -0.2116 -1.3978
   37POPC  C316 5035   3.618   2.455   8.486 -0.2805  0.3075 -0.4732
   37POPC  H16X 5036   3.719   2.442   8.530  0.1831  0.6656 -1.4153
   37POPC  H16Y 5037   3.554   2.367   8.507  0.5625 -0.0697  0.5496
   37POPC  H16Z 5038   3.564   2.541   8.529 -2.2614 -1.3769  0.4773
   38POPC     N 5039   4.881   0.455   6.348 -0.0392 -0.6006 -0.0856
   38POPC   C12 5040   4.965   0.347   6.292  0.5835 -0.0032 -0.7508
   38POPC  H12A 5041   5.021   0.296   6.370  1.3406  1.3352 -0.4039
   38POPC  H12B 5042   5.035   0.390   6.223 -0.1174  2.5570  0.0601
   38POPC   C13 5043   4.977   0.556   6.408  0.0808  0.1488 -0.8703
   38POPC  H13A 5044   5.035   0.593   6.325 -0.0653  0.5086 -0.8156
   38POPC  H13B 5045   4.922   0.634   6.458  0.2165  0.9889 -2.0191
   38POPC  H13C 5046   5.039   0.516   6.487  0.0252 -1.4639 -1.6307
   38POPC   C14 5047   4.802   0.527   6.237  0.5932 -0.7868 -0.2834
   38POPC  H14A 5048   4.875   0.561   6.166 -1.3093 -1.5565 -2.6884
   38POPC  H14B 5049   4.723   0.470   6.190  0.5287 -1.8236  1.0446
   38POPC  H14C 5050   4.766   0.620   6.280  0.5868 -0.1408 -1.6716
   38POPC   C15 5051   4.792   0.399   6.459 -0.6548  0.4073  0.5101
   38POPC  H15A 5052   4.719   0.331   6.418 -0.5893  0.8649 -0.3687
   38POPC  H15B 5053   4.750   0.492   6.494  0.1891  1.1036 -0.2991
   38POPC  H15C 5054   4.859   0.348   6.527  1.4012  0.3325 -1.5094
   38POPC   C11 5055   4.886   0.239   6.203  0.5513 -0.4742  0.0379
   38POPC  H11A 5056   4.960   0.179   6.146  1.9522 -0.1407  1.4767
   38POPC  H11B 5057   4.827   0.283   6.120 -1.9419 -0.1324  1.9185
   38POPC     P 5058   4.863   0.038   6.360  0.1178  0.3758 -0.0888
   38POPC   O13 5059   4.962  -0.039   6.277  0.3768 -0.0524 -0.4513
   38POPC   O14 5060   4.761  -0.044   6.434 -0.4340  0.2034 -0.0305
   38POPC   O12 5061   4.800   0.157   6.281  0.2012  0.2084  0.1771
   38POPC   O11 5062   4.954   0.119   6.466 -0.4100  0.3685  0.5877
   38POPC    C1 5063   4.918   0.121   6.602 -0.1663  0.2996 -0.1474
   38POPC    HA 5064   4.807   0.125   6.597 -0.0436  0.9781 -2.8008
   38POPC    HB 5065   4.963   0.208   6.654 -3.3537  1.5694  0.5839
   38POPC    C2 5066   4.967  -0.012   6.664 -0.4976 -0.2977  0.4174
   38POPC    HS 5067   4.908  -0.098   6.625  0.3818  0.0302 -1.6795
   38POPC   O21 5068   4.960  -0.004   6.812  0.0358 -0.3110  0.7078
   38POPC   C21 5069   4.842   0.013   6.862 -0.0202  1.0282 -0.2397
   38POPC   O22 5070   4.737   0.017   6.805  0.4328  0.1216 -0.4243
   38POPC   C22 5071   4.850   0.023   7.021 -0.6363  0.4036 -0.6263
   38POPC   H2R 5072   4.933   0.086   7.058 -0.9625  0.6133 -0.2405
   38POPC   H2S 5073   4.870  -0.082   7.053 -0.5711  0.8977  1.0038
   38POPC    C3 5074   5.114  -0.052   6.624 -0.5785  0.5431 -0.4859
   38POPC    HX 5075   5.159   0.040   6.581  1.0019 -0.1764 -0.3919
   38POPC    HY 5076   5.099  -0.121   6.538 -0.0617 -0.3123  0.0996
   38POPC   O31 5077   5.183  -0.127   6.732 -0.3558 -0.2978 -0.2139
   38POPC   C31 5078   5.253  -0.043   6.807 -0.5763  0.3630 -0.3263
   38POPC   O32 5079   5.257   0.076   6.792 -0.9289  0.4056  0.3987
   38POPC   C32 5080   5.329  -0.119   6.905  0.2787  0.6556 -0.0765
   38POPC   H2X 5081   5.435  -0.084   6.908  0.0108  1.4273  0.6850
   38POPC   H2Y 5082   5.320  -0.226   6.880 -2.1468  0.6332  0.8054
   38POPC   C23 5083   4.725   0.082   7.092 -0.1592  0.5395  0.3316
   38POPC   H3R 5084   4.648   0.003   7.107 -1.6139  0.8849 -4.4999
   38POPC   H3S 5085   4.679   0.168   7.039 -0.6328 -0.6443 -1.2358
   38POPC   C24 5086   4.767   0.127   7.234  0.0679 -0.9046  0.2859
   38POPC   H4R 5087   4.682   0.187   7.274 -1.1547 -2.5222  0.1644
   38POPC   H4S 5088   4.851   0.199   7.222  0.4114 -0.9239  2.4739
   38POPC   C25 5089   4.808   0.025   7.329 -0.4203  0.5174  0.5657
   38POPC   H5R 5090   4.901  -0.022   7.292 -1.5478 -3.9090  3.1148
   38POPC   H5S 5091   4.727  -0.049   7.342 -1.9509  1.7754 -1.5006
   38POPC   C26 5092   4.842   0.066   7.481 -0.6651 -0.0906 -0.0520
   38POPC   H6R 5093   4.795  -0.013   7.545  0.0694 -1.9301 -1.7203
   38POPC   H6S 5094   4.779   0.157   7.492 -0.0921  0.0340  2.2984
   38POPC   C27 5095   4.988   0.108   7.509  0.2608 -0.1790 -1.3199
   38POPC   H7R 5096   5.018   0.182   7.432  3.1904  0.0905  0.0104
   38POPC   H7S 5097   5.048   0.017   7.488  0.0630 -0.5305 -0.3995
   38POPC   C28 5098   5.011   0.155   7.661 -0.4263  0.3470  0.4460
   38POPC   H8R 5099   5.115   0.195   7.663  0.1693 -1.1921  1.1216
   38POPC   H8S 5100   5.016   0.073   7.736 -3.1699 -2.0286 -1.8910
   38POPC   C29 5101   4.911   0.256   7.703 -0.3259  0.1953  0.3355
   38POPC   H91 5102   4.912   0.341   7.633  0.2316 -1.7761 -2.1335
   38POPC  C210 5103   4.827   0.258   7.805 -1.2274  0.0731 -0.7344
   38POPC  H101 5104   4.774   0.352   7.827  1.2361  1.0993  0.9797
   38POPC  C211 5105   4.814   0.154   7.922 -0.3638 -0.3590  0.4906
   38POPC  H11R 5106   4.901   0.084   7.915 -0.4801 -0.5777  1.1954
   38POPC  H11S 5107   4.724   0.092   7.902  0.5317 -1.0999 -1.3855
   38POPC  C212 5108   4.795   0.217   8.061  0.1517  0.2490 -0.0070
   38POPC  H12R 5109   4.877   0.291   8.066  0.2522  0.2458 -1.3817
   38POPC  H12S 5110   4.817   0.146   8.145 -0.4993  1.3980  1.1452
   38POPC  C213 5111   4.657   0.282   8.081 -0.0182 -0.2562  0.1648
   38POPC  H13R 5112   4.586   0.208   8.037  0.7065 -0.3226 -0.9079
   38POPC  H13S 5113   4.648   0.369   8.012 -1.5521 -0.0721  0.5695
   38POPC  C214 5114   4.608   0.315   8.228  0.2791 -0.2664  0.5314
   38POPC  H14R 5115   4.523   0.386   8.224  0.9307  0.4807 -0.1819
   38POPC  H14S 5116   4.694   0.375   8.264 -1.9807  4.0419 -0.8503
   38POPC  C215 5117   4.579   0.187   8.309 -0.5266  0.7815  0.7579
   38POPC  H15R 5118   4.671   0.128   8.326 -0.4719  0.1661 -1.5456
   38POPC  H15S 5119   4.497   0.128   8.262 -0.9650  1.4991  0.6007
   38POPC  C216 5120   4.533   0.233   8.447  0.1099 -0.0807  0.6608
   38POPC  H16R 5121   4.447   0.300   8.426  1.2842  0.8124 -1.4996
   38POPC  H16S 5122   4.603   0.299   8.501  0.8547  0.1780 -0.6118
   38POPC  C217 5123   4.513   0.108   8.533  0.5249  0.4366 -0.5778
   38POPC  H17R 5124   4.605   0.045   8.536  0.9010  1.0206  0.5721
   38POPC  H17S 5125   4.436   0.044   8.485 -0.6684  1.4093  0.0209
   38POPC  C218 5126   4.472   0.145   8.675 -0.4189 -0.6126 -0.3761
   38POPC  H18R 5127   4.510   0.066   8.744 -1.0501 -0.1927  0.4560
   38POPC  H18S 5128   4.363   0.166   8.683 -0.3933 -0.8241  0.6201
   38POPC  H18T 5129   4.522   0.238   8.709 -0.1981 -0.8617 -0.0212
   38POPC   C33 5130   5.257  -0.103   7.044 -0.6393  0.2176  0.1999
   38POPC   H3X 5131   5.188  -0.185   7.071  1.4738 -1.3358  1.0905
   38POPC   H3Y 5132   5.208  -0.004   7.051  0.4652  0.8531 -0.7428
   38POPC   C34 5133   5.360  -0.094   7.153  0.6410 -0.7230  0.0602
   38POPC   H4X 5134   5.448  -0.033   7.126 -0.5055  1.2820  0.7735
   38POPC   H4Y 5135   5.410  -0.193   7.157  2.0502 -0.0408 -0.3498
   38POPC   C35 5136   5.300  -0.063   7.300 -0.0142 -0.1164  0.4819
   38POPC   H5X 5137   5.247  -0.156   7.328  0.2706 -0.3698  0.1692
   38POPC   H5Y 5138   5.246   0.033   7.287 -0.3143 -0.3180  0.2647
   38POPC   C36 5139   5.427  -0.047   7.403  0.2850 -0.1593  0.3883
   38POPC   H6X 5140   5.496   0.036   7.378 -2.5218  1.7762 -1.2879
   38POPC   H6Y 5141   5.486  -0.141   7.408  0.6182  0.0922  1.4321
   38POPC   C37 5142   5.376  -0.009   7.547 -0.4764 -0.3672  0.3715
   38POPC   H7X 5143   5.290  -0.076   7.567  0.3016 -1.1801  1.0078
   38POPC   H7Y 5144   5.332   0.093   7.542 -1.9055 -1.0242 -0.8906
   38POPC   C38 5145   5.479  -0.034   7.656 -0.6262 -0.1699  0.1822
   38POPC   H8X 5146   5.564   0.031   7.626 -0.9816  0.2330  0.0382
   38POPC   H8Y 5147   5.509  -0.140   7.647  0.2503  0.0870 -0.0116
   38POPC   C39 5148   5.429  -0.012   7.797  0.0591  0.2364 -0.3633
   38POPC   H9X 5149   5.517   0.004   7.864  0.5333 -0.9063 -0.6972
   38POPC   H9Y 5150   5.384  -0.108   7.832  0.3999 -0.2131 -1.1484
   38POPC  C310 5151   5.349   0.116   7.823  0.4086  1.0226 -0.0861
   38POPC  H10X 5152   5.243   0.092   7.800  0.1599  0.9213  1.1069
   38POPC  H10Y 5153   5.375   0.194   7.749 -1.4976 -0.0503 -1.9307
   38POPC  C311 5154   5.350   0.167   7.966  0.6258 -0.0164  0.1915
   38POPC  H11X 5155   5.372   0.276   7.970 -3.6553  0.9501 -0.3690
   38POPC  H11Y 5156   5.437   0.119   8.017 -1.5809 -1.2187  2.9721
   38POPC  C312 5157   5.212   0.155   8.043 -0.1793 -0.2351  0.2429
   38POPC  H12X 5158   5.187   0.049   8.024 -1.9230  0.7176 -3.2019
   38POPC  H12Y 5159   5.139   0.215   7.984 -1.4196 -1.5656  0.4071
   38POPC  C313 5160   5.214   0.187   8.193 -0.3621  0.0914  0.1495
   38POPC  H13X 5161   5.289   0.123   8.244 -2.6438 -1.6831  1.3603
   38POPC  H13Y 5162   5.120   0.154   8.242 -0.1951  1.2008  1.2475
   38POPC  C314 5163   5.237   0.333   8.229  0.4438 -0.3002  0.3182
   38POPC  H14X 5164   5.174   0.402   8.169  1.3259  1.3956  1.3152
   38POPC  H14Y 5165   5.343   0.366   8.228  0.6980 -1.1154 -0.6303
   38POPC  C315 5166   5.187   0.358   8.374  0.4023  0.0130 -0.4969
   38POPC  H15X 5167   5.254   0.302   8.443 -0.9641  0.3591  1.1517
   38POPC  H15Y 5168   5.085   0.314   8.381  1.3669 -2.0793  1.0836
   38POPC  C316 5169   5.177   0.504   8.419 -0.1148  0.4660  0.7028
   38POPC  H16X 5170   5.130   0.513   8.519  1.2993 -2.7705  1.7401
   38POPC  H16Y 5171   5.118   0.560   8.344 -1.3558  1.0943  2.1297
   38POPC  H16Z 5172   5.279   0.549   8.426 -0.3134  1.0172 -0.0101
   39POPC     N 5173   2.237   3.585   6.022 -0.0668  0.1393  0.3405
   39POPC   C12 5174   2.132   3.498   6.085  0.4119  0.3438 -0.0112
   39POPC  H12A 5175   2.172   3.402   6.114 -0.5685  0.1681  0.7749
   39POPC  H12B 5176   2.069   3.460   6.006  2.2570 -1.6473 -0.5783
   39POPC   C13 5177   2.320   3.517   5.923 -0.2468 -0.1888 -0.0530
   39POPC  H13A 5178   2.260   3.496   5.836 -0.4500  0.6993 -0.1289
   39POPC  H13B 5179   2.407   3.576   5.895 -0.0636 -0.3672  0.1303
   39POPC  H13C 5180   2.363   3.431   5.973 -1.2120 -0.2672  0.6374
   39POPC   C14 5181   2.176   3.710   5.966 -0.0968  0.0410  0.0317
   39POPC  H14A 5182   2.252   3.783   5.942 -0.2931  0.8303  1.7687
   39POPC  H14B 5183   2.127   3.687   5.872  0.2820 -3.6043  0.6504
   39POPC  H14C 5184   2.106   3.750   6.038 -0.3702 -2.1570  1.0124
   39POPC   C15 5185   2.334   3.643   6.124 -0.4032 -0.3103 -0.2204
   39POPC  H15A 5186   2.401   3.717   6.083 -0.6807  0.3605  0.5247
   39POPC  H15B 5187   2.413   3.571   6.143  0.5077  0.8038  0.2585
   39POPC  H15C 5188   2.290   3.666   6.220  0.4539 -1.8591  0.5741
   39POPC   C11 5189   2.045   3.558   6.203  0.1213 -0.3357 -0.0770
   39POPC  H11A 5190   2.112   3.580   6.289 -0.0002  1.0417 -0.3250
   39POPC  H11B 5191   1.970   3.487   6.244 -0.9507  1.8249  1.8267
   39POPC     P 5192   1.836   3.702   6.109  0.4116 -0.4428 -0.3704
   39POPC   O13 5193   1.804   3.581   6.028  0.0332  0.3118  0.1352
   39POPC   O14 5194   1.817   3.829   6.040 -0.5274 -0.1516  0.0543
   39POPC   O12 5195   1.986   3.685   6.163  0.0946 -0.4566 -0.4205
   39POPC   O11 5196   1.739   3.701   6.239  0.4056  0.0418  0.0986
   39POPC    C1 5197   1.758   3.812   6.337  0.5071  0.5897  0.4604
   39POPC    HA 5198   1.666   3.874   6.340  0.6884  0.8185  1.6675
   39POPC    HB 5199   1.845   3.878   6.312 -0.8572  2.3192  0.1951
   39POPC    C2 5200   1.793   3.768   6.479  0.1905 -0.3627 -0.2886
   39POPC    HS 5201   1.871   3.689   6.474  3.3719  2.6812 -0.5383
   39POPC   O21 5202   1.670   3.711   6.525 -0.2635  1.5728 -0.7424
   39POPC   C21 5203   1.669   3.615   6.621 -0.1547  0.1124 -0.0405
   39POPC   O22 5204   1.770   3.581   6.678  0.1302 -0.1091 -0.0595
   39POPC   C22 5205   1.535   3.572   6.643 -0.0958 -0.1158  0.1330
   39POPC   H2R 5206   1.512   3.475   6.594  1.6808 -0.8263  0.6786
   39POPC   H2S 5207   1.461   3.646   6.604 -0.5953 -0.4879  0.3683
   39POPC    C3 5208   1.841   3.881   6.572  0.5471  0.1674  0.1551
   39POPC    HX 5209   1.773   3.969   6.572  2.9325  2.0866 -1.5904
   39POPC    HY 5210   1.933   3.927   6.529  2.0672 -0.7074  2.4018
   39POPC   O31 5211   1.865   3.846   6.704 -0.6707  0.0948 -0.2749
   39POPC   C31 5212   1.984   3.789   6.723  0.6141 -0.3974  0.0786
   39POPC   O32 5213   2.072   3.770   6.639  0.7157  0.5400 -0.2927
   39POPC   C32 5214   1.994   3.748   6.872  0.0571 -0.3151 -0.4265
   39POPC   H2X 5215   1.998   3.839   6.936  2.0331  0.9152 -2.2541
   39POPC   H2Y 5216   1.904   3.687   6.897  0.5483 -1.1312 -0.6399
   39POPC   C23 5217   1.519   3.550   6.801 -0.1551  0.1935 -0.3502
   39POPC   H3R 5218   1.594   3.472   6.826  0.6262  0.7085 -1.0835
   39POPC   H3S 5219   1.416   3.518   6.829  0.1867 -1.0219 -0.4381
   39POPC   C24 5220   1.535   3.675   6.884 -0.1479 -0.0312  0.5310
   39POPC   H4R 5221   1.472   3.758   6.843  0.9722  0.1561 -0.8687
   39POPC   H4S 5222   1.640   3.709   6.869 -0.5907  1.3441  0.4165
   39POPC   C25 5223   1.486   3.648   7.034 -0.5024  0.9431  0.1346
   39POPC   H5R 5224   1.575   3.587   7.061  1.9941  3.7956 -1.3216
   39POPC   H5S 5225   1.389   3.596   7.043  0.2290  0.1186  3.8625
   39POPC   C26 5226   1.473   3.768   7.132 -0.4713 -0.1106  0.5284
   39POPC   H6R 5227   1.372   3.811   7.116 -0.8568 -0.9836  0.5821
   39POPC   H6S 5228   1.553   3.843   7.110 -0.2387  0.0515  1.8948
   39POPC   C27 5229   1.497   3.721   7.271  0.5701  0.7387  0.1868
   39POPC   H7R 5230   1.590   3.662   7.284 -0.3620 -0.7061  0.3601
   39POPC   H7S 5231   1.421   3.647   7.303 -0.1930  1.5913  0.3466
   39POPC   C28 5232   1.490   3.834   7.379 -0.0334  0.3914 -0.3498
   39POPC   H8R 5233   1.511   3.787   7.477  1.2578  1.4171 -0.1337
   39POPC   H8S 5234   1.386   3.873   7.375 -0.7735 -1.5724 -1.0746
   39POPC   C29 5235   1.580   3.952   7.358 -0.2703 -0.3264  0.2849
   39POPC   H91 5236   1.593   3.996   7.258  1.9545 -0.5515  0.4478
   39POPC  C210 5237   1.658   4.000   7.455 -0.5006 -0.8561  0.4692
   39POPC  H101 5238   1.739   4.071   7.435 -2.2467  0.6596 -1.4368
   39POPC  C211 5239   1.662   3.953   7.599 -0.1179 -0.4039  0.3943
   39POPC  H11R 5240   1.761   3.986   7.637 -0.1369  0.0626  0.0479
   39POPC  H11S 5241   1.646   3.843   7.598  2.0255 -0.7632 -3.4633
   39POPC  C212 5242   1.558   4.015   7.691 -0.0436  0.2923  0.3910
   39POPC  H12R 5243   1.454   3.983   7.666 -0.0845 -0.9128  2.0558
   39POPC  H12S 5244   1.569   4.124   7.672 -2.2139  0.3171 -0.8970
   39POPC  C213 5245   1.588   3.987   7.839  0.2677 -0.7261 -0.3024
   39POPC  H13R 5246   1.698   3.987   7.855  0.8166  1.4044 -3.5907
   39POPC  H13S 5247   1.554   3.885   7.866 -1.7652 -0.2244 -0.8546
   39POPC  C214 5248   1.529   4.088   7.939 -0.0396  1.3731 -0.6323
   39POPC  H14R 5249   1.419   4.077   7.946  0.3010 -1.0158  1.6764
   39POPC  H14S 5250   1.555   4.187   7.895  0.3881  1.4228 -0.2770
   39POPC  C215 5251   1.594   4.082   8.087  0.5203  0.0992  0.6949
   39POPC  H15R 5252   1.704   4.083   8.070  0.0368 -2.3525 -3.1682
   39POPC  H15S 5253   1.573   3.982   8.130 -1.4470 -0.3883 -1.2899
   39POPC  C216 5254   1.541   4.190   8.178 -0.8425 -0.3051  0.4157
   39POPC  H16R 5255   1.430   4.182   8.182 -0.8970 -0.0787 -0.6404
   39POPC  H16S 5256   1.553   4.273   8.106 -1.8703 -1.1453 -0.7453
   39POPC  C217 5257   1.614   4.215   8.303 -0.7143 -0.5847 -0.4101
   39POPC  H17R 5258   1.719   4.250   8.288 -1.5094  1.9698 -0.2801
   39POPC  H17S 5259   1.620   4.128   8.372 -0.0010  0.8196  1.3574
   39POPC  C218 5260   1.546   4.326   8.392 -0.0068 -0.1614 -0.3711
   39POPC  H18R 5261   1.498   4.408   8.334  2.0369 -0.6146 -2.8254
   39POPC  H18S 5262   1.616   4.369   8.466  0.5855 -0.2057 -0.8951
   39POPC  H18T 5263   1.463   4.275   8.444  0.7492 -1.0378 -0.0051
   39POPC   C33 5264   2.120   3.673   6.907  0.2771 -0.7461  1.0420
   39POPC   H3X 5265   2.202   3.723   6.853 -1.9558 -0.1929 -1.9597
   39POPC   H3Y 5266   2.110   3.567   6.872 -1.7716  0.0522 -0.9452
   39POPC   C34 5267   2.158   3.683   7.059  0.0986 -0.2732 -0.2288
   39POPC   H4X 5268   2.152   3.793   7.079  0.4707 -0.3190  0.1264
   39POPC   H4Y 5269   2.259   3.642   7.078 -0.0821 -0.3795  0.4942
   39POPC   C35 5270   2.056   3.598   7.143  0.6171 -0.0237 -0.0591
   39POPC   H5X 5271   2.045   3.499   7.094 -0.2809 -0.3755  0.8430
   39POPC   H5Y 5272   1.958   3.650   7.147  0.7595  0.1767  0.9817
   39POPC   C36 5273   2.086   3.556   7.290 -0.8081 -0.0754  0.1001
   39POPC   H6X 5274   2.174   3.491   7.309 -1.0249  0.1151  1.8085
   39POPC   H6Y 5275   1.998   3.500   7.326 -0.3910  0.6499  2.2921
   39POPC   C37 5276   2.089   3.685   7.380 -0.1864  0.1790  0.1738
   39POPC   H7X 5277   1.992   3.739   7.369  0.2848  1.2442  1.1450
   39POPC   H7Y 5278   2.174   3.750   7.353 -1.4702  1.3626 -1.1158
   39POPC   C38 5279   2.098   3.638   7.526 -0.1676 -0.1979  0.0251
   39POPC   H8X 5280   2.198   3.606   7.561 -0.4345  0.1196  1.0910
   39POPC   H8Y 5281   2.028   3.557   7.555 -1.7137  0.8936 -0.6162
   39POPC   C39 5282   2.066   3.747   7.628  0.2615  0.1823  0.1746
   39POPC   H9X 5283   1.957   3.766   7.637 -0.2902 -2.8201  0.1597
   39POPC   H9Y 5284   2.123   3.838   7.599 -0.3110  0.0047 -1.6186
   39POPC  C310 5285   2.104   3.722   7.775 -0.1095  0.5768 -0.0200
   39POPC  H10X 5286   2.063   3.813   7.825 -1.2793 -0.2026  0.4602
   39POPC  H10Y 5287   2.212   3.705   7.789 -0.2852 -1.4103 -0.9157
   39POPC  C311 5288   2.014   3.613   7.840  0.6167  0.8272  0.0558
   39POPC  H11X 5289   2.013   3.515   7.787  2.3211 -0.2137  1.8573
   39POPC  H11Y 5290   1.910   3.651   7.843 -0.8478 -2.8740 -1.1712
   39POPC  C312 5291   2.051   3.584   7.986 -0.2706 -0.0197  0.0766
   39POPC  H12X 5292   2.158   3.553   7.994 -0.7333 -1.5921  0.3585
   39POPC  H12Y 5293   1.985   3.510   8.035  1.2150 -1.1734  0.3881
   39POPC  C313 5294   2.043   3.708   8.077  0.8641  0.3929 -0.1791
   39POPC  H13X 5295   1.942   3.752   8.061  0.9004  0.5218 -0.0497
   39POPC  H13Y 5296   2.104   3.790   8.034 -0.0600  1.3746  0.3670
   39POPC  C314 5297   2.073   3.679   8.217  0.6383 -1.3680 -0.1411
   39POPC  H14X 5298   2.059   3.575   8.254  1.6354 -1.8976 -1.2315
   39POPC  H14Y 5299   2.033   3.757   8.286  1.6773 -0.1929 -0.8467
   39POPC  C315 5300   2.223   3.713   8.232 -0.3804  0.8475  0.4481
   39POPC  H15X 5301   2.245   3.819   8.205  0.6513  0.0987 -1.7869
   39POPC  H15Y 5302   2.283   3.644   8.169 -1.7021  0.1984 -0.1255
   39POPC  C316 5303   2.273   3.678   8.367 -0.5631 -0.2882  0.7419
   39POPC  H16X 5304   2.382   3.687   8.384 -0.7580 -0.1956  1.9950
   39POPC  H16Y 5305   2.252   3.570   8.376 -3.0434  0.2452  1.7128
   39POPC  H16Z 5306   2.223   3.737   8.446  1.0163  1.3950  0.5166
   40POPC     N 5307   1.042   2.132   6.056 -0.6128  0.2154 -0.3171
   40POPC   C12 5308   0.993   1.991   6.028  0.3242 -0.5270  0.5883
   40POPC  H12A 5309   1.078   1.934   5.996 -0.9182 -1.7791 -0.4910
   40POPC  H12B 5310   0.923   2.003   5.947  1.8336 -0.2474 -0.6926
   40POPC   C13 5311   1.080   2.186   5.923  0.3567  0.0807 -0.0049
   40POPC  H13A 5312   0.997   2.191   5.854 -1.3897 -2.2976  1.8571
   40POPC  H13B 5313   1.103   2.291   5.929 -1.0668  0.4904 -1.2409
   40POPC  H13C 5314   1.165   2.142   5.874  0.4530 -0.4579  0.6353
   40POPC   C14 5315   0.948   2.211   6.123  0.4199  0.6573  0.1031
   40POPC  H14A 5316   0.994   2.304   6.155 -1.6317  0.2952  4.5449
   40POPC  H14B 5317   0.867   2.246   6.061  0.3859  0.1184 -0.1564
   40POPC  H14C 5318   0.906   2.166   6.212  2.4837 -1.6825 -0.0654
   40POPC   C15 5319   1.169   2.129   6.133  0.4287 -0.0995  0.6215
   40POPC  H15A 5320   1.249   2.069   6.091  0.5710  0.2241  0.4212
   40POPC  H15B 5321   1.150   2.079   6.227  0.2546  1.5176  1.4658
   40POPC  H15C 5322   1.208   2.229   6.148  0.2541  0.7130 -3.7648
   40POPC   C11 5323   0.926   1.912   6.147  0.2832 -0.2928  0.5373
   40POPC  H11A 5324   0.906   1.810   6.109  0.6061  0.9174 -3.0299
   40POPC  H11B 5325   0.825   1.953   6.165  0.3494  0.4942 -0.8294
   40POPC     P 5326   0.969   1.957   6.402  0.1783 -0.1465 -0.0937
   40POPC   O13 5327   0.853   2.050   6.387  0.0495  0.1288 -0.2427
   40POPC   O14 5328   1.095   2.003   6.464  0.0344  0.2371  0.1797
   40POPC   O12 5329   1.011   1.907   6.260  0.5195  0.3503 -0.2791
   40POPC   O11 5330   0.925   1.828   6.469  0.6255  0.2363  0.4336
   40POPC    C1 5331   1.016   1.749   6.548 -0.3690  0.8018 -0.4633
   40POPC    HA 5332   1.065   1.817   6.620 -0.0980 -0.8009  0.9075
   40POPC    HB 5333   1.091   1.697   6.486  0.9129 -1.2566  2.6722
   40POPC    C2 5334   0.932   1.633   6.623  0.5967  0.2670  0.0551
   40POPC    HS 5335   0.877   1.575   6.545 -1.1603 -1.5900  2.5712
   40POPC   O21 5336   0.839   1.703   6.711 -0.3402  0.1426  0.2053
   40POPC   C21 5337   0.732   1.637   6.743  0.5551 -0.6078 -0.1346
   40POPC   O22 5338   0.716   1.518   6.722 -0.4181  0.2013  0.2805
   40POPC   C22 5339   0.628   1.731   6.814  0.1607  0.1192 -0.1619
   40POPC   H2R 5340   0.586   1.799   6.738 -0.9359  0.1117  0.4399
   40POPC   H2S 5341   0.684   1.791   6.889  0.6931 -0.7516  0.1511
   40POPC    C3 5342   1.028   1.534   6.695 -0.1501 -1.1176  0.1927
   40POPC    HX 5343   1.072   1.464   6.621 -0.7159  0.2642 -1.4835
   40POPC    HY 5344   0.971   1.473   6.768 -1.4381 -0.9447 -0.6375
   40POPC   O31 5345   1.132   1.600   6.766 -0.0631 -0.2084 -0.9175
   40POPC   C31 5346   1.110   1.640   6.891 -0.4990  0.6202 -0.2813
   40POPC   O32 5347   1.007   1.630   6.951  0.2151 -0.2525  0.0118
   40POPC   C32 5348   1.232   1.721   6.944 -0.6017  0.2622  0.6534
   40POPC   H2X 5349   1.286   1.758   6.854 -1.4362 -1.8314 -0.7552
   40POPC   H2Y 5350   1.305   1.649   6.986 -2.4683 -0.4143  2.8516
   40POPC   C23 5351   0.521   1.660   6.895  0.0894  0.4483 -0.3661
   40POPC   H3R 5352   0.556   1.630   6.996 -0.9808  0.6104  0.0631
   40POPC   H3S 5353   0.485   1.572   6.838  1.0133 -0.7046  0.8152
   40POPC   C24 5354   0.390   1.746   6.911 -0.3371 -0.5092  0.4561
   40POPC   H4R 5355   0.299   1.689   6.940 -0.9097 -1.0180 -2.2126
   40POPC   H4S 5356   0.356   1.791   6.815  2.6135 -1.5592 -1.1323
   40POPC   C25 5357   0.408   1.871   6.997 -0.2807  0.3578  0.0010
   40POPC   H5R 5358   0.317   1.935   7.003  0.3873  1.2386  0.9529
   40POPC   H5S 5359   0.481   1.936   6.943  1.2353 -1.6614 -0.4525
   40POPC   C26 5360   0.447   1.845   7.145  0.0276  0.1983 -0.0142
   40POPC   H6R 5361   0.422   1.936   7.204 -0.6426  0.5923 -0.8886
   40POPC   H6S 5362   0.558   1.837   7.158  0.1843  2.6419  0.3859
   40POPC   C27 5363   0.370   1.729   7.208  0.3244 -0.5798 -0.5807
   40POPC   H7R 5364   0.393   1.632   7.158 -0.5583 -0.9993 -0.1850
   40POPC   H7S 5365   0.261   1.739   7.190  0.4411  1.6597 -0.1315
   40POPC   C28 5366   0.401   1.714   7.358  0.2992 -0.0710 -0.2493
   40POPC   H8R 5367   0.327   1.646   7.403  0.8225 -0.2139  0.4087
   40POPC   H8S 5368   0.395   1.809   7.416  1.8710  0.1672 -0.4283
   40POPC   C29 5369   0.535   1.655   7.387  0.5027  0.9196  0.9651
   40POPC   H91 5370   0.575   1.591   7.307 -3.9823 -1.0377  0.1556
   40POPC  C210 5371   0.609   1.673   7.497  0.7140 -0.3627 -0.1788
   40POPC  H101 5372   0.701   1.612   7.498  0.1848 -1.1869 -1.3224
   40POPC  C211 5373   0.591   1.761   7.614  0.3740  0.9076 -0.4364
   40POPC  H11R 5374   0.538   1.858   7.597 -1.3139 -0.0581 -0.7711
   40POPC  H11S 5375   0.692   1.802   7.637  0.5636  0.5803 -0.6855
   40POPC  C212 5376   0.535   1.682   7.733  0.5387  0.7283 -0.0141
   40POPC  H12R 5377   0.604   1.602   7.768 -0.4535 -0.6564 -1.1597
   40POPC  H12S 5378   0.439   1.631   7.712 -0.4268  1.1463  3.0983
   40POPC  C213 5379   0.494   1.778   7.845  0.6567 -0.0250 -0.2344
   40POPC  H13R 5380   0.422   1.852   7.804  2.6564  1.6820 -0.7576
   40POPC  H13S 5381   0.587   1.825   7.884  0.5223 -1.0066  1.2882
   40POPC  C214 5382   0.434   1.700   7.963 -0.4258 -0.0683  0.1651
   40POPC  H14R 5383   0.378   1.616   7.918  0.8603 -1.0241  0.3244
   40POPC  H14S 5384   0.368   1.765   8.025  0.2136  2.7472 -2.0318
   40POPC  C215 5385   0.540   1.632   8.057 -0.3218 -0.4985 -0.3599
   40POPC  H15R 5386   0.587   1.706   8.127  1.7173 -0.0774 -2.1365
   40POPC  H15S 5387   0.614   1.566   8.008 -2.2830 -2.9697 -0.0468
   40POPC  C216 5388   0.459   1.534   8.143 -0.8608  0.0488  0.1231
   40POPC  H16R 5389   0.415   1.462   8.071 -1.9407  0.2859  0.5430
   40POPC  H16S 5390   0.385   1.593   8.200 -2.1821 -0.4657 -1.0370
   40POPC  C217 5391   0.552   1.459   8.244 -0.4588 -0.0290 -0.3655
   40POPC  H17R 5392   0.615   1.524   8.309 -0.4363 -0.4546  0.0417
   40POPC  H17S 5393   0.614   1.399   8.175 -0.7399  0.0069 -0.6530
   40POPC  C218 5394   0.485   1.360   8.335 -0.5138  0.5496 -0.4266
   40POPC  H18R 5395   0.550   1.297   8.399 -1.0869  0.5977  0.2104
   40POPC  H18S 5396   0.404   1.296   8.292  0.4934  0.1772 -1.7997
   40POPC  H18T 5397   0.444   1.416   8.422 -0.7558 -2.4418  1.4614
   40POPC   C33 5398   1.190   1.833   7.038  0.0171  0.1452 -0.3532
   40POPC   H3X 5399   1.101   1.886   6.999 -0.2869 -0.0296  0.0876
   40POPC   H3Y 5400   1.282   1.891   7.056  2.3983 -3.1924 -1.2646
   40POPC   C34 5401   1.150   1.770   7.177  0.4753  0.4432  0.8410
   40POPC   H4X 5402   1.235   1.730   7.237  0.5015  1.5160  1.5273
   40POPC   H4Y 5403   1.079   1.684   7.174 -0.1995  1.0485 -0.9140
   40POPC   C35 5404   1.083   1.887   7.256 -0.3389 -0.6910 -0.7135
   40POPC   H5X 5405   1.002   1.942   7.204 -1.4569 -1.1018  0.5942
   40POPC   H5Y 5406   1.154   1.972   7.266 -1.6473  0.2911  0.5074
   40POPC   C36 5407   1.062   1.842   7.396  0.0366  0.5191 -0.1403
   40POPC   H6X 5408   1.157   1.793   7.424 -0.4790 -0.1583  0.4580
   40POPC   H6Y 5409   0.977   1.770   7.401 -1.1052  1.9172  1.3989
   40POPC   C37 5410   1.019   1.956   7.485  0.1355 -0.3773  0.1600
   40POPC   H7X 5411   0.922   1.998   7.449  0.8022 -0.0919 -1.3392
   40POPC   H7Y 5412   1.092   2.039   7.497 -0.2211  0.4483 -2.9069
   40POPC   C38 5413   0.983   1.902   7.622  0.5310  0.5582  0.9926
   40POPC   H8X 5414   1.068   1.835   7.650 -0.7975 -1.0467  1.2653
   40POPC   H8Y 5415   0.888   1.844   7.621 -0.6860  2.5046 -1.3021
   40POPC   C39 5416   0.951   2.015   7.727 -0.3147  0.5243 -0.6317
   40POPC   H9X 5417   0.860   2.064   7.687 -1.8828 -0.7177  1.3208
   40POPC   H9Y 5418   1.037   2.083   7.710  0.9409 -0.9534 -0.3545
   40POPC  C310 5419   0.938   1.978   7.869  0.0503 -0.0093 -0.5165
   40POPC  H10X 5420   1.033   1.928   7.898 -1.3849 -1.3635  2.0099
   40POPC  H10Y 5421   0.864   1.896   7.885 -2.5148  1.9967 -1.7088
   40POPC  C311 5422   0.910   2.095   7.966  0.6940 -0.2209  0.8826
   40POPC  H11X 5423   0.818   2.139   7.923  2.6304  2.2301 -0.9050
   40POPC  H11Y 5424   0.997   2.165   7.971 -1.4710  2.5288  0.8454
   40POPC  C312 5425   0.888   2.043   8.110 -0.0028 -0.2334 -0.3309
   40POPC  H12X 5426   0.831   1.948   8.095 -1.0977  0.3438  0.0918
   40POPC  H12Y 5427   0.819   2.110   8.165  1.3070  0.5439  0.3869
   40POPC  C313 5428   1.017   1.992   8.177  0.8519 -0.2799 -0.3338
   40POPC  H13X 5429   1.096   2.066   8.151  0.7344 -0.6482 -1.7548
   40POPC  H13Y 5430   1.048   1.894   8.136 -0.1822 -0.7128 -0.0884
   40POPC  C314 5431   1.015   1.976   8.338  0.5330  0.3967  0.0640
   40POPC  H14X 5432   0.965   1.877   8.350  1.4154 -0.3642 -2.2079
   40POPC  H14Y 5433   0.948   2.057   8.373 -1.0247 -0.9972  0.3692
   40POPC  C315 5434   1.147   1.976   8.407 -0.3164  0.2589 -0.5740
   40POPC  H15X 5435   1.123   1.970   8.515  1.7065  1.6473 -0.0187
   40POPC  H15Y 5436   1.209   2.067   8.388 -1.0451  0.2264 -3.3840
   40POPC  C316 5437   1.247   1.856   8.389 -0.0108 -0.8433 -0.4757
   40POPC  H16X 5438   1.278   1.849   8.283  2.3021  0.1658  0.1069
   40POPC  H16Y 5439   1.189   1.766   8.418 -1.4234  0.4977  0.9571
   40POPC  H16Z 5440   1.334   1.877   8.455 -1.3706  1.6748  0.6015
   41CHL1    C3 5441   1.140   5.702   9.943 -0.5739 -0.1643 -0.6582
   41CHL1    H3 5442   1.111   5.596   9.927 -0.5952 -0.3134  0.4006
   41CHL1    O3 5443   1.161   5.723  10.080  0.5376 -1.1512 -0.0588
   41CHL1   H3' 5444   1.168   5.818  10.093  0.1693 -0.9388 -1.3040
   41CHL1    C4 5445   1.270   5.721   9.859  0.0645  0.1850 -0.6696
   41CHL1   H4A 5446   1.311   5.824   9.867  0.6182 -0.2340  2.2333
   41CHL1   H4B 5447   1.348   5.649   9.892 -1.5336 -1.7771 -1.0246
   41CHL1    C5 5448   1.244   5.695   9.717 -0.3471 -0.1803 -0.2048
   41CHL1    C6 5449   1.321   5.604   9.657  0.4353  0.7056 -0.0329
   41CHL1    H6 5450   1.400   5.555   9.716 -0.3001  0.2112  0.5456
   41CHL1    C7 5451   1.312   5.573   9.515  0.2662  0.0682  0.5110
   41CHL1   H7A 5452   1.410   5.569   9.464  0.3914  0.4084  0.7199
   41CHL1   H7B 5453   1.279   5.467   9.507  0.4357  0.0145  0.5306
   41CHL1    C8 5454   1.224   5.678   9.435  0.4671 -0.0481 -0.4396
   41CHL1    H8 5455   1.285   5.771   9.435 -1.3439  1.1676 -0.5168
   41CHL1   C14 5456   1.186   5.631   9.299 -0.2138  0.0159 -0.1451
   41CHL1   H14 5457   1.109   5.553   9.317  0.1477 -0.0959  1.0105
   41CHL1   C15 5458   1.293   5.578   9.198  0.2930 -0.1999  0.1055
   41CHL1  H15A 5459   1.394   5.623   9.209 -0.9437  3.0176 -0.9904
   41CHL1  H15B 5460   1.306   5.472   9.227  0.1306 -0.2126  0.1292
   41CHL1   C16 5461   1.236   5.592   9.053  0.2477  0.2533  0.8488
   41CHL1  H16A 5462   1.307   5.645   8.985 -0.4515 -1.9141 -1.6675
   41CHL1  H16B 5463   1.220   5.492   9.007 -0.9737  1.2379 -0.9148
   41CHL1   C17 5464   1.094   5.658   9.072 -0.3019 -0.5658 -0.2956
   41CHL1   H17 5465   1.012   5.585   9.086  1.3733 -2.8618 -1.9469
   41CHL1   C13 5466   1.102   5.732   9.207  0.1861  0.4400  0.1293
   41CHL1   C18 5467   1.192   5.855   9.181  0.0922  0.1368  0.1401
   41CHL1  H18A 5468   1.142   5.931   9.118 -0.6307  0.2287  0.8159
   41CHL1  H18B 5469   1.219   5.906   9.275  1.4821  0.3233 -0.3558
   41CHL1  H18C 5470   1.286   5.822   9.132  0.3971 -0.5763  1.1944
   41CHL1   C12 5471   0.971   5.754   9.289  0.1531  0.3238 -0.7411
   41CHL1  H12A 5472   0.919   5.826   9.222 -0.6015 -1.4994 -2.1445
   41CHL1  H12B 5473   0.927   5.652   9.286  2.8700 -0.8446 -2.1094
   41CHL1   C11 5474   1.000   5.801   9.432  0.6189 -0.3490  0.0760
   41CHL1  H11A 5475   1.047   5.902   9.428 -1.9100  0.8812  0.4550
   41CHL1  H11B 5476   0.908   5.821   9.491  1.5766 -0.8679  1.7845
   41CHL1    C9 5477   1.092   5.707   9.512 -0.2026  0.7474  1.7219
   41CHL1    H9 5478   1.045   5.609   9.536  2.1459  0.0403  3.6310
   41CHL1   C10 5479   1.130   5.769   9.652 -0.4940  0.2246 -0.9752
   41CHL1   C19 5480   1.177   5.916   9.642  0.8030 -0.4322  0.6558
   41CHL1  H19A 5481   1.240   5.932   9.551 -0.1823  0.0810  0.0594
   41CHL1  H19B 5482   1.090   5.984   9.647  0.4242 -0.8743  0.2020
   41CHL1  H19C 5483   1.238   5.953   9.727 -2.8531  1.9679  2.3440
   41CHL1    C1 5484   0.997   5.759   9.746 -0.1100 -0.3606  1.0954
   41CHL1   H1A 5485   0.927   5.840   9.718 -0.6677 -0.7983  1.2222
   41CHL1   H1B 5486   0.948   5.661   9.726 -0.7975  0.0550  0.7539
   41CHL1    C2 5487   1.025   5.789   9.891  0.1846  0.0108  0.1606
   41CHL1   H2A 5488   0.938   5.775   9.958 -0.1580 -1.7573 -0.6269
   41CHL1   H2B 5489   1.056   5.896   9.899 -3.3699  1.0716  0.7238
   41CHL1   C20 5490   1.039   5.739   8.955 -1.0558  0.3805 -0.5188
   41CHL1   H20 5491   0.977   5.823   8.993 -0.8205  0.2137  0.2385
   41CHL1   C21 5492   0.949   5.644   8.872  0.4249  0.2057 -0.0215
   41CHL1  H21A 5493   0.891   5.697   8.793 -0.2365  1.6422  1.3864
   41CHL1  H21B 5494   0.864   5.599   8.928  0.7025  0.4923  0.6265
   41CHL1  H21C 5495   1.012   5.560   8.837 -1.6026 -2.3658  2.2078
   41CHL1   C22 5496   1.135   5.802   8.858  0.4325 -0.5455 -0.2425
   41CHL1  H22A 5497   1.213   5.860   8.911  1.3065 -1.7563 -0.1779
   41CHL1  H22B 5498   1.192   5.728   8.798  0.0978 -1.5001  0.6139
   41CHL1   C23 5499   1.064   5.906   8.770  0.1892 -0.5579 -0.0074
   41CHL1  H23A 5500   0.985   5.846   8.720  3.0016 -4.1631 -0.3443
   41CHL1  H23B 5501   1.024   5.982   8.841  0.4253 -0.8339  0.4274
   41CHL1   C24 5502   1.135   5.990   8.659  0.2479 -0.7050 -0.1296
   41CHL1  H24A 5503   1.068   6.064   8.611 -0.1254 -0.6429  0.4823
   41CHL1  H24B 5504   1.214   6.047   8.714  0.0969  1.0184 -1.6588
   41CHL1   C25 5505   1.209   5.912   8.549  0.2299  1.0093 -0.2156
   41CHL1   H25 5506   1.271   5.842   8.608 -0.2040  2.2985  1.8238
   41CHL1   C26 5507   1.111   5.837   8.462  0.1630 -0.1209  0.1858
   41CHL1  H26A 5508   1.055   5.914   8.405  0.7398  0.6371  0.6293
   41CHL1  H26B 5509   1.154   5.755   8.401  1.9695  1.2686 -0.4422
   41CHL1  H26C 5510   1.032   5.783   8.518  0.1134  0.3663  0.5909
   41CHL1   C27 5511   1.293   6.008   8.469 -0.0106 -0.0305 -0.0187
   41CHL1  H27A 5512   1.374   5.945   8.427 -1.2979 -1.3592 -0.5599
   41CHL1  H27B 5513   1.228   6.063   8.398 -1.8524  0.1368  1.7352
   41CHL1  H27C 5514   1.342   6.078   8.540 -0.0464 -0.6320  0.6083
   42CHL1    C3 5515   0.902   5.382   9.861 -0.7166  0.9999 -0.7788
   42CHL1    H3 5516   0.909   5.486   9.824 -2.0610  0.8304 -1.5569
   42CHL1    O3 5517   0.866   5.381   9.993 -0.0184 -0.4323 -0.8279
   42CHL1   H3' 5518   0.897   5.300  10.033  1.6257  0.1745 -0.8222
   42CHL1    C4 5519   0.790   5.326   9.773  0.1076 -0.4189  0.1714
   42CHL1   H4A 5520   0.767   5.224   9.812 -0.9428 -1.2173 -2.3900
   42CHL1   H4B 5521   0.694   5.381   9.778  1.2321  2.1106 -3.6309
   42CHL1    C5 5522   0.847   5.313   9.632 -0.4972 -0.4341 -1.0680
   42CHL1    C6 5523   0.791   5.365   9.522  0.0943  0.0992 -0.3302
   42CHL1    H6 5524   0.691   5.410   9.533  0.4500  1.2092 -1.5412
   42CHL1    C7 5525   0.841   5.358   9.386  0.9347 -0.2675  0.7236
   42CHL1   H7A 5526   0.769   5.338   9.304 -0.1248  0.1377  1.5381
   42CHL1   H7B 5527   0.894   5.454   9.370 -2.5685  1.3877 -1.5056
   42CHL1    C8 5528   0.946   5.248   9.355 -0.2596  0.1765  0.1863
   42CHL1    H8 5529   0.891   5.152   9.361 -1.3117  0.7945  0.4706
   42CHL1   C14 5530   1.025   5.259   9.222  0.1384 -0.0191 -0.0844
   42CHL1   H14 5531   1.068   5.361   9.222  2.0107 -0.7844 -0.6139
   42CHL1   C15 5532   0.940   5.269   9.095 -0.5382  0.3340  0.1701
   42CHL1  H15A 5533   0.844   5.213   9.095  0.8057 -2.0401  0.9329
   42CHL1  H15B 5534   0.920   5.375   9.068 -0.3312  0.5078  0.7080
   42CHL1   C16 5535   1.021   5.217   8.982  0.0904 -0.1170  0.2702
   42CHL1  H16A 5536   0.970   5.141   8.919 -2.0526  1.2400  0.2886
   42CHL1  H16B 5537   1.037   5.288   8.898  0.7531  2.1800  2.2786
   42CHL1   C17 5538   1.158   5.175   9.048 -0.3666 -0.0463  0.2136
   42CHL1   H17 5539   1.220   5.267   9.055 -1.8828  1.0120  0.0359
   42CHL1   C13 5540   1.123   5.145   9.197  0.3304  0.1517 -0.4152
   42CHL1   C18 5541   1.080   4.994   9.212  0.0583  0.0885 -0.5689
   42CHL1  H18A 5542   1.158   4.915   9.213 -2.7443 -2.7848  0.3508
   42CHL1  H18B 5543   1.026   4.971   9.307 -0.4209 -2.5237 -1.4465
   42CHL1  H18C 5544   1.003   4.976   9.134 -1.4909  0.9549  0.7198
   42CHL1   C12 5545   1.233   5.164   9.307 -0.1970 -0.0071 -0.5196
   42CHL1  H12A 5546   1.309   5.083   9.300 -1.3756 -1.1438 -0.3962
   42CHL1  H12B 5547   1.285   5.259   9.284 -1.2573  0.1419 -2.4119
   42CHL1   C11 5548   1.169   5.153   9.446 -0.1231  0.7107  0.8331
   42CHL1  H11A 5549   1.138   5.047   9.450  0.2253  0.5568 -0.3181
   42CHL1  H11B 5550   1.257   5.157   9.515  0.0428 -0.3907  0.6881
   42CHL1    C9 5551   1.047   5.251   9.470  0.4167  0.7684  0.0946
   42CHL1    H9 5552   1.087   5.353   9.483 -0.5626  0.8951  2.3028
   42CHL1   C10 5553   0.981   5.241   9.616 -0.1469  0.2285  0.2528
   42CHL1   C19 5554   0.960   5.089   9.637  0.6092 -0.4743 -0.1345
   42CHL1  H19A 5555   0.911   5.043   9.548  0.7420 -0.4093 -0.2432
   42CHL1  H19B 5556   1.056   5.034   9.647 -0.1097 -1.4814  1.4537
   42CHL1  H19C 5557   0.893   5.065   9.722 -0.3501  0.4001 -0.6402
   42CHL1    C1 5558   1.084   5.296   9.723 -0.1281 -0.3743  0.5627
   42CHL1   H1A 5559   1.176   5.235   9.724 -1.5439 -2.6320 -0.9014
   42CHL1   H1B 5560   1.123   5.396   9.694 -0.2187 -1.1132 -2.2891
   42CHL1    C2 5561   1.037   5.301   9.862 -0.4431  0.0778  0.5164
   42CHL1   H2A 5562   1.111   5.339   9.935  1.5436 -0.3521 -1.2309
   42CHL1   H2B 5563   1.000   5.206   9.905 -0.6818 -0.1123 -0.1043
   42CHL1   C20 5564   1.231   5.058   8.973 -0.2091 -0.2557 -0.1530
   42CHL1   H20 5565   1.163   4.970   8.981  1.8939 -1.8290  0.8395
   42CHL1   C21 5566   1.363   5.031   9.047  0.7005 -0.0725  0.7568
   42CHL1  H21A 5567   1.414   5.121   9.087  2.3779  0.6419 -2.7596
   42CHL1  H21B 5568   1.445   4.998   8.979 -0.7931 -3.2026  0.4181
   42CHL1  H21C 5569   1.348   4.965   9.135 -0.7716 -0.1839  0.4320
   42CHL1   C22 5570   1.256   5.096   8.823 -0.7149  0.7642 -0.5808
   42CHL1  H22A 5571   1.315   5.019   8.768 -2.0845 -0.6314 -0.1419
   42CHL1  H22B 5572   1.157   5.108   8.775 -1.4377  0.3302  0.7847
   42CHL1   C23 5573   1.328   5.229   8.816  0.6372  0.2098 -0.4262
   42CHL1  H23A 5574   1.260   5.313   8.841  2.2507  2.1426 -2.3991
   42CHL1  H23B 5575   1.415   5.219   8.884  0.9778 -2.1437 -1.1668
   42CHL1   C24 5576   1.381   5.253   8.676  0.2206  0.0337 -0.1768
   42CHL1  H24A 5577   1.463   5.186   8.642  1.7960  1.2861  1.1066
   42CHL1  H24B 5578   1.302   5.246   8.597  1.7255 -0.3062 -1.6809
   42CHL1   C25 5579   1.426   5.399   8.665  0.7156 -0.2676  0.3458
   42CHL1   H25 5580   1.378   5.462   8.743  1.7876  0.6257  0.2981
   42CHL1   C26 5581   1.574   5.410   8.677  0.3794 -0.4188  0.0947
   42CHL1  H26A 5582   1.602   5.517   8.669  0.7887 -0.4974  0.4051
   42CHL1  H26B 5583   1.618   5.365   8.769  2.0770 -1.4173 -1.1705
   42CHL1  H26C 5584   1.623   5.348   8.598 -2.3179 -0.5797 -1.5083
   42CHL1   C27 5585   1.386   5.462   8.531  0.9179 -0.7189  0.1880
   42CHL1  H27A 5586   1.276   5.478   8.541  1.2311  0.9934  1.0300
   42CHL1  H27B 5587   1.437   5.559   8.515 -1.4539  0.6924  0.8191
   42CHL1  H27C 5588   1.413   5.394   8.448  1.3283 -2.2469  1.5299
   43CHL1    C3 5589   1.651   5.148  10.093 -0.4227 -0.3984 -1.0700
   43CHL1    H3 5590   1.709   5.242  10.086 -1.4887  0.3158 -0.3717
   43CHL1    O3 5591   1.590   5.131  10.218 -0.1475 -0.0149 -0.1857
   43CHL1   H3' 5592   1.643   5.070  10.270 -0.3068 -1.3001 -1.5016
   43CHL1    C4 5593   1.530   5.171   9.991 -0.9462  0.1250 -0.1257
   43CHL1   H4A 5594   1.468   5.080  10.002 -0.1783 -0.6666 -2.1693
   43CHL1   H4B 5595   1.481   5.261  10.035 -0.6821 -0.3223  1.1035
   43CHL1    C5 5596   1.579   5.176   9.849 -0.3604  0.0344 -0.0254
   43CHL1    C6 5597   1.557   5.287   9.773 -0.1189 -0.6766 -1.0342
   43CHL1    H6 5598   1.492   5.355   9.830  1.1965 -1.8888  1.9951
   43CHL1    C7 5599   1.592   5.320   9.632  1.0387  0.3413 -0.1835
   43CHL1   H7A 5600   1.501   5.367   9.590 -1.0533 -0.6279  3.0860
   43CHL1   H7B 5601   1.676   5.393   9.623  0.8797  0.4288 -0.9861
   43CHL1    C8 5602   1.626   5.181   9.575 -0.7795  0.1629 -0.6312
   43CHL1    H8 5603   1.531   5.124   9.577 -0.6102 -0.1335 -0.8986
   43CHL1   C14 5604   1.669   5.211   9.437 -0.1110  0.5565 -0.6624
   43CHL1   H14 5605   1.761   5.273   9.449  0.3392 -0.0413 -1.0238
   43CHL1   C15 5606   1.589   5.300   9.335  0.0692 -0.0010 -0.1378
   43CHL1  H15A 5607   1.487   5.260   9.316  1.1475 -2.1600 -1.5189
   43CHL1  H15B 5608   1.573   5.405   9.368 -0.3285 -0.1177  0.0514
   43CHL1   C16 5609   1.664   5.276   9.206 -0.1495 -0.5884 -0.1236
   43CHL1  H16A 5610   1.599   5.257   9.118  0.7642 -3.5069 -0.2066
   43CHL1  H16B 5611   1.738   5.357   9.189 -0.9454  0.0935 -0.3970
   43CHL1   C17 5612   1.753   5.150   9.226 -0.1801 -0.1791 -0.3240
   43CHL1   H17 5613   1.856   5.191   9.237 -0.5506  0.8136 -0.5034
   43CHL1   C13 5614   1.713   5.083   9.357 -0.4416 -0.5088 -0.0548
   43CHL1   C18 5615   1.593   4.989   9.331 -0.1740 -0.0709 -1.0252
   43CHL1  H18A 5616   1.625   4.886   9.304  1.6311  0.8813 -2.6414
   43CHL1  H18B 5617   1.535   4.984   9.426  2.0138 -0.1531  0.3375
   43CHL1  H18C 5618   1.527   5.028   9.250 -2.1101 -1.9763 -0.4281
   43CHL1   C12 5619   1.819   5.000   9.442  0.4700  0.5708  0.2899
   43CHL1  H12A 5620   1.860   4.911   9.389 -0.6685  0.5752 -0.6163
   43CHL1  H12B 5621   1.904   5.072   9.442  1.8548 -1.0328  2.7061
   43CHL1   C11 5622   1.769   4.972   9.588 -0.5911  0.3973 -0.0372
   43CHL1  H11A 5623   1.683   4.901   9.583 -0.1765 -0.0777 -0.3443
   43CHL1  H11B 5624   1.847   4.920   9.647  0.1226  0.1333 -1.2070
   43CHL1    C9 5625   1.723   5.099   9.659 -0.0120  0.8077 -0.3348
   43CHL1    H9 5626   1.812   5.164   9.677  0.2979  0.6422 -1.2443
   43CHL1   C10 5627   1.666   5.065   9.801  0.1198 -0.3458  0.2976
   43CHL1   C19 5628   1.566   4.937   9.788  0.7439  0.1165  0.1733
   43CHL1  H19A 5629   1.492   4.952   9.707 -0.9126 -1.9915  1.2726
   43CHL1  H19B 5630   1.625   4.844   9.770 -0.0406 -0.1047 -1.2952
   43CHL1  H19C 5631   1.508   4.928   9.882 -1.9359  2.1563 -1.2392
   43CHL1    C1 5632   1.773   5.023   9.906 -0.3053  0.4545 -0.3061
   43CHL1   H1A 5633   1.819   4.925   9.881 -0.8514 -0.5513  2.4738
   43CHL1   H1B 5634   1.849   5.103   9.900  0.1956  0.0823  1.0497
   43CHL1    C2 5635   1.730   5.027  10.052 -0.3198 -0.2150 -0.6382
   43CHL1   H2A 5636   1.821   5.012  10.114 -1.1776  2.4122  1.3384
   43CHL1   H2B 5637   1.673   4.936  10.080  1.4702 -1.2060 -0.1108
   43CHL1   C20 5638   1.769   5.057   9.101  0.4202  0.1138  0.0332
   43CHL1   H20 5639   1.671   5.021   9.063 -0.0020  0.2471  0.9702
   43CHL1   C21 5640   1.868   4.931   9.125  0.2183  0.7901  0.2723
   43CHL1  H21A 5641   1.837   4.863   9.207 -0.8245  1.2176  0.2344
   43CHL1  H21B 5642   1.967   4.973   9.152  0.4499 -0.2361  1.0813
   43CHL1  H21C 5643   1.877   4.864   9.037  1.6770 -0.3018  1.2141
   43CHL1   C22 5644   1.827   5.138   8.989  0.8434  0.7500 -0.5171
   43CHL1  H22A 5645   1.771   5.234   8.982  0.6280  0.6234 -0.5228
   43CHL1  H22B 5646   1.926   5.175   9.023  0.2847  0.6269  1.3081
   43CHL1   C23 5647   1.855   5.073   8.852  0.1039 -0.4548  0.0949
   43CHL1  H23A 5648   1.907   5.153   8.795  0.7604 -1.0856 -0.2020
   43CHL1  H23B 5649   1.925   4.991   8.877 -0.3787 -1.3580 -1.4732
   43CHL1   C24 5650   1.737   5.012   8.781 -0.1277 -0.1541 -0.5130
   43CHL1  H24A 5651   1.688   4.950   8.859  0.7881 -0.2633 -0.0169
   43CHL1  H24B 5652   1.667   5.083   8.733  0.6801  1.0351  0.0376
   43CHL1   C25 5653   1.778   4.910   8.673 -0.5146  0.8250 -0.6269
   43CHL1   H25 5654   1.846   4.834   8.716  0.0688  0.5506 -2.0005
   43CHL1   C26 5655   1.641   4.850   8.623  0.0962  0.2901  0.0745
   43CHL1  H26A 5656   1.654   4.760   8.559 -0.3326 -0.2995  0.7977
   43CHL1  H26B 5657   1.562   4.834   8.700 -1.0696  2.0797 -0.7276
   43CHL1  H26C 5658   1.599   4.935   8.565  0.9007  1.7029  1.5330
   43CHL1   C27 5659   1.855   4.982   8.563  0.3938 -0.0959 -0.4070
   43CHL1  H27A 5660   1.792   5.059   8.513  1.8278  1.2736 -0.1382
   43CHL1  H27B 5661   1.941   5.039   8.604  0.5174  1.0546 -2.1938
   43CHL1  H27C 5662   1.888   4.907   8.488 -0.8805 -0.2668 -0.8176
   44CHL1    C3 5663   1.722   5.915  10.214 -0.2627 -0.2160  0.5592
   44CHL1    H3 5664   1.768   6.016  10.204  3.4567 -1.8837 -0.2166
   44CHL1    O3 5665   1.702   5.882  10.350 -0.5036 -0.3069 -0.0068
   44CHL1   H3' 5666   1.631   5.818  10.342  1.4465 -2.4665 -0.6334
   44CHL1    C4 5667   1.586   5.919  10.143 -0.0694  0.3223 -0.7667
   44CHL1   H4A 5668   1.539   5.818  10.150  0.7598  0.0340  0.5894
   44CHL1   H4B 5669   1.512   5.986  10.192 -1.6623 -1.6166 -0.4348
   44CHL1    C5 5670   1.600   5.950   9.995  0.6855  0.5126 -0.1603
   44CHL1    C6 5671   1.529   6.050   9.938 -0.3077 -0.6721 -0.0767
   44CHL1    H6 5672   1.464   6.114  10.000  0.4468  1.0956 -1.0675
   44CHL1    C7 5673   1.542   6.087   9.794  0.4458  0.2854 -0.3248
   44CHL1   H7A 5674   1.438   6.111   9.764 -1.1561 -4.0868  1.2862
   44CHL1   H7B 5675   1.606   6.177   9.788  3.2218 -1.4567  1.9446
   44CHL1    C8 5676   1.599   5.973   9.706  0.4615 -0.3162  0.2051
   44CHL1    H8 5677   1.519   5.897   9.695  1.0585 -0.8351 -0.6791
   44CHL1   C14 5678   1.618   6.022   9.565 -0.0782 -0.1271  0.1625
   44CHL1   H14 5679   1.694   6.104   9.566 -1.3147  1.1488 -2.9250
   44CHL1   C15 5680   1.505   6.078   9.487  0.9088 -0.3294 -0.5589
   44CHL1  H15A 5681   1.421   6.009   9.510  2.3695 -1.2137  2.2840
   44CHL1  H15B 5682   1.475   6.179   9.524 -0.6245 -1.4787  1.4167
   44CHL1   C16 5683   1.551   6.072   9.340 -0.0875  0.0500 -0.6155
   44CHL1  H16A 5684   1.469   6.048   9.268  1.0092 -1.4900 -1.3878
   44CHL1  H16B 5685   1.580   6.177   9.321  1.8958 -0.0690  1.5317
   44CHL1   C17 5686   1.690   5.990   9.343  0.2858  0.1858  0.1960
   44CHL1   H17 5687   1.772   6.065   9.339 -0.4837  1.1344  1.7043
   44CHL1   C13 5688   1.696   5.919   9.478  0.1479  0.5096  0.3969
   44CHL1   C18 5689   1.611   5.783   9.461  0.8065 -0.8975  0.0352
   44CHL1  H18A 5690   1.602   5.737   9.562 -1.5871  1.5352  0.9934
   44CHL1  H18B 5691   1.515   5.798   9.407  1.4855 -1.1191 -1.2610
   44CHL1  H18C 5692   1.673   5.721   9.392 -0.3230  0.0395 -1.8713
   44CHL1   C12 5693   1.830   5.902   9.543 -0.1173 -0.4786 -0.8023
   44CHL1  H12A 5694   1.886   5.831   9.479 -0.6830  0.2830 -2.1610
   44CHL1  H12B 5695   1.892   5.993   9.558  0.2881 -0.8012 -0.5089
   44CHL1   C11 5696   1.820   5.840   9.684  0.7665 -0.7742  0.0634
   44CHL1  H11A 5697   1.767   5.742   9.676 -1.8977  0.7712 -2.2405
   44CHL1  H11B 5698   1.917   5.833   9.738  1.2620 -0.5014 -0.7819
   44CHL1    C9 5699   1.723   5.924   9.775 -0.3333  0.0261 -0.2646
   44CHL1    H9 5700   1.778   6.018   9.799 -0.3903 -0.2166  0.8201
   44CHL1   C10 5701   1.691   5.863   9.914 -0.0097 -0.5618 -0.5267
   44CHL1   C19 5702   1.625   5.724   9.889 -0.0425 -0.2480  0.9193
   44CHL1  H19A 5703   1.699   5.648   9.856  0.0888 -1.0418  2.9567
   44CHL1  H19B 5704   1.595   5.694   9.992  2.0501  0.3877  1.7385
   44CHL1  H19C 5705   1.539   5.726   9.820  1.3844 -1.5819 -0.9648
   44CHL1    C1 5706   1.831   5.844   9.994  0.1703 -0.4290 -0.1139
   44CHL1   H1A 5707   1.891   5.763   9.947  3.6475  2.8711 -1.5965
   44CHL1   H1B 5708   1.895   5.934   9.984 -2.1818  1.5496  1.8685
   44CHL1    C2 5709   1.815   5.815  10.144 -0.2413  0.4554  1.0858
   44CHL1   H2A 5710   1.916   5.821  10.191  0.8022  1.5161 -1.2049
   44CHL1   H2B 5711   1.768   5.714  10.144 -0.2488  0.4317 -1.2466
   44CHL1   C20 5712   1.714   5.914   9.213 -0.2599 -0.3834  0.5339
   44CHL1   H20 5713   1.644   5.828   9.215  1.3998 -1.8733 -2.5929
   44CHL1   C21 5714   1.865   5.865   9.199  0.3768 -0.8613  0.0816
   44CHL1  H21A 5715   1.931   5.951   9.177  0.9469 -0.6822  2.4002
   44CHL1  H21B 5716   1.877   5.792   9.116  0.3743 -0.0457 -0.6393
   44CHL1  H21C 5717   1.900   5.821   9.294  2.3710 -1.2568 -0.8278
   44CHL1   C22 5718   1.661   5.990   9.083  0.0045  0.1944 -0.4854
   44CHL1  H22A 5719   1.552   5.971   9.085  0.4297 -2.4844 -0.3474
   44CHL1  H22B 5720   1.684   6.098   9.092 -1.5177  0.5675 -0.9543
   44CHL1   C23 5721   1.705   5.940   8.943 -0.4278 -0.4976 -0.3408
   44CHL1  H23A 5722   1.806   5.985   8.927  1.2142 -4.3170 -1.1064
   44CHL1  H23B 5723   1.709   5.829   8.943  0.3968 -0.4697  0.2246
   44CHL1   C24 5724   1.608   5.990   8.843  0.2005 -0.7086 -0.0496
   44CHL1  H24A 5725   1.512   5.935   8.849  0.2823 -0.8701 -0.2273
   44CHL1  H24B 5726   1.593   6.097   8.869  0.0586 -0.8951  0.6631
   44CHL1   C25 5727   1.648   6.001   8.693  0.1814 -0.0680  0.4297
   44CHL1   H25 5728   1.561   6.051   8.647 -1.2335 -0.9578  2.0907
   44CHL1   C26 5729   1.779   6.078   8.669 -0.0711  0.5333 -0.3117
   44CHL1  H26A 5730   1.813   6.065   8.564 -2.3563 -0.2058 -0.9665
   44CHL1  H26B 5731   1.776   6.186   8.696 -0.1377  1.2397 -3.0652
   44CHL1  H26C 5732   1.864   6.035   8.726  0.0835 -1.1880 -1.8149
   44CHL1   C27 5733   1.656   5.859   8.643 -0.1522 -0.0497  0.2145
   44CHL1  H27A 5734   1.557   5.810   8.638  0.1045 -0.5898  0.4474
   44CHL1  H27B 5735   1.692   5.853   8.538 -4.2996  1.1606 -1.3615
   44CHL1  H27C 5736   1.720   5.792   8.704 -1.2101 -0.0937  1.2842
   45CHL1    C3 5737   5.313   4.487  10.264 -0.5194  0.2557  0.0182
   45CHL1    H3 5738   5.408   4.445  10.304 -1.3211 -1.3678  0.2506
   45CHL1    O3 5739   5.221   4.504  10.376  0.2682  0.0628  0.5731
   45CHL1   H3' 5740   5.176   4.584  10.349 -2.6074 -2.7460 -3.6174
   45CHL1    C4 5741   5.352   4.621  10.192  0.1791 -0.3860 -0.0598
   45CHL1   H4A 5742   5.261   4.680  10.168  0.3536  0.1027  0.4785
   45CHL1   H4B 5743   5.402   4.687  10.266 -0.8650  2.6033 -1.9386
   45CHL1    C5 5744   5.432   4.589  10.070  0.2620 -0.0802  0.1564
   45CHL1    C6 5745   5.550   4.648  10.051 -0.1386  0.5068 -0.1403
   45CHL1    H6 5746   5.591   4.718  10.125  1.2042  0.9491 -1.2942
   45CHL1    C7 5747   5.652   4.623   9.940 -0.1425 -0.0666 -0.1932
   45CHL1   H7A 5748   5.703   4.718   9.914  0.5938 -0.4744 -0.2453
   45CHL1   H7B 5749   5.729   4.549   9.971  0.5181  1.4646  1.9441
   45CHL1    C8 5750   5.579   4.569   9.817 -0.1996  0.1950 -0.0367
   45CHL1    H8 5751   5.652   4.521   9.748  0.1801 -2.7101  2.2790
   45CHL1   C14 5752   5.524   4.672   9.721  0.4727 -0.3376  0.5219
   45CHL1   H14 5753   5.463   4.737   9.788  0.7887 -0.7035  1.1683
   45CHL1   C15 5754   5.644   4.757   9.666  0.2148  0.5501 -0.3869
   45CHL1  H15A 5755   5.605   4.861   9.658 -1.0481  0.1599  0.4943
   45CHL1  H15B 5756   5.735   4.755   9.730 -1.3468  1.4819  1.9290
   45CHL1   C16 5757   5.673   4.702   9.524  0.2774  0.1812  0.4587
   45CHL1  H16A 5758   5.653   4.783   9.450 -0.4387  0.4470  0.9355
   45CHL1  H16B 5759   5.773   4.652   9.520  0.1366 -0.2318  1.8094
   45CHL1   C17 5760   5.577   4.589   9.497 -0.0556 -0.0389 -0.7000
   45CHL1   H17 5761   5.628   4.500   9.538 -1.0042 -0.7133 -0.9609
   45CHL1   C13 5762   5.460   4.608   9.594 -0.0983 -0.9345 -1.0228
   45CHL1   C18 5763   5.377   4.724   9.530 -0.1222 -0.5379  0.4148
   45CHL1  H18A 5764   5.336   4.696   9.431 -0.0040 -0.3735  0.3210
   45CHL1  H18B 5765   5.294   4.754   9.597 -3.2641 -1.7027 -2.7829
   45CHL1  H18C 5766   5.440   4.812   9.506  1.3564 -1.2794  1.5263
   45CHL1   C12 5767   5.368   4.483   9.622 -0.5813 -0.2800 -0.1516
   45CHL1  H12A 5768   5.269   4.515   9.662 -0.7703 -1.6209  0.4732
   45CHL1  H12B 5769   5.354   4.430   9.525  3.4397 -1.9944  0.1278
   45CHL1   C11 5770   5.429   4.386   9.725 -0.1947 -0.0993  0.5594
   45CHL1  H11A 5771   5.353   4.313   9.758 -0.8707  0.6322  0.6537
   45CHL1  H11B 5772   5.522   4.343   9.682  1.5345  1.5893  2.4860
   45CHL1    C9 5773   5.486   4.448   9.860  1.0577  0.0571  0.0597
   45CHL1    H9 5774   5.556   4.380   9.913 -0.3708  0.2991  2.3363
   45CHL1   C10 5775   5.376   4.487   9.966  0.6525 -0.3886  0.2903
   45CHL1   C19 5776   5.249   4.548   9.902  0.4714 -0.0648  0.0985
   45CHL1  H19A 5777   5.172   4.587   9.972 -0.8473  0.8714 -1.8221
   45CHL1  H19B 5778   5.273   4.636   9.838 -1.4283  0.0854 -0.4535
   45CHL1  H19C 5779   5.189   4.469   9.852  1.1058  0.5994 -1.7365
   45CHL1    C1 5780   5.332   4.363  10.044 -0.6094  0.1708 -0.0638
   45CHL1   H1A 5781   5.276   4.292   9.978 -0.4430 -1.2035  1.2674
   45CHL1   H1B 5782   5.424   4.316  10.084  0.5249  1.9670 -0.5047
   45CHL1    C2 5783   5.241   4.393  10.163 -0.1278  0.7478 -0.2526
   45CHL1   H2A 5784   5.217   4.304  10.225  0.0076  0.3271 -0.7954
   45CHL1   H2B 5785   5.145   4.432  10.123  0.7909  1.2149 -2.0928
   45CHL1   C20 5786   5.547   4.549   9.352 -0.3758  0.8315  0.0814
   45CHL1   H20 5787   5.446   4.505   9.341 -0.3998  0.8622  0.1694
   45CHL1   C21 5788   5.645   4.431   9.322 -1.0614  0.3118  0.0153
   45CHL1  H21A 5789   5.664   4.406   9.216 -1.6367 -0.1144  0.0087
   45CHL1  H21B 5790   5.607   4.333   9.358 -1.3127  0.5924  0.5437
   45CHL1  H21C 5791   5.743   4.446   9.373 -0.1515 -0.7426 -1.4009
   45CHL1   C22 5792   5.563   4.652   9.243 -0.8453 -0.1656 -0.4110
   45CHL1  H22A 5793   5.530   4.751   9.283  0.5724  0.7839 -1.4997
   45CHL1  H22B 5794   5.672   4.656   9.222 -0.7429 -0.4779  0.0639
   45CHL1   C23 5795   5.479   4.624   9.112 -0.5252 -0.4157 -0.1339
   45CHL1  H23A 5796   5.505   4.522   9.077 -2.0056 -1.7582  2.5304
   45CHL1  H23B 5797   5.372   4.630   9.142 -0.0636 -0.7722  1.6285
   45CHL1   C24 5798   5.502   4.726   8.998  0.0712  0.1845  0.1482
   45CHL1  H24A 5799   5.506   4.825   9.046  0.2280 -0.0902  0.7008
   45CHL1  H24B 5800   5.599   4.713   8.944  0.6223 -2.0940  1.5987
   45CHL1   C25 5801   5.394   4.729   8.885  0.5736  0.3420  0.4057
   45CHL1   H25 5802   5.429   4.795   8.803 -1.2370  0.9917  0.1317
   45CHL1   C26 5803   5.374   4.592   8.821 -0.3609 -0.0327 -0.3536
   45CHL1  H26A 5804   5.341   4.515   8.895 -0.4762  0.5299  0.1820
   45CHL1  H26B 5805   5.306   4.604   8.734  1.1221  0.1032 -1.5069
   45CHL1  H26C 5806   5.477   4.575   8.783  0.3082  0.8031  1.0477
   45CHL1   C27 5807   5.263   4.786   8.942  0.1148 -0.8395 -0.2891
   45CHL1  H27A 5808   5.191   4.812   8.862  1.1981  1.0386 -0.6912
   45CHL1  H27B 5809   5.219   4.711   9.010  0.0799 -1.1507 -0.6536
   45CHL1  H27C 5810   5.286   4.870   9.011  1.6763 -1.4887  0.0129
   46CHL1    C3 5811   1.262   1.718  10.045 -0.0269  0.4605  0.4887
   46CHL1    H3 5812   1.311   1.814  10.018  1.2201  0.2884  2.0717
   46CHL1    O3 5813   1.289   1.703  10.181 -0.8978 -0.2164 -0.0395
   46CHL1   H3' 5814   1.246   1.618  10.192  0.7680 -1.1470 -0.4710
   46CHL1    C4 5815   1.107   1.729  10.032  0.3697  0.3519 -0.0306
   46CHL1   H4A 5816   1.056   1.636  10.067  0.6266  1.3971  3.2799
   46CHL1   H4B 5817   1.070   1.816  10.091 -0.3235 -0.0211  0.0975
   46CHL1    C5 5818   1.082   1.755   9.882 -0.6722 -0.0798 -0.7618
   46CHL1    C6 5819   1.011   1.859   9.839 -0.5272  0.1367 -0.0337
   46CHL1    H6 5820   0.978   1.937   9.910  0.5349 -1.2337  1.9979
   46CHL1    C7 5821   0.971   1.890   9.700 -0.3594  0.1372  0.0118
   46CHL1   H7A 5822   0.863   1.918   9.705 -0.7132 -1.3552  1.3715
   46CHL1   H7B 5823   1.034   1.977   9.673  1.0171  0.8995  5.1521
   46CHL1    C8 5824   0.997   1.769   9.606  0.1486  0.1696  0.0459
   46CHL1    H8 5825   0.914   1.697   9.622 -0.9486  1.1453 -1.1367
   46CHL1   C14 5826   0.988   1.817   9.458 -0.2865 -0.3470  0.7464
   46CHL1   H14 5827   1.064   1.898   9.453 -1.8675  1.1121 -0.1530
   46CHL1   C15 5828   0.854   1.879   9.411 -0.3853 -0.1290  0.3074
   46CHL1  H15A 5829   0.761   1.833   9.451 -0.2027 -2.0155 -1.4150
   46CHL1  H15B 5830   0.853   1.986   9.441 -2.5940 -0.2748  0.8125
   46CHL1   C16 5831   0.853   1.846   9.262  0.2927 -0.4496  0.3741
   46CHL1  H16A 5832   0.763   1.787   9.235 -0.6516  1.6461 -1.2719
   46CHL1  H16B 5833   0.838   1.940   9.204  0.1893 -0.1913  0.8150
   46CHL1   C17 5834   0.981   1.777   9.229  0.6335 -0.8822 -0.0372
   46CHL1   H17 5835   1.053   1.858   9.203 -1.0257  0.8563  0.6108
   46CHL1   C13 5836   1.024   1.711   9.353  0.7521  0.1983  0.0036
   46CHL1   C18 5837   0.929   1.584   9.369  0.4454  0.2812 -0.0003
   46CHL1  H18A 5838   0.956   1.521   9.282  0.1879  0.3746 -0.1460
   46CHL1  H18B 5839   0.943   1.536   9.468  0.4313  1.0859  0.3954
   46CHL1  H18C 5840   0.823   1.614   9.349  0.9196  0.9560 -1.5920
   46CHL1   C12 5841   1.169   1.676   9.377  0.6341 -0.3962  0.1715
   46CHL1  H12A 5842   1.204   1.610   9.295 -1.8234  0.9863 -2.0391
   46CHL1  H12B 5843   1.223   1.768   9.346  1.6855 -0.6653  1.1708
   46CHL1   C11 5844   1.199   1.620   9.523  0.1156  0.1125  0.1465
   46CHL1  H11A 5845   1.159   1.517   9.512 -2.4288  1.1079 -0.1286
   46CHL1  H11B 5846   1.308   1.604   9.542 -0.2424 -3.0187 -0.2069
   46CHL1    C9 5847   1.132   1.709   9.640 -0.1864  0.5920 -1.2547
   46CHL1    H9 5848   1.189   1.805   9.643 -0.9603  1.0318 -0.6612
   46CHL1   C10 5849   1.139   1.647   9.781  0.6573  0.3423 -0.0056
   46CHL1   C19 5850   1.057   1.514   9.797 -0.1450  0.5479 -0.6450
   46CHL1  H19A 5851   1.052   1.472   9.900 -0.1200 -0.9579 -1.2463
   46CHL1  H19B 5852   0.952   1.523   9.764  0.7025  2.5487 -2.9102
   46CHL1  H19C 5853   1.102   1.442   9.725  0.9054 -1.1553  1.6200
   46CHL1    C1 5854   1.287   1.630   9.815 -0.4610  0.5418 -0.3529
   46CHL1   H1A 5855   1.322   1.544   9.753  1.1284  0.2784  0.8723
   46CHL1   H1B 5856   1.349   1.717   9.786  0.9200 -0.3811 -0.2375
   46CHL1    C2 5857   1.324   1.608   9.962 -0.3525  0.2638  0.0885
   46CHL1   H2A 5858   1.432   1.601   9.986 -0.3482 -2.5418 -0.6027
   46CHL1   H2B 5859   1.290   1.511  10.003  3.1805 -1.0425  0.1212
   46CHL1   C20 5860   0.977   1.705   9.091 -0.0883  0.4189 -0.6404
   46CHL1   H20 5861   0.891   1.636   9.101 -0.2510  0.8062  0.7648
   46CHL1   C21 5862   1.110   1.629   9.061  0.9281 -0.3352  0.6699
   46CHL1  H21A 5863   1.195   1.693   9.094 -0.1088  1.4425 -0.0662
   46CHL1  H21B 5864   1.122   1.613   8.952  1.5523  1.5920  0.4460
   46CHL1  H21C 5865   1.107   1.531   9.113 -0.4601 -0.6231  0.0583
   46CHL1   C22 5866   0.951   1.804   8.971 -0.2344  0.0967 -0.3366
   46CHL1  H22A 5867   0.847   1.838   8.990 -0.2632 -0.5103  0.6441
   46CHL1  H22B 5868   1.021   1.890   8.975  0.3555 -0.4568  2.5931
   46CHL1   C23 5869   0.945   1.746   8.838  0.7867  0.5180  0.0726
   46CHL1  H23A 5870   0.901   1.824   8.771 -2.4047 -1.9297 -0.8098
   46CHL1  H23B 5871   1.049   1.731   8.802  1.0196  1.1332  0.4783
   46CHL1   C24 5872   0.851   1.631   8.819 -0.2812 -0.1833 -0.4532
   46CHL1  H24A 5873   0.884   1.561   8.898 -2.1185  1.7201  2.0647
   46CHL1  H24B 5874   0.743   1.658   8.824 -0.1718  0.0623  0.7285
   46CHL1   C25 5875   0.865   1.545   8.687  0.1820 -0.4092  0.0729
   46CHL1   H25 5876   0.859   1.614   8.601  1.0383 -1.8277 -1.1562
   46CHL1   C26 5877   1.001   1.482   8.675  0.3734 -0.0892 -0.5354
   46CHL1  H26A 5878   1.009   1.404   8.753 -0.6783 -0.5870 -0.9172
   46CHL1  H26B 5879   1.005   1.437   8.574 -3.7975  1.5755 -1.5539
   46CHL1  H26C 5880   1.085   1.551   8.698  0.4598 -0.2655 -0.3251
   46CHL1   C27 5881   0.760   1.430   8.683  0.4084  0.0401  0.7414
   46CHL1  H27A 5882   0.661   1.478   8.701  0.4107 -0.3828  1.9118
   46CHL1  H27B 5883   0.751   1.380   8.584  1.5095 -0.6025  0.9650
   46CHL1  H27C 5884   0.776   1.360   8.767  1.7834  1.5136  1.7421
   47CHL1    C3 5885   2.174   5.480  10.158  0.4533  0.0016 -0.1406
   47CHL1    H3 5886   2.281   5.500  10.136  0.6532 -0.9766 -0.0880
   47CHL1    O3 5887   2.141   5.480  10.297  0.1668  1.0652  0.2050
   47CHL1   H3' 5888   2.062   5.428  10.310  1.4146 -0.6861  0.9004
   47CHL1    C4 5889   2.095   5.583  10.079 -0.4118  0.4531 -0.0284
   47CHL1   H4A 5890   1.987   5.569  10.097  0.0376 -0.2829  2.2988
   47CHL1   H4B 5891   2.116   5.684  10.118  0.9637  0.8794 -1.7791
   47CHL1    C5 5892   2.116   5.570   9.930 -0.4302 -0.0003 -0.6572
   47CHL1    C6 5893   2.171   5.675   9.864 -0.7208 -0.1337  0.0066
   47CHL1    H6 5894   2.193   5.770   9.915 -0.2462 -0.8665  1.1731
   47CHL1    C7 5895   2.199   5.671   9.714  1.1614 -0.4700  0.5900
   47CHL1   H7A 5896   2.167   5.758   9.652  0.5639  0.4674  2.1794
   47CHL1   H7B 5897   2.308   5.653   9.700  0.7492 -2.9922  0.3800
   47CHL1    C8 5898   2.129   5.553   9.640 -0.2690 -1.5474  1.0162
   47CHL1    H8 5899   2.022   5.581   9.628  0.8185  2.5043 -0.0882
   47CHL1   C14 5900   2.186   5.542   9.500 -0.1415  0.5211 -0.3535
   47CHL1   H14 5901   2.295   5.524   9.506 -0.2344  0.6041  1.8102
   47CHL1   C15 5902   2.175   5.669   9.408 -0.4840 -0.2814  0.7750
   47CHL1  H15A 5903   2.075   5.717   9.420 -1.5363 -2.1396 -0.2726
   47CHL1  H15B 5904   2.240   5.759   9.423 -1.7245  1.0464 -1.6076
   47CHL1   C16 5905   2.192   5.609   9.265 -0.4578  0.0261  0.8134
   47CHL1  H16A 5906   2.107   5.647   9.205  1.1564  1.2445 -0.7408
   47CHL1  H16B 5907   2.283   5.635   9.207  0.0592 -1.4298  0.9515
   47CHL1   C17 5908   2.189   5.450   9.291 -0.2976 -0.0286 -0.1677
   47CHL1   H17 5909   2.294   5.414   9.296  0.3538  1.9981  1.5688
   47CHL1   C13 5910   2.122   5.427   9.419  0.9860 -0.1479 -0.5198
   47CHL1   C18 5911   1.976   5.461   9.390  0.5252 -0.0027  0.0160
   47CHL1  H18A 5912   1.960   5.557   9.335  2.4627 -1.1812 -2.7068
   47CHL1  H18B 5913   1.923   5.380   9.337  0.3681 -0.3549  0.7060
   47CHL1  H18C 5914   1.921   5.488   9.483  1.1437 -0.3424  0.4889
   47CHL1   C12 5915   2.138   5.294   9.497  0.4900  0.4309  0.3519
   47CHL1  H12A 5916   2.088   5.209   9.445  0.8622  2.1986 -3.0891
   47CHL1  H12B 5917   2.247   5.273   9.502  0.3168 -0.3212  0.9986
   47CHL1   C11 5918   2.087   5.296   9.642  0.9755  0.6734 -0.2598
   47CHL1  H11A 5919   1.978   5.317   9.632  0.9140  1.0515  1.1440
   47CHL1  H11B 5920   2.097   5.197   9.690  0.6570  0.5901 -0.3600
   47CHL1    C9 5921   2.143   5.419   9.717  0.3508 -0.2412 -0.6791
   47CHL1    H9 5922   2.252   5.405   9.728  0.2076  0.1038  1.2618
   47CHL1   C10 5923   2.092   5.431   9.863 -0.5042  0.3510 -0.4598
   47CHL1   C19 5924   1.942   5.416   9.863 -0.7515 -0.3496  0.3973
   47CHL1  H19A 5925   1.920   5.311   9.835 -2.1275  0.5586 -2.1594
   47CHL1  H19B 5926   1.890   5.441   9.958  1.1296 -0.8670  1.5831
   47CHL1  H19C 5927   1.908   5.487   9.784 -4.1818  0.6610  2.6848
   47CHL1    C1 5928   2.161   5.318   9.950  0.3215 -0.0119  0.0148
   47CHL1   H1A 5929   2.114   5.221   9.923 -0.6822  0.3326  0.5199
   47CHL1   H1B 5930   2.270   5.313   9.927  0.9170 -0.3769  2.8399
   47CHL1    C2 5931   2.144   5.340  10.103  0.4929  0.3275 -0.3473
   47CHL1   H2A 5932   2.213   5.268  10.153  1.4738  0.8716 -0.8842
   47CHL1   H2B 5933   2.038   5.319  10.127  1.7018 -4.3595  1.3886
   47CHL1   C20 5934   2.129   5.380   9.172  0.2820  0.3594 -0.3670
   47CHL1   H20 5935   2.019   5.384   9.158 -0.1511 -1.7489  2.1929
   47CHL1   C21 5936   2.167   5.225   9.179  0.5823 -0.3412  0.7172
   47CHL1  H21A 5937   2.238   5.207   9.263  2.2473 -0.0731 -0.6187
   47CHL1  H21B 5938   2.205   5.190   9.081  0.1066 -1.0661  0.7889
   47CHL1  H21C 5939   2.077   5.162   9.190 -0.6421  0.9232 -1.8426
   47CHL1   C22 5940   2.193   5.435   9.038 -0.2178 -0.8910 -0.1350
   47CHL1  H22A 5941   2.214   5.544   9.033 -0.6464 -0.8533 -1.4932
   47CHL1  H22B 5942   2.294   5.389   9.032 -0.4765 -1.5117  0.3306
   47CHL1   C23 5943   2.113   5.405   8.907  0.5653 -0.0693 -0.0939
   47CHL1  H23A 5944   2.096   5.295   8.913  2.9256 -0.3744  1.4962
   47CHL1  H23B 5945   2.021   5.466   8.914  0.3561 -0.4422  0.4289
   47CHL1   C24 5946   2.187   5.430   8.774 -0.0781 -0.1550  1.0131
   47CHL1  H24A 5947   2.125   5.505   8.720  0.4688 -0.5325 -0.1613
   47CHL1  H24B 5948   2.284   5.481   8.797 -0.2118  0.9598 -0.7687
   47CHL1   C25 5949   2.196   5.308   8.674  0.1389 -0.1683 -0.5298
   47CHL1   H25 5950   2.088   5.284   8.660 -0.2052  1.5233 -0.8293
   47CHL1   C26 5951   2.250   5.356   8.543 -0.3478 -0.7677 -1.0556
   47CHL1  H26A 5952   2.351   5.395   8.566 -0.4919 -1.4887  0.9006
   47CHL1  H26B 5953   2.187   5.440   8.509 -0.7989 -0.8078 -0.3400
   47CHL1  H26C 5954   2.242   5.270   8.474  1.5224 -0.7897 -1.2753
   47CHL1   C27 5955   2.283   5.198   8.743 -0.3398 -0.4222  0.1972
   47CHL1  H27A 5956   2.253   5.178   8.848 -0.8244  0.0450  0.1455
   47CHL1  H27B 5957   2.290   5.108   8.679 -1.0352  0.0948 -0.6064
   47CHL1  H27C 5958   2.388   5.228   8.765 -0.6134  0.7353 -0.0521
   48CHL1    C3 5959   3.040   6.027  10.070 -0.6970 -0.7490 -0.3138
   48CHL1    H3 5960   3.041   5.918  10.048 -0.0572 -1.0092  0.9298
   48CHL1    O3 5961   3.084   6.030  10.206 -0.4782 -0.1568  1.0577
   48CHL1   H3' 5962   3.092   6.121  10.234 -1.0610  0.5371 -0.9170
   48CHL1    C4 5963   3.141   6.097   9.981 -0.2786 -0.8061 -0.1653
   48CHL1   H4A 5964   3.148   6.198  10.027  0.8702  0.0296 -2.0925
   48CHL1   H4B 5965   3.240   6.049   9.994  0.2598  0.4428  0.4284
   48CHL1    C5 5966   3.105   6.096   9.838  0.4863 -0.1046  0.1726
   48CHL1    C6 5967   3.173   6.041   9.735 -0.2470 -0.6034 -0.1945
   48CHL1    H6 5968   3.275   6.003   9.751  0.4265  1.5710  0.8681
   48CHL1    C7 5969   3.134   6.042   9.591 -0.6151 -0.5926 -0.0732
   48CHL1   H7A 5970   3.218   6.062   9.521  0.2144 -2.0961  0.4646
   48CHL1   H7B 5971   3.103   5.937   9.570 -0.1160 -0.8240  0.3570
   48CHL1    C8 5972   3.020   6.149   9.561  0.6166  0.7955  0.4433
   48CHL1    H8 5973   3.073   6.247   9.550  1.4001  0.1648 -1.6079
   48CHL1   C14 5974   2.955   6.118   9.422  0.0299 -1.0373  0.0202
   48CHL1   H14 5975   2.899   6.024   9.439 -0.5981 -1.0356 -1.8735
   48CHL1   C15 5976   3.047   6.093   9.301  0.4446 -0.3891 -0.3320
   48CHL1  H15A 5977   3.133   6.163   9.306  2.0185 -2.4134  2.0685
   48CHL1  H15B 5978   3.092   5.991   9.300 -0.7331 -0.9741  2.2689
   48CHL1   C16 5979   2.970   6.126   9.178  0.0707 -0.5116 -0.6456
   48CHL1  H16A 5980   3.012   6.207   9.114 -1.5498  0.4289 -0.5220
   48CHL1  H16B 5981   2.963   6.038   9.111 -0.8062 -1.0851  0.2004
   48CHL1   C17 5982   2.826   6.163   9.232 -0.6818  0.0892  0.3994
   48CHL1   H17 5983   2.764   6.071   9.233 -1.4498  0.6102  1.7215
   48CHL1   C13 5984   2.859   6.218   9.373 -0.7858  0.9644 -0.1140
   48CHL1   C18 5985   2.928   6.351   9.362  0.2403  0.5000 -0.4711
   48CHL1  H18A 5986   3.010   6.342   9.287  2.2082 -2.0958  1.8851
   48CHL1  H18B 5987   2.859   6.427   9.319 -2.5769 -1.9481 -0.4036
   48CHL1  H18C 5988   2.975   6.383   9.458  1.2266  3.0789 -1.7568
   48CHL1   C12 5989   2.734   6.217   9.477 -0.3360 -0.2240 -0.0840
   48CHL1  H12A 5990   2.670   6.306   9.460  1.5641  1.3069  0.6090
   48CHL1  H12B 5991   2.681   6.121   9.454 -0.5426 -0.7075  2.3041
   48CHL1   C11 5992   2.784   6.223   9.628 -0.4061 -0.0153 -0.1594
   48CHL1  H11A 5993   2.793   6.333   9.638  0.0676 -0.2548  2.1340
   48CHL1  H11B 5994   2.693   6.202   9.689 -3.4833  2.6085 -3.5625
   48CHL1    C9 5995   2.905   6.143   9.668  0.2727 -0.1742  0.0187
   48CHL1    H9 5996   2.880   6.035   9.674 -0.3852 -0.1615 -2.2198
   48CHL1   C10 5997   2.963   6.167   9.814  1.0287 -0.0712  0.0468
   48CHL1   C19 5998   2.983   6.323   9.827  1.0001 -0.5571 -0.1039
   48CHL1  H19A 5999   3.046   6.369   9.748 -1.1162 -0.2933 -1.6670
   48CHL1  H19B 6000   2.887   6.379   9.827  0.8569 -0.7986 -1.0045
   48CHL1  H19C 6001   3.040   6.346   9.920 -0.5964  1.6472  0.3877
   48CHL1    C1 6002   2.860   6.115   9.917 -0.3514 -0.9821 -0.8744
   48CHL1   H1A 6003   2.775   6.187   9.915 -0.4888 -0.9887  1.7600
   48CHL1   H1B 6004   2.829   6.014   9.883 -0.6569 -1.4101  0.6244
   48CHL1    C2 6005   2.905   6.097  10.063  0.2424 -0.2288 -0.5206
   48CHL1   H2A 6006   2.828   6.043  10.124  2.2740  0.3428  2.6870
   48CHL1   H2B 6007   2.909   6.198  10.108 -2.3545  0.5687 -1.9384
   48CHL1   C20 6008   2.755   6.257   9.133  0.3895 -0.1929  0.4597
   48CHL1   H20 6009   2.813   6.352   9.124  1.8202 -1.0509  0.3251
   48CHL1   C21 6010   2.612   6.287   9.183  0.3633 -0.7771 -0.7128
   48CHL1  H21A 6011   2.610   6.376   9.250 -1.2265  0.0935 -1.8603
   48CHL1  H21B 6012   2.558   6.202   9.231 -2.7732  1.7369  0.3792
   48CHL1  H21C 6013   2.546   6.320   9.100  0.0310  0.4581  0.0341
   48CHL1   C22 6014   2.760   6.194   8.995  0.4852  0.0473 -0.2220
   48CHL1  H22A 6015   2.859   6.149   8.974  0.1067  0.1616 -2.4196
   48CHL1  H22B 6016   2.683   6.114   9.002  1.0647 -0.3587  1.7318
   48CHL1   C23 6017   2.732   6.296   8.875 -0.0224  1.1496 -0.0372
   48CHL1  H23A 6018   2.639   6.351   8.902 -0.7346 -0.0723  0.0823
   48CHL1  H23B 6019   2.819   6.363   8.859  0.4866  1.0229  2.0214
   48CHL1   C24 6020   2.698   6.223   8.741  0.0355  0.2486  0.0273
   48CHL1  H24A 6021   2.780   6.150   8.724  0.0667  0.5359 -1.0750
   48CHL1  H24B 6022   2.614   6.155   8.768  1.1527 -1.0773  0.2032
   48CHL1   C25 6023   2.650   6.309   8.626 -0.1208 -0.0969  0.2410
   48CHL1   H25 6024   2.586   6.390   8.667  2.3566  1.8397  0.4361
   48CHL1   C26 6025   2.769   6.389   8.562 -0.2062  0.2781 -0.2543
   48CHL1  H26A 6026   2.741   6.453   8.476 -0.6188 -0.9320 -1.0250
   48CHL1  H26B 6027   2.822   6.443   8.643  3.2769 -1.2867 -1.3888
   48CHL1  H26C 6028   2.842   6.312   8.528  1.4192  2.3771 -1.6714
   48CHL1   C27 6029   2.567   6.229   8.523 -0.0826  0.2210  1.4307
   48CHL1  H27A 6030   2.621   6.184   8.437 -1.8965  2.1444 -0.8021
   48CHL1  H27B 6031   2.508   6.148   8.572  0.9870 -0.3106  1.8492
   48CHL1  H27C 6032   2.498   6.300   8.473 -1.2948 -0.9101  1.4564
   49CHL1    C3 6033   0.724   1.216  10.040  0.8491  0.6610  0.4715
   49CHL1    H3 6034   0.642   1.287  10.019 -0.1104 -0.7801 -0.7837
   49CHL1    O3 6035   0.767   1.221  10.174  0.0248 -0.1504 -0.3780
   49CHL1   H3' 6036   0.818   1.144  10.199 -1.0301 -0.2327  1.7396
   49CHL1    C4 6037   0.693   1.073   9.990 -0.3525 -0.2211  0.2683
   49CHL1   H4A 6038   0.783   1.013  10.011 -0.6935 -1.4214 -1.5800
   49CHL1   H4B 6039   0.613   1.042  10.061 -0.3216  2.1761  1.4394
   49CHL1    C5 6040   0.656   1.071   9.843  0.3960 -0.5787 -0.1898
   49CHL1    C6 6041   0.538   1.029   9.793 -0.6833 -1.8589  0.4011
   49CHL1    H6 6042   0.457   1.001   9.862 -1.5080  0.0347  0.2283
   49CHL1    C7 6043   0.501   1.024   9.645  0.2018  0.0053  0.1910
   49CHL1   H7A 6044   0.468   0.922   9.617  1.1459 -0.0421 -0.7928
   49CHL1   H7B 6045   0.417   1.093   9.622 -0.8223 -1.1258  0.5032
   49CHL1    C8 6046   0.623   1.053   9.550  0.4772 -0.1372 -0.1503
   49CHL1    H8 6047   0.689   0.965   9.541  1.0367  0.2769 -0.0960
   49CHL1   C14 6048   0.575   1.087   9.409 -0.1750  0.1224  0.1094
   49CHL1   H14 6049   0.517   1.180   9.424  1.1176  1.0604 -0.5844
   49CHL1   C15 6050   0.478   0.987   9.342 -0.2241  0.2894  0.3995
   49CHL1  H15A 6051   0.511   0.882   9.359  0.8801  0.7774  1.3634
   49CHL1  H15B 6052   0.374   1.001   9.376 -0.9264  1.4486 -2.1108
   49CHL1   C16 6053   0.497   1.031   9.194 -0.0315 -0.0807  0.6451
   49CHL1  H16A 6054   0.507   0.938   9.135 -1.2827 -0.2045  0.6236
   49CHL1  H16B 6055   0.406   1.073   9.146  0.8589  1.0191 -0.1296
   49CHL1   C17 6056   0.615   1.132   9.174  0.2081  0.1811 -0.5866
   49CHL1   H17 6057   0.570   1.233   9.169 -1.6603 -0.5266  1.1903
   49CHL1   C13 6058   0.696   1.118   9.304  0.4180 -0.0545 -0.1496
   49CHL1   C18 6059   0.781   0.989   9.295 -0.1331  0.7528 -0.1893
   49CHL1  H18A 6060   0.742   0.905   9.234 -0.3765  0.0514  0.9219
   49CHL1  H18B 6061   0.879   1.020   9.252  2.4679 -2.1150  3.3618
   49CHL1  H18C 6062   0.812   0.948   9.393  0.8694 -0.8868 -1.1602
   49CHL1   C12 6063   0.773   1.243   9.364  0.1828 -0.0073  0.5751
   49CHL1  H12A 6064   0.854   1.285   9.301 -0.8073  1.3297  0.1743
   49CHL1  H12B 6065   0.693   1.319   9.370 -0.7941 -1.1113  1.9483
   49CHL1   C11 6066   0.824   1.218   9.505  0.3548  0.9750  0.2606
   49CHL1  H11A 6067   0.904   1.141   9.495 -0.7663 -0.3996  1.6059
   49CHL1  H11B 6068   0.861   1.315   9.546  1.4313  0.1632  1.2779
   49CHL1    C9 6069   0.712   1.163   9.608 -0.0037  0.6326 -0.3236
   49CHL1    H9 6070   0.649   1.253   9.623  0.5202  0.9091  0.2623
   49CHL1   C10 6071   0.769   1.135   9.749 -0.1896 -0.0102  0.2589
   49CHL1   C19 6072   0.877   1.017   9.744 -0.2399  0.1701 -0.1398
   49CHL1  H19A 6073   0.919   0.994   9.845  0.5368 -0.2532 -0.5577
   49CHL1  H19B 6074   0.827   0.922   9.714 -1.0207  0.8760 -1.0867
   49CHL1  H19C 6075   0.958   1.032   9.670  1.8232 -4.2150  1.0420
   49CHL1    C1 6076   0.830   1.265   9.807  0.0379  0.8280 -0.1286
   49CHL1   H1A 6077   0.932   1.279   9.767  1.3098  0.1297  2.6980
   49CHL1   H1B 6078   0.768   1.356   9.790 -1.1277  0.1934  0.6420
   49CHL1    C2 6079   0.849   1.262   9.961 -0.1995  0.4633  0.1923
   49CHL1   H2A 6080   0.885   1.362   9.995 -0.6125  1.0433 -1.0305
   49CHL1   H2B 6081   0.940   1.202   9.983  0.0011  1.1549  1.3209
   49CHL1   C20 6082   0.683   1.114   9.038  0.0528 -0.3267 -0.0199
   49CHL1   H20 6083   0.732   1.014   9.039 -1.4598 -1.0761  1.0280
   49CHL1   C21 6084   0.801   1.219   9.031 -0.3400  0.4031  0.2914
   49CHL1  H21A 6085   0.890   1.185   9.088 -0.6848 -2.3737 -0.7881
   49CHL1  H21B 6086   0.761   1.315   9.071  1.2009  1.2440 -0.1123
   49CHL1  H21C 6087   0.833   1.237   8.926 -0.5605 -3.3668 -0.4700
   49CHL1   C22 6088   0.595   1.125   8.908 -0.0664  0.6349  0.4583
   49CHL1  H22A 6089   0.657   1.109   8.818  0.2843 -0.8240  0.9478
   49CHL1  H22B 6090   0.521   1.042   8.915  0.6306  0.0524  1.0686
   49CHL1   C23 6091   0.512   1.257   8.884  0.2293 -0.0491  0.6869
   49CHL1  H23A 6092   0.439   1.264   8.967 -0.8867  0.3238 -0.3130
   49CHL1  H23B 6093   0.570   1.351   8.897  2.1324 -0.4439 -3.7741
   49CHL1   C24 6094   0.446   1.261   8.749 -0.4111  0.1416  0.3251
   49CHL1  H24A 6095   0.421   1.367   8.729 -0.6597  0.1912  0.8796
   49CHL1  H24B 6096   0.508   1.210   8.673 -0.6116 -1.4903  1.2452
   49CHL1   C25 6097   0.298   1.214   8.759 -0.0840 -0.6365  0.1260
   49CHL1   H25 6098   0.284   1.123   8.822  0.6841 -0.5191  0.4666
   49CHL1   C26 6099   0.191   1.309   8.836 -0.9760 -0.2097 -0.4135
   49CHL1  H26A 6100   0.086   1.276   8.822 -1.2658 -0.3723  1.8362
   49CHL1  H26B 6101   0.214   1.307   8.945 -0.8423 -0.7975 -0.4547
   49CHL1  H26C 6102   0.203   1.414   8.800  0.6002 -0.4600 -0.6660
   49CHL1   C27 6103   0.241   1.191   8.616 -0.3978  0.2789  0.5985
   49CHL1  H27A 6104   0.138   1.151   8.626 -1.5848  3.1949  0.6613
   49CHL1  H27B 6105   0.226   1.284   8.556 -1.0905  0.2096  0.6551
   49CHL1  H27C 6106   0.303   1.121   8.556 -0.3563 -0.1215  1.1162
   50CHL1    C3 6107   4.681   3.556  10.295  0.0254 -0.3993  0.4401
   50CHL1    H3 6108   4.576   3.521  10.287  0.2300 -0.7616 -0.7827
   50CHL1    O3 6109   4.697   3.617  10.420  0.0907  0.3921 -0.2857
   50CHL1   H3' 6110   4.620   3.674  10.424  0.4934  0.8673  1.0367
   50CHL1    C4 6111   4.769   3.427  10.287  0.4268  0.4299 -0.1160
   50CHL1   H4A 6112   4.873   3.449  10.320  0.3071 -0.1648  0.6786
   50CHL1   H4B 6113   4.719   3.349  10.348 -0.8159  1.8306  0.6898
   50CHL1    C5 6114   4.772   3.359  10.145  0.3437 -0.1458 -0.4980
   50CHL1    C6 6115   4.745   3.235  10.118  0.7585  0.7923 -0.0354
   50CHL1    H6 6116   4.706   3.178  10.204 -2.0964  0.0472 -1.7302
   50CHL1    C7 6117   4.749   3.171   9.981 -0.6058  0.0325 -0.4034
   50CHL1   H7A 6118   4.794   3.070   9.981 -1.7668 -0.5112 -2.1323
   50CHL1   H7B 6119   4.643   3.156   9.950 -0.0646  0.1313 -2.3353
   50CHL1    C8 6120   4.825   3.256   9.880 -0.5184 -0.3834  0.1644
   50CHL1    H8 6121   4.932   3.233   9.901 -0.0090  0.8987 -1.0007
   50CHL1   C14 6122   4.802   3.205   9.737 -0.3732  0.0317  0.2453
   50CHL1   H14 6123   4.696   3.230   9.716  0.7012  2.3151 -2.8642
   50CHL1   C15 6124   4.815   3.054   9.705  0.4025 -0.3021 -0.7062
   50CHL1  H15A 6125   4.894   3.021   9.776 -0.7323 -3.3665 -0.7976
   50CHL1  H15B 6126   4.719   3.001   9.725 -0.1949  0.8263 -0.5768
   50CHL1   C16 6127   4.853   3.043   9.554  0.0173 -0.7935 -1.4791
   50CHL1  H16A 6128   4.958   3.010   9.537  1.6661  1.8797  2.7641
   50CHL1  H16B 6129   4.786   2.973   9.501  0.8298 -1.7880 -1.2287
   50CHL1   C17 6130   4.849   3.187   9.498 -0.1639 -0.1916  0.8346
   50CHL1   H17 6131   4.739   3.199   9.493 -0.2482 -1.5988 -2.1057
   50CHL1   C13 6132   4.884   3.276   9.625  0.2302  0.0597  0.6829
   50CHL1   C18 6133   5.035   3.266   9.650 -0.0707 -0.1932 -0.5448
   50CHL1  H18A 6134   5.073   3.294   9.750 -1.6132  0.7495 -0.2065
   50CHL1  H18B 6135   5.066   3.161   9.637  0.2046 -0.4504  1.9433
   50CHL1  H18C 6136   5.083   3.341   9.584 -1.7744 -0.3591 -2.0062
   50CHL1   C12 6137   4.839   3.420   9.627 -0.0134 -0.0455  0.2366
   50CHL1  H12A 6138   4.903   3.474   9.554  0.0749 -0.1104  0.2660
   50CHL1  H12B 6139   4.735   3.412   9.587  0.0005 -0.4277  0.2756
   50CHL1   C11 6140   4.861   3.479   9.769  0.5944  0.0174 -0.5375
   50CHL1  H11A 6141   4.968   3.493   9.792 -0.2059  3.1026  1.5862
   50CHL1  H11B 6142   4.831   3.585   9.755 -0.7503 -0.1538  0.8971
   50CHL1    C9 6143   4.793   3.401   9.885  0.9120 -0.4373 -0.5819
   50CHL1    H9 6144   4.684   3.413   9.868  0.7404  0.9790  1.4041
   50CHL1   C10 6145   4.802   3.459  10.032  0.2795  0.3967  0.0040
   50CHL1   C19 6146   4.951   3.494  10.040  0.4051 -0.4698 -0.2240
   50CHL1  H19A 6147   5.023   3.410  10.024  0.0379 -1.0688  1.2187
   50CHL1  H19B 6148   4.980   3.584   9.982 -0.4886  1.2481  1.9446
   50CHL1  H19C 6149   4.973   3.521  10.145 -1.6920  2.5132 -0.4990
   50CHL1    C1 6150   4.717   3.586  10.042  0.0574 -0.6506 -0.6084
   50CHL1   H1A 6151   4.744   3.660   9.964 -1.3450 -0.9507 -1.3751
   50CHL1   H1B 6152   4.615   3.548  10.024  0.6701 -2.1006 -1.1081
   50CHL1    C2 6153   4.720   3.651  10.179  0.1308 -0.5291 -0.1369
   50CHL1   H2A 6154   4.658   3.743  10.179 -0.6416 -1.0422 -1.3945
   50CHL1   H2B 6155   4.822   3.692  10.197  0.1374 -0.5521 -0.1232
   50CHL1   C20 6156   4.916   3.227   9.369 -0.4682 -0.2474 -0.1524
   50CHL1   H20 6157   5.019   3.262   9.391 -1.7341  1.5613  3.1727
   50CHL1   C21 6158   4.836   3.340   9.304 -0.0573 -0.0790 -0.3001
   50CHL1  H21A 6159   4.728   3.318   9.291 -0.1128  0.0801 -0.1024
   50CHL1  H21B 6160   4.893   3.368   9.213  0.8324  2.7256  1.0932
   50CHL1  H21C 6161   4.843   3.437   9.357 -1.5023 -0.0467 -0.1398
   50CHL1   C22 6162   4.943   3.113   9.261  0.2659 -0.5277  0.9734
   50CHL1  H22A 6163   4.993   3.165   9.176  2.6461 -1.8551  1.5383
   50CHL1  H22B 6164   5.016   3.039   9.300 -0.5614 -2.2075 -0.5987
   50CHL1   C23 6165   4.825   3.035   9.199  0.7563  0.0914 -0.3470
   50CHL1  H23A 6166   4.856   2.934   9.165  1.6826  0.1552  0.2795
   50CHL1  H23B 6167   4.739   3.023   9.268 -0.0495 -1.6468 -1.6186
   50CHL1   C24 6168   4.778   3.099   9.067 -0.1738  0.3289 -0.0788
   50CHL1  H24A 6169   4.743   3.202   9.091  3.2485  1.2183  1.3109
   50CHL1  H24B 6170   4.854   3.104   8.987  0.2091  2.6166  0.3975
   50CHL1   C25 6171   4.662   3.017   9.002  0.0680  0.0049  0.1363
   50CHL1   H25 6172   4.580   3.000   9.075 -0.2093  0.1800 -0.1326
   50CHL1   C26 6173   4.598   3.099   8.885 -0.3873  0.2737  0.1358
   50CHL1  H26A 6174   4.549   3.190   8.926 -0.7978 -0.7248  1.9206
   50CHL1  H26B 6175   4.670   3.129   8.806 -0.1571  0.6446  0.4821
   50CHL1  H26C 6176   4.516   3.042   8.836  2.8596 -2.0097 -2.8976
   50CHL1   C27 6177   4.699   2.879   8.931  0.1145  0.0255 -0.0525
   50CHL1  H27A 6178   4.771   2.887   8.847  1.0070  1.6254  0.8541
   50CHL1  H27B 6179   4.741   2.811   9.008 -1.9114  0.1023  1.1447
   50CHL1  H27C 6180   4.605   2.838   8.889 -1.7915  3.5047  0.6689
   51CHL1    C3 6181   5.415   5.941  10.157 -0.0067 -0.4188  0.2883
   51CHL1    H3 6182   5.518   5.976  10.137 -0.6772  1.5557  0.1552
   51CHL1    O3 6183   5.390   5.938  10.301 -0.7912 -0.2370  0.7300
   51CHL1   H3' 6184   5.447   6.009  10.331  0.6148 -1.2127  0.4354
   51CHL1    C4 6185   5.306   6.033  10.093  0.2040 -0.2123  0.5267
   51CHL1   H4A 6186   5.204   6.014  10.133  0.3539 -0.2173  0.9011
   51CHL1   H4B 6187   5.343   6.130  10.133  1.7654  0.1158 -1.6219
   51CHL1    C5 6188   5.303   6.037   9.941 -0.1918  0.5277 -0.2861
   51CHL1    C6 6189   5.320   6.144   9.868 -0.3562 -0.0571  0.7393
   51CHL1    H6 6190   5.334   6.241   9.918  0.2371 -0.4094  1.2675
   51CHL1    C7 6191   5.311   6.145   9.720  0.3612 -0.3169  0.6734
   51CHL1   H7A 6192   5.247   6.233   9.695 -0.4473 -1.1704 -0.2783
   51CHL1   H7B 6193   5.413   6.175   9.686 -0.1990  1.9876  0.8879
   51CHL1    C8 6194   5.254   6.017   9.659  0.6713 -0.5853  0.2302
   51CHL1    H8 6195   5.145   6.022   9.679  0.7352  1.0412  0.1984
   51CHL1   C14 6196   5.282   6.010   9.512 -0.3634 -0.1694 -0.6179
   51CHL1   H14 6197   5.393   6.011   9.508 -0.3516 -0.8225 -0.6133
   51CHL1   C15 6198   5.234   6.131   9.428  0.3998 -0.2502  0.5144
   51CHL1  H15A 6199   5.129   6.140   9.463  0.7927  0.6712  1.4968
   51CHL1  H15B 6200   5.296   6.222   9.443  1.3187 -0.8288  0.3076
   51CHL1   C16 6201   5.228   6.073   9.279  0.2990  0.1194 -0.7935
   51CHL1  H16A 6202   5.131   6.075   9.226 -0.7150 -1.4576  0.9468
   51CHL1  H16B 6203   5.301   6.119   9.209  1.8329 -1.5275 -0.3206
   51CHL1   C17 6204   5.274   5.925   9.298 -0.0947  0.3824  0.0691
   51CHL1   H17 6205   5.384   5.935   9.286 -0.5716  2.8825 -2.6165
   51CHL1   C13 6206   5.235   5.883   9.444 -0.4163 -0.3850  0.6815
   51CHL1   C18 6207   5.091   5.850   9.458 -0.2512 -0.2465  0.5029
   51CHL1  H18A 6208   5.048   5.843   9.561 -0.7993  3.4186  0.6184
   51CHL1  H18B 6209   5.021   5.919   9.406  0.2078  0.8084  1.2572
   51CHL1  H18C 6210   5.063   5.752   9.415  0.3373 -1.6396  3.1887
   51CHL1   C12 6211   5.316   5.773   9.506  0.1705  0.3716  0.2022
   51CHL1  H12A 6212   5.300   5.678   9.450 -0.3969  0.8174 -0.4043
   51CHL1  H12B 6213   5.423   5.801   9.493  0.2461 -0.5509 -1.4053
   51CHL1   C11 6214   5.298   5.751   9.652  1.0546  0.3036 -0.0600
   51CHL1  H11A 6215   5.202   5.703   9.679  1.4329 -0.4941 -0.1433
   51CHL1  H11B 6216   5.381   5.680   9.673  1.3293  0.9907  1.2099
   51CHL1    C9 6217   5.319   5.890   9.730  0.7643  0.6251  0.2997
   51CHL1    H9 6218   5.428   5.911   9.721  0.8899 -0.5350 -1.1750
   51CHL1   C10 6219   5.293   5.884   9.884 -0.0814 -0.5114 -0.4806
   51CHL1   C19 6220   5.149   5.834   9.907 -0.5214 -0.3011 -0.6088
   51CHL1  H19A 6221   5.126   5.733   9.868 -2.2033 -0.7624  1.5367
   51CHL1  H19B 6222   5.114   5.838  10.012  0.9731  1.9872 -0.1655
   51CHL1  H19C 6223   5.076   5.892   9.846 -0.9095  0.5265  0.6247
   51CHL1    C1 6224   5.407   5.795   9.946 -0.3391 -0.4623  0.9391
   51CHL1   H1A 6225   5.399   5.688   9.916  1.9155 -0.6177  0.8368
   51CHL1   H1B 6226   5.507   5.836   9.920 -0.2248 -1.2730  0.0244
   51CHL1    C2 6227   5.399   5.798  10.103 -0.2984 -0.9846  0.5934
   51CHL1   H2A 6228   5.487   5.747  10.149  0.7658  0.2494 -0.0163
   51CHL1   H2B 6229   5.303   5.755  10.137 -1.8698  0.9197 -1.3395
   51CHL1   C20 6230   5.232   5.828   9.188  0.6875  0.2620  0.3549
   51CHL1   H20 6231   5.128   5.793   9.207  1.4342 -0.8660  2.5371
   51CHL1   C21 6232   5.325   5.701   9.187  0.3319  0.3700  0.4481
   51CHL1  H21A 6233   5.321   5.653   9.087  0.9206  1.5450 -0.1556
   51CHL1  H21B 6234   5.279   5.633   9.262  1.3208  0.3329  1.0202
   51CHL1  H21C 6235   5.427   5.734   9.214  0.4117 -0.1891  0.8255
   51CHL1   C22 6236   5.233   5.904   9.051 -0.3212  0.4225  0.2971
   51CHL1  H22A 6237   5.162   5.989   9.058 -2.3404 -1.2915  1.2384
   51CHL1  H22B 6238   5.332   5.947   9.023 -0.3146  1.9681  2.6158
   51CHL1   C23 6239   5.177   5.822   8.939 -0.0004 -0.8964  0.1791
   51CHL1  H23A 6240   5.233   5.730   8.912  0.7708 -0.4696  0.3186
   51CHL1  H23B 6241   5.092   5.776   8.994 -0.9965  1.5147  0.7258
   51CHL1   C24 6242   5.138   5.893   8.809 -0.7369  0.2974 -0.0535
   51CHL1  H24A 6243   5.097   5.994   8.828 -1.1774 -0.1661  1.5339
   51CHL1  H24B 6244   5.234   5.919   8.759  1.4383 -1.7698  2.8317
   51CHL1   C25 6245   5.041   5.820   8.717  0.5548 -0.3249  0.0276
   51CHL1   H25 6246   5.073   5.714   8.706  0.2543 -0.6434  2.0736
   51CHL1   C26 6247   4.895   5.818   8.783 -0.7485 -0.6528 -0.2728
   51CHL1  H26A 6248   4.902   5.767   8.881  3.3105 -1.0705 -0.6893
   51CHL1  H26B 6249   4.868   5.925   8.793 -0.2258 -0.3654 -1.7270
   51CHL1  H26C 6250   4.819   5.765   8.721 -2.6354  1.4922  0.1480
   51CHL1   C27 6251   5.036   5.877   8.576 -0.1134 -0.9180 -0.2729
   51CHL1  H27A 6252   4.972   5.813   8.512 -1.1464 -1.5900  1.4055
   51CHL1  H27B 6253   4.996   5.980   8.582 -0.2681 -0.8218 -2.4974
   51CHL1  H27C 6254   5.139   5.883   8.534  0.3198 -0.5104  0.8324
   52CHL1    C3 6255   2.304   4.808  10.093 -0.5108 -0.1352  0.0251
   52CHL1    H3 6256   2.363   4.900  10.073  2.4400 -1.4066  2.4633
   52CHL1    O3 6257   2.264   4.794  10.225  0.5524 -0.5604 -0.4308
   52CHL1   H3' 6258   2.188   4.852  10.229 -0.7257 -2.1772 -0.7045
   52CHL1    C4 6259   2.175   4.817  10.018 -0.1744  0.5055  0.1152
   52CHL1   H4A 6260   2.108   4.728  10.024  0.7977 -0.2816 -0.4337
   52CHL1   H4B 6261   2.116   4.901  10.060 -0.0425  0.2660  0.7855
   52CHL1    C5 6262   2.208   4.828   9.864 -0.1338 -0.4754 -0.0817
   52CHL1    C6 6263   2.174   4.946   9.799 -0.2026 -0.1803 -0.0063
   52CHL1    H6 6264   2.114   5.016   9.861 -1.0310 -0.9830  0.1132
   52CHL1    C7 6265   2.218   4.969   9.653  0.0697  0.5373  0.1394
   52CHL1   H7A 6266   2.137   5.014   9.591 -0.7147 -0.5452  0.3543
   52CHL1   H7B 6267   2.308   5.032   9.663  0.0961  0.7536 -1.4403
   52CHL1    C8 6268   2.240   4.829   9.583 -0.4650 -0.7185 -0.4035
   52CHL1    H8 6269   2.149   4.770   9.559  0.3258 -1.5891 -1.2671
   52CHL1   C14 6270   2.307   4.856   9.450  0.4635  0.2481 -0.1602
   52CHL1   H14 6271   2.403   4.908   9.469 -0.3229  1.7550 -0.2756
   52CHL1   C15 6272   2.223   4.928   9.351 -0.8643  0.4212 -0.4940
   52CHL1  H15A 6273   2.118   4.891   9.355 -0.9324  0.7379  0.8195
   52CHL1  H15B 6274   2.219   5.036   9.378  1.9893  0.0390  1.6446
   52CHL1   C16 6275   2.287   4.907   9.216 -0.4752 -0.4017 -0.7284
   52CHL1  H16A 6276   2.213   4.878   9.139 -2.5344  3.1106 -0.1852
   52CHL1  H16B 6277   2.338   4.997   9.176 -0.1702 -1.0927 -1.8965
   52CHL1   C17 6278   2.397   4.795   9.233 -0.7916 -0.3253  0.2349
   52CHL1   H17 6279   2.491   4.849   9.258  0.2227 -1.8460 -0.1784
   52CHL1   C13 6280   2.353   4.730   9.375  0.0312  0.3678 -0.4664
   52CHL1   C18 6281   2.244   4.626   9.344 -0.8701 -0.4766  0.5037
   52CHL1  H18A 6282   2.287   4.540   9.289 -0.1634  0.3236 -0.2030
   52CHL1  H18B 6283   2.196   4.590   9.438  0.7739 -1.9929  0.7766
   52CHL1  H18C 6284   2.158   4.658   9.282  1.7228  0.8004 -2.5516
   52CHL1   C12 6285   2.465   4.666   9.458  0.3236  0.3318 -0.1343
   52CHL1  H12A 6286   2.487   4.574   9.399 -0.2551  0.1396 -0.0488
   52CHL1  H12B 6287   2.557   4.727   9.445  0.6992 -0.3249 -0.6658
   52CHL1   C11 6288   2.418   4.641   9.604  0.6053 -0.4443  0.2131
   52CHL1  H11A 6289   2.355   4.549   9.599  1.2645 -0.9828  1.4559
   52CHL1  H11B 6290   2.514   4.627   9.659 -1.2570  0.2040  3.8111
   52CHL1    C9 6291   2.346   4.755   9.675 -0.0874  0.2631  0.9075
   52CHL1    H9 6292   2.429   4.827   9.691  0.8833 -0.7929  0.6974
   52CHL1   C10 6293   2.287   4.720   9.807 -0.5166  0.4835 -0.1864
   52CHL1   C19 6294   2.188   4.591   9.802 -0.1172 -0.6379  0.3654
   52CHL1  H19A 6295   2.249   4.507   9.765  3.5548  1.2083  1.9549
   52CHL1  H19B 6296   2.161   4.568   9.908 -1.9670  0.7156  0.2296
   52CHL1  H19C 6297   2.096   4.609   9.742 -1.3963 -1.0491  2.1436
   52CHL1    C1 6298   2.418   4.704   9.900  0.7138  0.8764  0.0074
   52CHL1   H1A 6299   2.469   4.611   9.866  0.4741  0.6298  0.3197
   52CHL1   H1B 6300   2.477   4.796   9.883 -0.4293  1.5675 -0.2507
   52CHL1    C2 6301   2.391   4.687  10.048 -0.6611  0.4388 -0.3646
   52CHL1   H2A 6302   2.486   4.690  10.106 -0.5397 -0.0193 -0.5418
   52CHL1   H2B 6303   2.341   4.589  10.063  0.4618 -0.3976 -1.9853
   52CHL1   C20 6304   2.425   4.702   9.107 -0.2170 -0.8696 -0.1750
   52CHL1   H20 6305   2.341   4.633   9.088 -0.5953 -0.1640 -1.0624
   52CHL1   C21 6306   2.546   4.609   9.134  0.5431  0.3017 -0.4121
   52CHL1  H21A 6307   2.584   4.579   9.033 -0.7799  1.0855 -1.1573
   52CHL1  H21B 6308   2.497   4.524   9.185 -1.4465  1.6438 -0.0410
   52CHL1  H21C 6309   2.634   4.658   9.182  0.8151 -1.3224  0.7582
   52CHL1   C22 6310   2.447   4.790   8.976 -0.0402  0.3086 -0.5576
   52CHL1  H22A 6311   2.363   4.854   8.942  0.4291  0.8776 -0.6365
   52CHL1  H22B 6312   2.533   4.856   8.999  0.3463 -0.0992 -0.8101
   52CHL1   C23 6313   2.471   4.705   8.851  0.1427  0.8323 -0.2328
   52CHL1  H23A 6314   2.562   4.641   8.850 -1.4229 -1.4551 -1.5691
   52CHL1  H23B 6315   2.384   4.637   8.838 -0.2507  1.2082  0.4318
   52CHL1   C24 6316   2.479   4.800   8.730  1.4101  0.4956 -0.3614
   52CHL1  H24A 6317   2.373   4.825   8.709  0.3273 -2.2444  1.6535
   52CHL1  H24B 6318   2.555   4.878   8.754  0.4624  1.5778 -0.8394
   52CHL1   C25 6319   2.518   4.730   8.600 -1.0261  0.0730  0.9406
   52CHL1   H25 6320   2.602   4.663   8.628  0.0822  0.5908 -1.0144
   52CHL1   C26 6321   2.407   4.656   8.523  0.0776 -0.4219 -0.3157
   52CHL1  H26A 6322   2.351   4.734   8.468  0.1897 -1.1904 -1.5413
   52CHL1  H26B 6323   2.446   4.579   8.453 -0.9002 -1.2441  0.0362
   52CHL1  H26C 6324   2.334   4.614   8.596  0.2717  0.5345  0.4397
   52CHL1   C27 6325   2.591   4.825   8.498  0.3072  0.4190  0.2916
   52CHL1  H27A 6326   2.678   4.867   8.553 -0.8673 -0.6185  3.0546
   52CHL1  H27B 6327   2.630   4.754   8.423 -2.0173 -1.9494  1.2625
   52CHL1  H27C 6328   2.525   4.895   8.442 -1.9399 -0.4123  1.8321
   53CHL1    C3 6329   3.174   4.042  10.019 -0.1084 -0.1489  1.1265
   53CHL1    H3 6330   3.244   3.959   9.997 -1.2853 -0.3826 -1.9733
   53CHL1    O3 6331   3.120   4.028  10.147 -0.2555  0.3496 -0.1772
   53CHL1   H3' 6332   3.188   3.993  10.204 -1.5271  0.8603  1.6966
   53CHL1    C4 6333   3.239   4.179   9.998  0.4500  0.0555 -0.1548
   53CHL1   H4A 6334   3.159   4.248  10.031  0.7789  1.1048 -1.4768
   53CHL1   H4B 6335   3.324   4.177  10.069 -1.6044  2.0978  2.4773
   53CHL1    C5 6336   3.292   4.191   9.856 -0.4138 -0.4583  1.1106
   53CHL1    C6 6337   3.421   4.223   9.841 -0.5315  0.4526  0.7908
   53CHL1    H6 6338   3.478   4.249   9.931 -1.4979  2.6604  0.7919
   53CHL1    C7 6339   3.490   4.240   9.711  0.0284  0.0432  0.4671
   53CHL1   H7A 6340   3.541   4.337   9.694 -1.3518  0.5930 -0.6279
   53CHL1   H7B 6341   3.569   4.162   9.701  1.4451  1.7636 -2.3271
   53CHL1    C8 6342   3.381   4.227   9.596 -0.3395 -0.6674 -0.6740
   53CHL1    H8 6343   3.321   4.317   9.570 -0.6671  0.2854  3.1912
   53CHL1   C14 6344   3.463   4.192   9.472  0.1137  0.7892  0.1375
   53CHL1   H14 6345   3.491   4.085   9.486  1.5983  0.7400 -2.7061
   53CHL1   C15 6346   3.592   4.268   9.440 -0.0986  0.2165  0.8434
   53CHL1  H15A 6347   3.570   4.376   9.454  1.6225  0.7306 -0.2975
   53CHL1  H15B 6348   3.670   4.239   9.513 -1.7756 -2.7195  1.5934
   53CHL1   C16 6349   3.625   4.219   9.296  0.5826  0.1970 -0.0482
   53CHL1  H16A 6350   3.655   4.307   9.234 -1.9505  0.8161 -0.4474
   53CHL1  H16B 6351   3.708   4.145   9.303  0.0462 -0.2658  1.6215
   53CHL1   C17 6352   3.496   4.152   9.246  0.4290  0.4765  0.4896
   53CHL1   H17 6353   3.534   4.048   9.251  0.9127  0.7135  1.6823
   53CHL1   C13 6354   3.381   4.180   9.343 -0.3458  0.8440 -0.0226
   53CHL1   C18 6355   3.326   4.319   9.308 -0.2651  0.0186  0.2517
   53CHL1  H18A 6356   3.406   4.396   9.318 -0.1135 -0.0649 -0.3005
   53CHL1  H18B 6357   3.292   4.330   9.202  0.4059  2.9699  0.2716
   53CHL1  H18C 6358   3.242   4.353   9.373  0.3494  0.8517  0.6122
   53CHL1   C12 6359   3.283   4.062   9.368 -0.2768  0.3219  0.0969
   53CHL1  H12A 6360   3.216   4.051   9.279 -0.3884 -0.8832  0.3220
   53CHL1  H12B 6361   3.344   3.971   9.385  1.3570  1.2708 -0.5874
   53CHL1   C11 6362   3.196   4.083   9.491 -0.3587 -0.3444 -0.3433
   53CHL1  H11A 6363   3.121   4.161   9.464  2.2850  2.5580  0.3174
   53CHL1  H11B 6364   3.137   3.990   9.503 -1.2574  0.3036  0.3763
   53CHL1    C9 6365   3.278   4.119   9.619  0.2997  0.3750 -0.1106
   53CHL1    H9 6366   3.326   4.023   9.648  0.0986  0.5890  0.9716
   53CHL1   C10 6367   3.190   4.155   9.742 -0.6219 -0.9508 -0.3736
   53CHL1   C19 6368   3.101   4.276   9.722 -0.1667  0.0942  0.5261
   53CHL1  H19A 6369   2.994   4.262   9.746 -0.3499  1.2141  0.4010
   53CHL1  H19B 6370   3.141   4.364   9.777  1.9690 -0.6015  0.1535
   53CHL1  H19C 6371   3.099   4.302   9.614 -0.6866 -0.0851  0.4944
   53CHL1    C1 6372   3.103   4.033   9.782  0.2747 -0.1287 -0.1939
   53CHL1   H1A 6373   3.016   4.030   9.713 -0.1693 -2.5185  0.4335
   53CHL1   H1B 6374   3.158   3.937   9.764 -0.1337 -0.5427  0.7685
   53CHL1    C2 6375   3.055   4.031   9.928 -0.4431 -0.6221 -0.0996
   53CHL1   H2A 6376   2.995   3.940   9.950  0.8984 -1.5557 -0.2759
   53CHL1   H2B 6377   2.988   4.119   9.938 -1.5549 -1.5014  0.3318
   53CHL1   C20 6378   3.472   4.175   9.095 -0.6431  0.1519  0.9907
   53CHL1   H20 6379   3.461   4.282   9.068  1.3814 -0.2424 -1.6072
   53CHL1   C21 6380   3.345   4.091   9.052 -0.0664  0.4906  0.1779
   53CHL1  H21A 6381   3.339   4.086   8.941 -0.5153  2.4927  0.0975
   53CHL1  H21B 6382   3.248   4.130   9.091 -0.6618 -0.2269 -0.5573
   53CHL1  H21C 6383   3.353   3.990   9.097  0.4014  0.4410 -0.0127
   53CHL1   C22 6384   3.594   4.121   9.021  0.5176 -0.2557  0.4243
   53CHL1  H22A 6385   3.690   4.129   9.076  1.9027  1.8936 -2.1839
   53CHL1  H22B 6386   3.597   4.011   9.008  0.2985 -0.3407  1.0726
   53CHL1   C23 6387   3.630   4.193   8.883  0.1184  0.3973 -1.3981
   53CHL1  H23A 6388   3.651   4.103   8.821 -0.5918 -1.3996  0.8984
   53CHL1  H23B 6389   3.544   4.255   8.849 -0.4761 -1.0935 -2.6602
   53CHL1   C24 6390   3.744   4.293   8.903 -0.1117 -0.7348 -0.5508
   53CHL1  H24A 6391   3.711   4.370   8.976 -3.6269 -2.2503 -0.4482
   53CHL1  H24B 6392   3.827   4.234   8.948 -1.2547 -3.2396 -1.6037
   53CHL1   C25 6393   3.771   4.369   8.776  0.9275 -0.2429 -0.1258
   53CHL1   H25 6394   3.677   4.403   8.728  0.0306 -0.4697  1.4153
   53CHL1   C26 6395   3.868   4.485   8.811  0.9578  0.5011  0.0332
   53CHL1  H26A 6396   3.840   4.537   8.904  3.0474 -0.3055  1.1598
   53CHL1  H26B 6397   3.969   4.440   8.823  0.4544 -0.5347  0.5060
   53CHL1  H26C 6398   3.868   4.556   8.725  1.2020 -0.1504 -0.5143
   53CHL1   C27 6399   3.839   4.273   8.680 -0.1417 -1.5115 -0.3395
   53CHL1  H27A 6400   3.875   4.330   8.592 -1.3954 -2.7758 -1.7132
   53CHL1  H27B 6401   3.927   4.223   8.727  0.4739  0.7663  0.9835
   53CHL1  H27C 6402   3.760   4.209   8.635 -0.0225 -1.3593 -0.7670
   54CHL1    C3 6403   2.832   5.700   9.983 -0.3216  0.3324 -0.0012
   54CHL1    H3 6404   2.836   5.810   9.970  0.0462  0.2921 -0.2590
   54CHL1    O3 6405   2.837   5.668  10.123 -0.2714 -0.8787  0.0789
   54CHL1   H3' 6406   2.827   5.572  10.128  2.8185 -1.2408  0.5799
   54CHL1    C4 6407   2.707   5.631   9.920 -0.0169 -0.8213 -0.4183
   54CHL1   H4A 6408   2.709   5.524   9.951  0.2717 -0.2893  1.4888
   54CHL1   H4B 6409   2.618   5.672   9.973  0.8539  0.6864 -0.0814
   54CHL1    C5 6410   2.700   5.679   9.773  0.6684 -1.0072 -0.7258
   54CHL1    C6 6411   2.592   5.747   9.732  0.2085 -0.1486  0.3018
   54CHL1    H6 6412   2.507   5.761   9.801 -1.3012  0.1839 -1.5680
   54CHL1    C7 6413   2.570   5.793   9.589  0.1557 -0.2975  0.1075
   54CHL1   H7A 6414   2.464   5.775   9.561  0.2160  1.3828 -1.2599
   54CHL1   H7B 6415   2.605   5.895   9.565 -1.0954  0.3372  0.9492
   54CHL1    C8 6416   2.670   5.718   9.493 -0.4740  0.9388 -1.0396
   54CHL1    H8 6417   2.637   5.612   9.492 -0.4868  0.9306  0.3298
   54CHL1   C14 6418   2.674   5.787   9.359 -0.4157  0.5983  0.2614
   54CHL1   H14 6419   2.711   5.891   9.367  0.7644  0.2488 -0.5672
   54CHL1   C15 6420   2.536   5.806   9.281 -0.1129 -0.9267  0.4615
   54CHL1  H15A 6421   2.478   5.711   9.289 -1.1361 -0.4022 -0.6632
   54CHL1  H15B 6422   2.481   5.897   9.312 -0.9174 -1.2883  0.1299
   54CHL1   C16 6423   2.574   5.840   9.141 -0.3547  0.1399 -0.1194
   54CHL1  H16A 6424   2.511   5.782   9.069  1.0664 -0.8955 -0.5386
   54CHL1  H16B 6425   2.551   5.947   9.121 -1.4436  0.0045  0.3461
   54CHL1   C17 6426   2.724   5.785   9.126 -0.1294  0.3070 -0.0495
   54CHL1   H17 6427   2.779   5.881   9.128  2.2241 -1.0228  1.4380
   54CHL1   C13 6428   2.761   5.709   9.257  0.2570 -0.6872  0.2321
   54CHL1   C18 6429   2.721   5.565   9.233 -0.1398  0.3782 -0.0320
   54CHL1  H18A 6430   2.790   5.518   9.160 -0.9648 -1.2061  0.1792
   54CHL1  H18B 6431   2.720   5.512   9.330  1.6390  0.0952 -0.1491
   54CHL1  H18C 6432   2.619   5.554   9.190 -0.4193  0.6206  0.5693
   54CHL1   C12 6433   2.902   5.716   9.301 -0.2349 -0.1521  0.0144
   54CHL1  H12A 6434   2.970   5.656   9.236  2.1833  0.5739  1.8099
   54CHL1  H12B 6435   2.934   5.822   9.298  1.0242 -0.5592 -1.4095
   54CHL1   C11 6436   2.919   5.654   9.444  0.2416  0.2061 -0.4177
   54CHL1  H11A 6437   2.905   5.544   9.429 -0.7471  0.3390 -0.4675
   54CHL1  H11B 6438   3.023   5.657   9.484  0.7207 -0.0413 -1.6301
   54CHL1    C9 6439   2.815   5.711   9.547  0.1625  0.1062  0.1402
   54CHL1    H9 6440   2.844   5.818   9.556  0.0007  0.2353 -0.8308
   54CHL1   C10 6441   2.823   5.646   9.685 -0.3269  0.3609  0.1205
   54CHL1   C19 6442   2.819   5.493   9.664 -0.0468 -0.0729  0.0103
   54CHL1  H19A 6443   2.905   5.466   9.599 -1.0106 -0.6825 -1.0369
   54CHL1  H19B 6444   2.837   5.436   9.757 -0.3857 -0.8671 -0.4092
   54CHL1  H19C 6445   2.726   5.459   9.613  0.2889 -0.2628 -0.4815
   54CHL1    C1 6446   2.951   5.686   9.764 -0.1516 -0.2899  0.9040
   54CHL1   H1A 6447   3.036   5.631   9.717 -1.2496 -0.1472 -1.3417
   54CHL1   H1B 6448   2.981   5.792   9.756 -6.1470  1.9723  4.9634
   54CHL1    C2 6449   2.954   5.647   9.916 -0.8366 -0.4914 -0.1615
   54CHL1   H2A 6450   3.039   5.702   9.964  2.0871 -1.7937 -3.6180
   54CHL1   H2B 6451   2.972   5.540   9.937  0.4871 -0.1472  0.5679
   54CHL1   C20 6452   2.754   5.734   8.985 -0.3688 -0.0976 -0.2981
   54CHL1   H20 6453   2.712   5.632   8.977 -1.4994  0.2345  1.1667
   54CHL1   C21 6454   2.910   5.741   8.956 -1.0287 -0.3485  0.6447
   54CHL1  H21A 6455   2.977   5.698   9.034  0.4455  1.8087  0.6110
   54CHL1  H21B 6456   2.936   5.848   8.942  0.9477 -0.8899  0.0926
   54CHL1  H21C 6457   2.928   5.682   8.864 -1.9734 -2.0638  1.5335
   54CHL1   C22 6458   2.680   5.805   8.865  0.1228 -0.1138 -0.1445
   54CHL1  H22A 6459   2.575   5.831   8.888 -0.4216 -1.9085 -0.5561
   54CHL1  H22B 6460   2.724   5.905   8.844  0.8382 -0.2992  0.4836
   54CHL1   C23 6461   2.688   5.730   8.734 -0.4269  0.2920  0.5910
   54CHL1  H23A 6462   2.792   5.702   8.710  0.8830  4.1067  1.3680
   54CHL1  H23B 6463   2.627   5.639   8.750 -2.9502  1.7387 -0.4247
   54CHL1   C24 6464   2.639   5.820   8.620  0.5199 -0.1340 -0.9592
   54CHL1  H24A 6465   2.549   5.878   8.651  1.2618  0.6454 -0.2515
   54CHL1  H24B 6466   2.707   5.906   8.600  1.0022 -0.2921 -0.0056
   54CHL1   C25 6467   2.631   5.753   8.484 -0.3239 -0.1874 -0.3622
   54CHL1   H25 6468   2.723   5.695   8.461  0.2811  1.2070 -1.5771
   54CHL1   C26 6469   2.516   5.641   8.469  0.0083 -0.1648 -0.4434
   54CHL1  H26A 6470   2.516   5.572   8.556 -0.9337 -1.1989 -1.2444
   54CHL1  H26B 6471   2.421   5.699   8.471 -0.7647 -1.4335  0.7691
   54CHL1  H26C 6472   2.538   5.588   8.374  1.6727 -1.7583  0.8038
   54CHL1   C27 6473   2.617   5.859   8.372 -0.8068 -0.3688 -0.6769
   54CHL1  H27A 6474   2.641   5.812   8.274 -0.3060 -1.4095 -0.0643
   54CHL1  H27B 6475   2.514   5.902   8.365 -0.3388  0.4209 -3.2975
   54CHL1  H27C 6476   2.690   5.941   8.387 -1.0014 -0.4752  0.9340
   55CHL1    C3 6477   4.150   3.585  10.178  0.3568  0.6095  0.4992
   55CHL1    H3 6478   4.070   3.644  10.128 -1.5920 -0.9228  1.7499
   55CHL1    O3 6479   4.137   3.614  10.316  0.0336 -0.1505 -0.3527
   55CHL1   H3' 6480   4.046   3.587  10.330 -0.6684  2.7696  1.0453
   55CHL1    C4 6481   4.123   3.435  10.161  0.1771  0.2628 -0.0186
   55CHL1   H4A 6482   4.188   3.374  10.226  0.6046 -0.7116 -1.3561
   55CHL1   H4B 6483   4.024   3.409  10.204  0.4522 -0.4500  0.1786
   55CHL1    C5 6484   4.132   3.398  10.015  0.0906 -0.3164  0.0685
   55CHL1    C6 6485   4.024   3.343   9.954  0.3563 -0.5131 -0.0516
   55CHL1    H6 6486   3.939   3.318  10.019  0.5907 -1.7594 -0.2200
   55CHL1    C7 6487   4.028   3.296   9.812  0.0497 -0.0703  0.1794
   55CHL1   H7A 6488   3.969   3.203   9.801 -1.3138  0.9347 -1.2651
   55CHL1   H7B 6489   3.984   3.367   9.739 -1.3730 -0.7906  0.3246
   55CHL1    C8 6490   4.180   3.285   9.758  0.1077  0.1414 -0.1677
   55CHL1    H8 6491   4.224   3.195   9.806  0.3935 -0.5645 -1.7163
   55CHL1   C14 6492   4.187   3.264   9.609  0.2563 -0.4668  0.7202
   55CHL1   H14 6493   4.154   3.360   9.564 -0.0793 -1.1299 -0.4694
   55CHL1   C15 6494   4.101   3.147   9.559  0.1299 -0.2684  0.4783
   55CHL1  H15A 6495   4.130   3.061   9.623  3.1884  0.2999 -0.0654
   55CHL1  H15B 6496   3.991   3.165   9.555  0.4027  0.9591 -3.3109
   55CHL1   C16 6497   4.146   3.131   9.412 -0.4094  0.0657 -0.2648
   55CHL1  H16A 6498   4.181   3.025   9.407 -1.7937 -0.3878 -0.5365
   55CHL1  H16B 6499   4.065   3.145   9.338 -0.5516  1.8248  0.2099
   55CHL1   C17 6500   4.266   3.223   9.396  0.1258  0.0247 -0.2661
   55CHL1   H17 6501   4.230   3.320   9.354 -1.0418  0.0189  0.6906
   55CHL1   C13 6502   4.317   3.241   9.538  0.3614  0.0752  0.2335
   55CHL1   C18 6503   4.386   3.117   9.604  0.0503  0.2788  0.0948
   55CHL1  H18A 6504   4.484   3.103   9.553 -0.0364 -2.6334  0.6366
   55CHL1  H18B 6505   4.406   3.135   9.712  0.2408  1.3900 -0.1222
   55CHL1  H18C 6506   4.327   3.023   9.601  1.3307 -0.5893  1.4548
   55CHL1   C12 6507   4.404   3.364   9.567 -0.9026  0.6097 -0.2371
   55CHL1  H12A 6508   4.509   3.355   9.531 -0.6420 -3.4314  1.3225
   55CHL1  H12B 6509   4.357   3.450   9.514  1.3937  2.0959  0.0867
   55CHL1   C11 6510   4.409   3.399   9.729 -0.3874  0.2819 -0.2706
   55CHL1  H11A 6511   4.456   3.317   9.788  0.8355  0.9966 -0.2308
   55CHL1  H11B 6512   4.463   3.493   9.750  2.3922 -1.0960 -1.0268
   55CHL1    C9 6513   4.266   3.409   9.793  0.1360  0.4400 -0.1206
   55CHL1    H9 6514   4.217   3.499   9.751  0.9600  1.2707  0.6919
   55CHL1   C10 6515   4.266   3.434   9.951 -0.1552  0.0139  0.6230
   55CHL1   C19 6516   4.372   3.347  10.020 -0.2142 -0.0654  0.7768
   55CHL1  H19A 6517   4.474   3.357   9.976 -0.9883  1.0861 -0.8057
   55CHL1  H19B 6518   4.397   3.373  10.125  1.2611  3.7849 -0.4268
   55CHL1  H19C 6519   4.346   3.239  10.016  0.1829 -0.1178 -1.2067
   55CHL1    C1 6520   4.301   3.584   9.962  0.2422 -0.5397 -0.3220
   55CHL1   H1A 6521   4.408   3.588   9.933  0.6061  1.3537  1.1544
   55CHL1   H1B 6522   4.237   3.644   9.895 -1.0857 -1.6878 -0.1075
   55CHL1    C2 6523   4.289   3.627  10.111  0.4984 -0.1138 -0.6735
   55CHL1   H2A 6524   4.308   3.735  10.131 -0.0957 -0.0872 -0.2590
   55CHL1   H2B 6525   4.361   3.566  10.169 -1.5849 -1.0379  0.9930
   55CHL1   C20 6526   4.372   3.171   9.297  0.3108  0.4033  0.5396
   55CHL1   H20 6527   4.429   3.090   9.347  0.0748  0.1824  0.4526
   55CHL1   C21 6528   4.473   3.289   9.257 -0.0814  0.0076 -0.4891
   55CHL1  H21A 6529   4.422   3.375   9.207 -2.3508 -0.0641  1.5610
   55CHL1  H21B 6530   4.556   3.250   9.195  0.0661  0.0277 -0.3076
   55CHL1  H21C 6531   4.526   3.317   9.351 -0.0967 -2.0062  0.1435
   55CHL1   C22 6532   4.303   3.123   9.167  0.2758  0.3749 -0.9147
   55CHL1  H22A 6533   4.206   3.173   9.144 -0.0547  0.5315  0.6978
   55CHL1  H22B 6534   4.367   3.152   9.081  0.2911  0.3236 -0.9195
   55CHL1   C23 6535   4.304   2.961   9.161  0.1167 -0.2110  0.0059
   55CHL1  H23A 6536   4.410   2.929   9.154  1.0523  3.1157 -2.2429
   55CHL1  H23B 6537   4.245   2.904   9.237 -1.0501 -1.9128 -2.1308
   55CHL1   C24 6538   4.244   2.917   9.027  0.4617 -0.2588  0.0532
   55CHL1  H24A 6539   4.142   2.957   9.011  0.6219  0.9989  2.0414
   55CHL1  H24B 6540   4.308   2.951   8.943 -2.3941  0.9831 -1.6733
   55CHL1   C25 6541   4.235   2.768   9.015 -0.0228  0.7432  0.4018
   55CHL1   H25 6542   4.184   2.734   9.107 -0.7698 -2.5802 -1.1739
   55CHL1   C26 6543   4.145   2.729   8.899  0.5584  0.5917  0.3529
   55CHL1  H26A 6544   4.169   2.796   8.814  0.2122 -0.0676 -0.2746
   55CHL1  H26B 6545   4.165   2.622   8.875  0.2182  0.4876  0.5447
   55CHL1  H26C 6546   4.036   2.739   8.918  0.4803  0.5083 -0.0405
   55CHL1   C27 6547   4.369   2.690   9.011 -0.8005 -0.0317  0.7445
   55CHL1  H27A 6548   4.455   2.740   9.062 -0.0193 -0.8779  0.2728
   55CHL1  H27B 6549   4.350   2.588   9.050 -0.3411 -0.2037  0.5218
   55CHL1  H27C 6550   4.398   2.670   8.906 -2.6511 -1.1054  0.4283
   56CHL1    C3 6551   1.220   1.011  10.049 -0.6118 -0.5053  0.2791
   56CHL1    H3 6552   1.112   0.988  10.036 -0.3654 -1.1831 -0.6429
   56CHL1    O3 6553   1.258   0.995  10.183 -0.5137  0.5945  0.0001
   56CHL1   H3' 6554   1.259   1.084  10.219 -1.0947  1.2484 -1.5498
   56CHL1    C4 6555   1.317   0.931   9.959 -0.7013  0.5293  0.1526
   56CHL1   H4A 6556   1.418   0.958   9.997 -0.1936 -1.0216 -0.0536
   56CHL1   H4B 6557   1.320   0.822   9.980  0.3005  0.9615  2.4049
   56CHL1    C5 6558   1.310   0.952   9.809 -0.5632 -0.5752 -0.2642
   56CHL1    C6 6559   1.290   0.851   9.725  0.2436  0.4512 -0.0727
   56CHL1    H6 6560   1.287   0.745   9.754 -4.1182  0.3873 -0.4808
   56CHL1    C7 6561   1.282   0.871   9.573 -0.5324  0.7235 -0.4651
   56CHL1   H7A 6562   1.334   0.795   9.510 -0.8075  0.6916 -0.6564
   56CHL1   H7B 6563   1.175   0.857   9.544 -0.8698  0.5523  0.8512
   56CHL1    C8 6564   1.328   1.011   9.525  0.0786 -0.2949  0.8397
   56CHL1    H8 6565   1.439   1.014   9.529  0.3118  1.8592 -3.5225
   56CHL1   C14 6566   1.277   1.043   9.386  1.2845  0.6524 -0.1154
   56CHL1   H14 6567   1.167   1.036   9.376  1.1242 -1.0555  2.3963
   56CHL1   C15 6568   1.324   0.944   9.280 -0.0019 -0.2470 -0.2012
   56CHL1  H15A 6569   1.429   0.917   9.305 -0.2162 -0.6482  0.2760
   56CHL1  H15B 6570   1.260   0.853   9.275  1.8403 -1.5160 -1.7140
   56CHL1   C16 6571   1.314   1.027   9.145 -0.0879 -0.0523  0.5997
   56CHL1  H16A 6572   1.409   1.030   9.088  0.1467  0.2661  1.0116
   56CHL1  H16B 6573   1.236   0.990   9.075  0.9438 -2.3485  0.6018
   56CHL1   C17 6574   1.276   1.171   9.183  0.2388  0.2680  0.1911
   56CHL1   H17 6575   1.167   1.187   9.200  0.4466  1.2906  0.6074
   56CHL1   C13 6576   1.316   1.179   9.331  0.1964  0.1118 -0.4428
   56CHL1   C18 6577   1.471   1.192   9.330 -0.3261 -0.0781  0.2848
   56CHL1  H18A 6578   1.500   1.291   9.288 -1.6715 -0.4809 -1.6745
   56CHL1  H18B 6579   1.511   1.172   9.431 -0.8964  1.1217  0.7665
   56CHL1  H18C 6580   1.521   1.120   9.261 -0.3504  0.0020  0.1818
   56CHL1   C12 6581   1.253   1.284   9.414 -0.3847  0.1454  0.2341
   56CHL1  H12A 6582   1.282   1.386   9.378  0.9027  0.1034  1.1152
   56CHL1  H12B 6583   1.143   1.273   9.404 -0.3240 -0.1742 -0.0758
   56CHL1   C11 6584   1.296   1.262   9.556 -0.1271 -0.2321  0.4441
   56CHL1  H11A 6585   1.403   1.290   9.562  0.0540 -0.9933  0.7946
   56CHL1  H11B 6586   1.238   1.330   9.621 -0.3260  2.6792 -2.6151
   56CHL1    C9 6587   1.268   1.121   9.613 -0.2827  0.1389 -0.8477
   56CHL1    H9 6588   1.158   1.105   9.605 -0.2366 -0.4433 -0.3714
   56CHL1   C10 6589   1.311   1.098   9.760  0.4519  0.7789  0.2013
   56CHL1   C19 6590   1.455   1.154   9.758 -0.5446  0.6166 -0.4090
   56CHL1  H19A 6591   1.514   1.114   9.672 -3.9873 -1.7746 -1.7644
   56CHL1  H19B 6592   1.454   1.265   9.751  1.0816  0.6221 -0.9732
   56CHL1  H19C 6593   1.517   1.129   9.847  0.0039  2.2857 -0.3149
   56CHL1    C1 6594   1.219   1.178   9.862 -0.4438 -0.2432  0.5643
   56CHL1   H1A 6595   1.238   1.284   9.837  0.3122 -0.4034  0.4443
   56CHL1   H1B 6596   1.115   1.151   9.836 -0.1217 -0.1138 -0.8989
   56CHL1    C2 6597   1.239   1.159  10.009 -0.9276 -0.0646 -0.1279
   56CHL1   H2A 6598   1.186   1.243  10.060  1.6474  1.8487 -0.4978
   56CHL1   H2B 6599   1.348   1.177  10.021 -0.8755  1.3351 -2.5799
   56CHL1   C20 6600   1.312   1.283   9.084 -0.2483  0.5248 -0.0347
   56CHL1   H20 6601   1.325   1.376   9.143 -1.9177  0.6727  0.1339
   56CHL1   C21 6602   1.181   1.296   8.995 -0.6135  0.4855  0.6260
   56CHL1  H21A 6603   1.163   1.199   8.944 -0.1952  1.9610 -2.4394
   56CHL1  H21B 6604   1.197   1.375   8.918  2.4060 -1.1935 -0.5664
   56CHL1  H21C 6605   1.094   1.328   9.056 -0.8733  0.0650  0.4757
   56CHL1   C22 6606   1.436   1.281   8.992  0.7084  0.3247  0.7995
   56CHL1  H22A 6607   1.529   1.257   9.046  0.1659 -1.8178  0.8340
   56CHL1  H22B 6608   1.412   1.205   8.914 -3.2321  2.3654 -0.1540
   56CHL1   C23 6609   1.470   1.416   8.916 -0.0986  0.0356  0.1589
   56CHL1  H23A 6610   1.378   1.432   8.856  0.4519  3.4692  0.1422
   56CHL1  H23B 6611   1.470   1.496   8.994 -2.4973 -0.7102  0.9815
   56CHL1   C24 6612   1.602   1.402   8.830  0.2780 -0.0076 -0.0915
   56CHL1  H24A 6613   1.686   1.391   8.902 -1.7924 -0.2264  2.3730
   56CHL1  H24B 6614   1.588   1.309   8.771 -1.2517 -0.8983  1.6328
   56CHL1   C25 6615   1.634   1.506   8.718 -0.0366  0.1451  0.4598
   56CHL1   H25 6616   1.672   1.599   8.766 -2.6854 -0.1736  3.3059
   56CHL1   C26 6617   1.756   1.461   8.633 -0.1670 -0.0473  0.0278
   56CHL1  H26A 6618   1.840   1.438   8.703  0.2304  0.0794 -0.4025
   56CHL1  H26B 6619   1.733   1.383   8.557 -1.2252  0.0633  0.2262
   56CHL1  H26C 6620   1.798   1.544   8.572 -0.4513 -0.6987 -1.0652
   56CHL1   C27 6621   1.519   1.533   8.627 -0.8005  0.7011 -0.4367
   56CHL1  H27A 6622   1.476   1.440   8.585  0.4809 -0.4963  0.8362
   56CHL1  H27B 6623   1.445   1.581   8.695 -1.0088 -0.8288  0.4283
   56CHL1  H27C 6624   1.538   1.608   8.547  0.1928  0.2785 -0.5999
   57CHL1    C3 6625   4.186   4.052  10.200 -0.0854  0.4735  0.2483
   57CHL1    H3 6626   4.208   3.949  10.234  1.8343  1.1782  1.2383
   57CHL1    O3 6627   4.131   4.142  10.296  0.1640  0.0056  0.0992
   57CHL1   H3' 6628   4.167   4.228  10.274  1.3509 -0.1356  1.4614
   57CHL1    C4 6629   4.316   4.114  10.149 -0.8729 -1.1058  0.0647
   57CHL1   H4A 6630   4.297   4.218  10.114  0.4648 -0.5307  1.0057
   57CHL1   H4B 6631   4.379   4.126  10.240 -0.5192 -0.2887 -0.2844
   57CHL1    C5 6632   4.372   4.038  10.028  0.2180 -0.2608  0.4890
   57CHL1    C6 6633   4.498   3.989  10.028  0.8559 -0.4226 -0.6089
   57CHL1    H6 6634   4.557   4.004  10.119  1.1460 -3.6132 -0.1894
   57CHL1    C7 6635   4.564   3.931   9.906  0.2809 -0.4780  0.6096
   57CHL1   H7A 6636   4.673   3.951   9.901  0.5156 -1.7766  0.3655
   57CHL1   H7B 6637   4.553   3.823   9.928  2.8337 -0.7705  0.5362
   57CHL1    C8 6638   4.491   3.960   9.775  0.2694  0.0079 -0.0685
   57CHL1    H8 6639   4.514   4.061   9.736 -0.0505  0.6438  1.3515
   57CHL1   C14 6640   4.533   3.858   9.668 -0.2665  0.1429  0.9560
   57CHL1   H14 6641   4.500   3.757   9.699  2.1683 -1.2908 -0.8290
   57CHL1   C15 6642   4.684   3.843   9.637 -0.8732 -0.8022  0.0126
   57CHL1  H15A 6643   4.733   3.943   9.647 -2.4348 -0.0634  0.5685
   57CHL1  H15B 6644   4.731   3.771   9.707 -1.8487 -1.0009  0.4775
   57CHL1   C16 6645   4.691   3.777   9.501 -0.0717 -0.9513 -0.9706
   57CHL1  H16A 6646   4.751   3.849   9.442  0.6789 -0.9922 -0.2596
   57CHL1  H16B 6647   4.748   3.681   9.500  0.7788 -0.4444 -1.4635
   57CHL1   C17 6648   4.542   3.766   9.455 -0.1979 -0.7854  0.0037
   57CHL1   H17 6649   4.510   3.669   9.499 -0.9137 -0.4556  0.2030
   57CHL1   C13 6650   4.469   3.876   9.529 -0.3783 -0.1543  0.5635
   57CHL1   C18 6651   4.498   4.018   9.465  0.5181  0.1967 -0.1748
   57CHL1  H18A 6652   4.473   4.111   9.520 -0.8085 -0.9460  1.2004
   57CHL1  H18B 6653   4.609   4.019   9.453  0.4380 -1.4266 -1.0657
   57CHL1  H18C 6654   4.465   4.012   9.360 -0.8203  0.0813  0.2456
   57CHL1   C12 6655   4.320   3.855   9.557  0.6333 -0.9040 -0.5814
   57CHL1  H12A 6656   4.266   3.886   9.465  0.6672  0.6823 -0.0859
   57CHL1  H12B 6657   4.304   3.748   9.584 -1.5618 -0.3794  0.2661
   57CHL1   C11 6658   4.262   3.962   9.658  0.4619 -0.1027 -1.0255
   57CHL1  H11A 6659   4.282   4.066   9.623 -0.2008  0.4081  0.0644
   57CHL1  H11B 6660   4.154   3.943   9.679  1.0972 -2.2049  0.4607
   57CHL1    C9 6661   4.341   3.946   9.794  0.4107 -0.3300 -0.0840
   57CHL1    H9 6662   4.322   3.844   9.833 -1.4881  1.2221  3.3615
   57CHL1   C10 6663   4.277   4.035   9.909  0.6309 -0.5036 -0.0061
   57CHL1   C19 6664   4.266   4.176   9.864  0.3160 -0.1214  0.0353
   57CHL1  H19A 6665   4.368   4.217   9.852  1.0925 -1.8161  0.6765
   57CHL1  H19B 6666   4.210   4.184   9.768  0.9475 -2.2716 -0.5446
   57CHL1  H19C 6667   4.202   4.237   9.931 -2.0706 -2.3816 -0.0622
   57CHL1    C1 6668   4.138   3.982   9.960  0.0670 -0.5157  0.3209
   57CHL1   H1A 6669   4.064   3.989   9.878  1.0078  1.0382 -0.4061
   57CHL1   H1B 6670   4.152   3.881  10.005 -1.0876 -0.5977  0.5177
   57CHL1    C2 6671   4.084   4.044  10.087 -0.6308 -0.3999 -0.0870
   57CHL1   H2A 6672   3.990   3.998  10.121  1.3131 -0.9148  4.9747
   57CHL1   H2B 6673   4.058   4.148  10.057  0.6017  0.0026  0.1827
   57CHL1   C20 6674   4.520   3.753   9.305 -0.1513  0.4382 -0.3267
   57CHL1   H20 6675   4.512   3.849   9.250  0.0398  1.3058  1.1523
   57CHL1   C21 6676   4.378   3.690   9.272 -0.8713  0.6046 -0.5148
   57CHL1  H21A 6677   4.369   3.587   9.313  2.0427  0.6996  0.4625
   57CHL1  H21B 6678   4.363   3.695   9.163 -0.0299  1.5689 -0.5840
   57CHL1  H21C 6679   4.295   3.748   9.318  0.8811  2.7006  0.0869
   57CHL1   C22 6680   4.634   3.669   9.237 -0.2288 -0.1056 -0.2930
   57CHL1  H22A 6681   4.739   3.702   9.253  0.2784 -0.7982 -2.0559
   57CHL1  H22B 6682   4.617   3.562   9.262 -0.2602  0.0900  0.5170
   57CHL1   C23 6683   4.613   3.670   9.082 -0.2104 -0.1248 -0.1817
   57CHL1  H23A 6684   4.511   3.640   9.051 -0.3590  0.4645 -0.2799
   57CHL1  H23B 6685   4.638   3.772   9.045 -2.0905  0.4574  0.1123
   57CHL1   C24 6686   4.700   3.563   9.014 -0.7374 -0.0720  0.1384
   57CHL1  H24A 6687   4.807   3.589   9.029 -0.0027 -2.7907 -0.1939
   57CHL1  H24B 6688   4.687   3.464   9.063  1.3411  0.4391  1.7971
   57CHL1   C25 6689   4.668   3.551   8.861  0.2722  0.1412 -0.0512
   57CHL1   H25 6690   4.564   3.515   8.856 -0.2403  1.5308  0.3422
   57CHL1   C26 6691   4.683   3.688   8.786  0.5404  0.0045  0.2320
   57CHL1  H26A 6692   4.694   3.679   8.675  1.2146 -0.2825  0.3223
   57CHL1  H26B 6693   4.595   3.754   8.798  0.9437  0.1813  2.3310
   57CHL1  H26C 6694   4.773   3.742   8.823  0.5395  0.8945 -1.0273
   57CHL1   C27 6695   4.758   3.443   8.799 -0.3207 -0.0464 -0.2551
   57CHL1  H27A 6696   4.735   3.429   8.691  1.5551 -1.3329 -0.5043
   57CHL1  H27B 6697   4.865   3.473   8.804 -1.0099  2.4705  0.0858
   57CHL1  H27C 6698   4.743   3.349   8.858 -0.2145  0.3866  0.4699
   58CHL1    C3 6699   0.330   2.485  10.132  0.3732  1.0295 -0.4648
   58CHL1    H3 6700   0.223   2.517  10.131  0.3149  0.8488 -2.0865
   58CHL1    O3 6701   0.362   2.434  10.265 -0.5658 -0.1199  0.1018
   58CHL1   H3' 6702   0.373   2.511  10.320 -1.9447  1.6315 -1.9791
   58CHL1    C4 6703   0.343   2.383  10.021  0.7041 -0.2490 -0.3484
   58CHL1   H4A 6704   0.447   2.345  10.028  1.2017  0.7127 -2.2980
   58CHL1   H4B 6705   0.271   2.302  10.046 -3.5032  3.3829  0.0916
   58CHL1    C5 6706   0.312   2.436   9.882 -0.1664  0.3765 -0.6656
   58CHL1    C6 6707   0.240   2.366   9.795  0.5292 -0.2900 -0.3792
   58CHL1    H6 6708   0.197   2.270   9.825  1.9381 -0.3910  1.3755
   58CHL1    C7 6709   0.207   2.411   9.660 -0.2651 -0.3166 -0.1385
   58CHL1   H7A 6710   0.189   2.331   9.584 -0.1313  2.6495 -3.4367
   58CHL1   H7B 6711   0.108   2.459   9.672 -0.8700 -1.6005  0.0777
   58CHL1    C8 6712   0.314   2.519   9.607  0.5229 -0.9437  0.4732
   58CHL1    H8 6713   0.402   2.460   9.573  0.6918 -0.7651  0.6034
   58CHL1   C14 6714   0.263   2.579   9.474  0.4270 -0.7643 -0.9980
   58CHL1   H14 6715   0.161   2.622   9.486  0.6926  0.2783 -2.2641
   58CHL1   C15 6716   0.228   2.483   9.357 -0.0463 -0.0952 -0.6141
   58CHL1  H15A 6717   0.321   2.424   9.340 -0.4940 -0.9402 -0.1648
   58CHL1  H15B 6718   0.140   2.417   9.372  1.3911 -1.9322  0.0067
   58CHL1   C16 6719   0.217   2.584   9.241  0.3811  0.5105  0.3191
   58CHL1  H16A 6720   0.266   2.540   9.152  0.9756  0.6828  0.5578
   58CHL1  H16B 6721   0.115   2.607   9.201  0.3529  2.6683  1.5424
   58CHL1   C17 6722   0.275   2.721   9.292  0.9487 -0.3009 -0.3931
   58CHL1   H17 6723   0.184   2.777   9.320 -0.1193 -1.8178 -0.8096
   58CHL1   C13 6724   0.350   2.695   9.425  0.5447 -0.4690  0.6608
   58CHL1   C18 6725   0.491   2.635   9.388  0.3384 -0.9744  0.0651
   58CHL1  H18A 6726   0.538   2.579   9.472  0.5035 -1.8655 -0.6034
   58CHL1  H18B 6727   0.480   2.566   9.301 -0.7018  0.2757 -0.8015
   58CHL1  H18C 6728   0.567   2.716   9.391  1.5687 -2.0903 -0.1945
   58CHL1   C12 6729   0.344   2.808   9.532 -1.0081 -0.2339 -0.5666
   58CHL1  H12A 6730   0.407   2.895   9.505 -1.7452  0.2750 -0.6576
   58CHL1  H12B 6731   0.240   2.848   9.533 -1.7554 -2.1253  0.2539
   58CHL1   C11 6732   0.405   2.753   9.661 -0.2175  0.2675  0.2654
   58CHL1  H11A 6733   0.508   2.718   9.638 -0.0365  1.0767 -0.1684
   58CHL1  H11B 6734   0.400   2.826   9.745 -1.4480 -0.4286  0.8172
   58CHL1    C9 6735   0.331   2.625   9.714  0.4472  0.3440 -0.7194
   58CHL1    H9 6736   0.229   2.657   9.742 -0.3469 -1.7207 -1.1454
   58CHL1   C10 6737   0.389   2.572   9.849 -0.0860 -0.1034 -0.1778
   58CHL1   C19 6738   0.547   2.541   9.819  0.0172  0.3226 -0.6854
   58CHL1  H19A 6739   0.594   2.499   9.910 -0.8194  0.4404 -0.1882
   58CHL1  H19B 6740   0.558   2.477   9.729 -1.3810 -0.9085  0.0139
   58CHL1  H19C 6741   0.604   2.636   9.809  1.4525 -0.2102  2.0479
   58CHL1    C1 6742   0.384   2.674   9.970  0.6516 -0.1058  0.7285
   58CHL1   H1A 6743   0.458   2.754   9.950  0.7643 -0.3005  0.3690
   58CHL1   H1B 6744   0.286   2.726   9.961  1.5828  1.5708  0.0258
   58CHL1    C2 6745   0.410   2.613  10.110 -0.0896 -0.1433 -0.1272
   58CHL1   H2A 6746   0.386   2.692  10.184 -2.4354  1.1132 -2.1447
   58CHL1   H2B 6747   0.517   2.586  10.119  0.0000  0.1444 -0.3164
   58CHL1   C20 6748   0.361   2.787   9.176 -0.0909 -0.0145  0.1634
   58CHL1   H20 6749   0.440   2.716   9.142 -0.2703  0.3437 -1.0141
   58CHL1   C21 6750   0.432   2.913   9.222 -1.0579  0.0989 -0.0870
   58CHL1  H21A 6751   0.513   2.948   9.154 -1.4570  1.3024  0.0430
   58CHL1  H21B 6752   0.485   2.905   9.319 -1.4300  1.8680  0.2696
   58CHL1  H21C 6753   0.354   2.989   9.243  0.0443  1.3204 -0.3319
   58CHL1   C22 6754   0.271   2.818   9.055  0.2648 -0.5474  0.5721
   58CHL1  H22A 6755   0.217   2.725   9.025 -0.3098 -0.3897  1.0880
   58CHL1  H22B 6756   0.187   2.883   9.086 -0.3781 -1.1470  0.1105
   58CHL1   C23 6757   0.323   2.895   8.935  0.0821  0.1961 -0.4549
   58CHL1  H23A 6758   0.239   2.888   8.863 -0.7986 -0.6973  0.6402
   58CHL1  H23B 6759   0.330   3.004   8.955  1.5030 -0.2245  1.4694
   58CHL1   C24 6760   0.449   2.839   8.863  0.5484  0.2318 -0.4684
   58CHL1  H24A 6761   0.530   2.839   8.939  0.3749  3.4233 -0.2229
   58CHL1  H24B 6762   0.435   2.731   8.838  1.2837  0.3421 -1.4386
   58CHL1   C25 6763   0.490   2.915   8.750  0.3308 -0.4666 -0.3292
   58CHL1   H25 6764   0.408   2.930   8.677 -0.7705  1.7400  1.2797
   58CHL1   C26 6765   0.527   3.066   8.786 -0.5384  0.5302 -0.3466
   58CHL1  H26A 6766   0.454   3.117   8.851  1.3938  0.6587  1.7820
   58CHL1  H26B 6767   0.624   3.071   8.840 -0.9500 -0.0365  0.4635
   58CHL1  H26C 6768   0.549   3.132   8.699  3.0735 -0.4540 -0.2672
   58CHL1   C27 6769   0.610   2.845   8.675 -0.4100  0.5695 -0.0634
   58CHL1  H27A 6770   0.558   2.768   8.614 -0.8758  1.1567 -0.4173
   58CHL1  H27B 6771   0.673   2.911   8.611  0.7179  0.7150  1.1956
   58CHL1  H27C 6772   0.679   2.800   8.749  1.0554  0.8494 -1.2250
   59CHL1    C3 6773   6.015   2.207  10.363 -0.4847  0.3234  0.1597
   59CHL1    H3 6774   6.085   2.125  10.335  0.4678  0.4934  1.9631
   59CHL1    O3 6775   6.002   2.231  10.503  0.2876  0.6128 -0.3077
   59CHL1   H3' 6776   6.093   2.231  10.533 -0.0117  2.2871  0.6032
   59CHL1    C4 6777   6.094   2.321  10.296 -1.2914 -0.1229 -1.1031
   59CHL1   H4A 6778   6.055   2.423  10.315  0.1943  0.3068 -0.3105
   59CHL1   H4B 6779   6.194   2.323  10.343 -1.6788 -2.3854 -0.1310
   59CHL1    C5 6780   6.098   2.309  10.145  0.5969  0.0516  0.7208
   59CHL1    C6 6781   6.214   2.291  10.077 -0.9743 -0.4751  0.1289
   59CHL1    H6 6782   6.310   2.298  10.131 -1.3982 -1.1464  0.9810
   59CHL1    C7 6783   6.228   2.291   9.929  0.4238  0.4446  0.0125
   59CHL1   H7A 6784   6.300   2.370   9.899  0.4779  0.1253 -0.7079
   59CHL1   H7B 6785   6.268   2.195   9.891 -1.2136 -1.0696  2.0251
   59CHL1    C8 6786   6.093   2.322   9.857  0.4351  0.6048 -0.1740
   59CHL1    H8 6787   6.077   2.432   9.860 -0.3869  0.4537  1.3187
   59CHL1   C14 6788   6.090   2.279   9.708  0.3734  0.6967  0.1496
   59CHL1   H14 6789   6.095   2.168   9.720  0.7242  0.6762 -0.1675
   59CHL1   C15 6790   6.208   2.320   9.617  0.2460 -0.0740 -0.1637
   59CHL1  H15A 6791   6.220   2.430   9.624 -0.8632 -0.0577  1.9326
   59CHL1  H15B 6792   6.297   2.267   9.655  1.1873  0.4075 -1.6293
   59CHL1   C16 6793   6.161   2.271   9.481  0.3433 -0.4359  0.1123
   59CHL1  H16A 6794   6.170   2.346   9.399 -2.9190 -1.1940 -1.0272
   59CHL1  H16B 6795   6.215   2.180   9.447 -2.1610 -1.2859 -1.8031
   59CHL1   C17 6796   6.012   2.228   9.498 -0.6226  0.1708 -0.3016
   59CHL1   H17 6797   6.013   2.118   9.512  1.4047  0.1922 -0.1106
   59CHL1   C13 6798   5.966   2.297   9.628 -0.2074 -0.6117 -0.7404
   59CHL1   C18 6799   5.955   2.450   9.609 -0.6760 -0.2264 -0.0734
   59CHL1  H18A 6800   6.036   2.493   9.546 -0.9599  1.2113  0.5039
   59CHL1  H18B 6801   5.854   2.466   9.567 -0.6133  0.3673 -0.0143
   59CHL1  H18C 6802   5.946   2.506   9.705 -0.8430  0.4897 -0.5022
   59CHL1   C12 6803   5.845   2.234   9.704 -0.2738 -0.1872  0.2460
   59CHL1  H12A 6804   5.751   2.261   9.651 -0.2005 -0.7441 -0.1743
   59CHL1  H12B 6805   5.844   2.123   9.713 -1.0797 -0.3362 -1.4891
   59CHL1   C11 6806   5.837   2.293   9.849  0.0375 -0.0586 -0.1389
   59CHL1  H11A 6807   5.822   2.403   9.852  2.9742  0.3752 -0.3561
   59CHL1  H11B 6808   5.749   2.248   9.900  0.5762  0.8730  1.6483
   59CHL1    C9 6809   5.967   2.259   9.927 -0.2161 -0.0393  1.3405
   59CHL1    H9 6810   5.984   2.149   9.928  1.6670  0.2219  0.7233
   59CHL1   C10 6811   5.959   2.297  10.077  0.3010  0.1761 -0.6685
   59CHL1   C19 6812   5.889   2.430  10.097  0.3619 -0.4701  0.4933
   59CHL1  H19A 6813   5.947   2.513  10.049 -0.1315  0.0833  0.8545
   59CHL1  H19B 6814   5.785   2.429  10.059 -0.4268 -1.7315  2.6275
   59CHL1  H19C 6815   5.891   2.462  10.203  0.0314 -0.8024  0.5976
   59CHL1    C1 6816   5.889   2.175  10.144 -0.4778  0.0298  0.1489
   59CHL1   H1A 6817   5.789   2.148  10.103 -0.2411  0.0172 -0.4291
   59CHL1   H1B 6818   5.953   2.088  10.115 -0.3693  0.7260 -1.8277
   59CHL1    C2 6819   5.878   2.188  10.297 -0.0089  0.0147 -0.4305
   59CHL1   H2A 6820   5.841   2.090  10.335  0.4845  0.6546  1.7754
   59CHL1   H2B 6821   5.804   2.268  10.318  0.0436 -0.1669  0.4862
   59CHL1   C20 6822   5.932   2.256   9.369 -0.3428  0.2976 -0.4340
   59CHL1   H20 6823   5.928   2.364   9.343 -0.4168  0.5504  0.5940
   59CHL1   C21 6824   5.794   2.212   9.395 -0.0428  0.3518  0.5197
   59CHL1  H21A 6825   5.734   2.285   9.452 -1.8892 -1.7769  1.3798
   59CHL1  H21B 6826   5.798   2.127   9.466  2.2088  0.0685  0.0796
   59CHL1  H21C 6827   5.738   2.176   9.306  1.5285  0.2557 -0.4544
   59CHL1   C22 6828   5.991   2.177   9.259 -0.6221 -0.5480 -0.1298
   59CHL1  H22A 6829   6.098   2.203   9.245 -0.5618 -0.3878  0.5860
   59CHL1  H22B 6830   5.994   2.068   9.281 -0.5297 -0.4688  0.2624
   59CHL1   C23 6831   5.919   2.216   9.121 -0.0862  0.3308 -0.2590
   59CHL1  H23A 6832   5.812   2.187   9.116 -0.3876  0.6318  3.3826
   59CHL1  H23B 6833   5.927   2.326   9.128 -2.1234  0.4169  1.1854
   59CHL1   C24 6834   5.994   2.163   8.992 -0.2679  0.1294  0.0483
   59CHL1  H24A 6835   6.102   2.185   9.008  0.1418 -0.0433 -2.3049
   59CHL1  H24B 6836   5.981   2.055   8.973 -0.4372  0.3497 -1.1355
   59CHL1   C25 6837   5.951   2.234   8.863 -0.7028 -0.5599  0.5487
   59CHL1   H25 6838   5.845   2.207   8.846 -0.6043 -0.4026 -0.3543
   59CHL1   C26 6839   5.971   2.385   8.879  0.2199  0.1293 -0.3494
   59CHL1  H26A 6840   5.895   2.414   8.955  2.4838  2.7108  1.0227
   59CHL1  H26B 6841   6.073   2.411   8.911  0.3903 -0.3708 -0.4758
   59CHL1  H26C 6842   5.938   2.450   8.794  1.2983  0.5551 -0.4421
   59CHL1   C27 6843   6.023   2.178   8.743  0.4665 -0.3783 -0.0753
   59CHL1  H27A 6844   6.026   2.245   8.655 -0.2486  0.2205  0.3450
   59CHL1  H27B 6845   6.132   2.173   8.765  0.6495 -1.6980 -1.2213
   59CHL1  H27C 6846   5.983   2.078   8.717 -2.2620 -0.0566  2.5933
   60CHL1    C3 6847   5.721   0.592  10.239 -0.0764 -0.2361  0.3710
   60CHL1    H3 6848   5.822   0.552  10.213 -0.2726  0.2263 -1.1747
   60CHL1    O3 6849   5.727   0.661  10.365 -0.2429 -0.0338  0.5575
   60CHL1   H3' 6850   5.760   0.594  10.425 -3.7319 -1.7020  0.7498
   60CHL1    C4 6851   5.675   0.703  10.141  0.3679 -0.3421  0.4246
   60CHL1   H4A 6852   5.577   0.744  10.173  0.1604 -0.7605  0.3329
   60CHL1   H4B 6853   5.742   0.791  10.131  2.4194 -2.1228 -2.2308
   60CHL1    C5 6854   5.646   0.659   9.996  0.2332  0.2906  0.3055
   60CHL1    C6 6855   5.688   0.723   9.887  0.2929  0.1532 -0.5402
   60CHL1    H6 6856   5.747   0.813   9.909 -0.0350 -0.0178  1.0583
   60CHL1    C7 6857   5.671   0.675   9.743  0.2016  0.7572  0.4869
   60CHL1   H7A 6858   5.620   0.752   9.681 -0.6433  0.7458  1.1501
   60CHL1   H7B 6859   5.772   0.655   9.702  0.0211 -0.8876  0.8131
   60CHL1    C8 6860   5.572   0.555   9.734  0.2858 -0.8639 -0.4923
   60CHL1    H8 6861   5.471   0.602   9.726  0.3969 -0.2323  1.4938
   60CHL1   C14 6862   5.600   0.476   9.609 -0.2125 -0.3709  0.1700
   60CHL1   H14 6863   5.702   0.437   9.629 -0.6243 -0.0565  3.1837
   60CHL1   C15 6864   5.629   0.558   9.480 -0.1922  0.0608 -0.1011
   60CHL1  H15A 6865   5.545   0.629   9.466  0.2022  0.8225  1.3521
   60CHL1  H15B 6866   5.729   0.605   9.476 -0.8258  1.6904  2.2259
   60CHL1   C16 6867   5.617   0.448   9.370 -0.3344  0.1393  0.6259
   60CHL1  H16A 6868   5.528   0.474   9.309  0.2659  2.3734  0.6455
   60CHL1  H16B 6869   5.710   0.443   9.309 -2.1259  0.8212 -2.2922
   60CHL1   C17 6870   5.589   0.310   9.448  0.0021 -0.2046  0.4986
   60CHL1   H17 6871   5.685   0.271   9.488  0.8504 -0.0200 -1.3278
   60CHL1   C13 6872   5.514   0.357   9.576  0.5394  0.6960 -0.1775
   60CHL1   C18 6873   5.364   0.404   9.551  0.1114 -0.1896 -0.6621
   60CHL1  H18A 6874   5.292   0.322   9.529 -0.3940  0.5401 -1.7127
   60CHL1  H18B 6875   5.324   0.468   9.632 -2.1036 -1.4491 -0.7148
   60CHL1  H18C 6876   5.364   0.483   9.474 -1.3758 -0.4721 -0.9591
   60CHL1   C12 6877   5.515   0.263   9.699  0.0546 -0.4070  0.8418
   60CHL1  H12A 6878   5.433   0.188   9.702  0.0291 -0.4728 -1.0478
   60CHL1  H12B 6879   5.610   0.208   9.713  1.1181  1.0604 -0.5337
   60CHL1   C11 6880   5.494   0.340   9.828  0.4486 -0.3516  0.4085
   60CHL1  H11A 6881   5.391   0.382   9.828  0.9595  0.9678  2.1733
   60CHL1  H11B 6882   5.487   0.270   9.914 -2.3384  0.8646  1.2281
   60CHL1    C9 6883   5.580   0.460   9.853 -0.0557  0.3171  0.0818
   60CHL1    H9 6884   5.682   0.415   9.849 -0.5519 -0.6253 -2.1565
   60CHL1   C10 6885   5.558   0.525   9.989  0.7117 -0.1389  0.4133
   60CHL1   C19 6886   5.418   0.570  10.001  0.5950 -0.7275  0.2459
   60CHL1  H19A 6887   5.399   0.630  10.093  0.3202 -1.0583  0.4013
   60CHL1  H19B 6888   5.386   0.633   9.916 -0.3349  0.0575  1.1597
   60CHL1  H19C 6889   5.348   0.485  10.016  0.2894 -0.3057  1.2885
   60CHL1    C1 6890   5.602   0.420  10.100 -0.0195  0.0159 -0.1173
   60CHL1   H1A 6891   5.532   0.334  10.099  2.1539 -1.8054  0.0897
   60CHL1   H1B 6892   5.697   0.372  10.070  1.3207  1.5472  1.5679
   60CHL1    C2 6893   5.620   0.482  10.241 -0.3757  0.3045  0.6771
   60CHL1   H2A 6894   5.649   0.404  10.315  2.5624  2.2347  1.6481
   60CHL1   H2B 6895   5.518   0.516  10.268 -0.8778  0.5508 -1.4325
   60CHL1   C20 6896   5.513   0.217   9.365  0.1852 -0.4960  0.7806
   60CHL1   H20 6897   5.412   0.259   9.345 -0.1821 -2.2176 -1.1887
   60CHL1   C21 6898   5.494   0.079   9.429  0.0423 -0.0307 -0.3424
   60CHL1  H21A 6899   5.453   0.000   9.363  0.5223 -1.4426  1.0015
   60CHL1  H21B 6900   5.422   0.095   9.511  0.0276  0.8485 -0.5244
   60CHL1  H21C 6901   5.595   0.040   9.457 -0.5108 -1.2373  0.0077
   60CHL1   C22 6902   5.574   0.197   9.220  0.3195 -0.2360  0.3658
   60CHL1  H22A 6903   5.598   0.298   9.180  0.0078 -0.4587 -0.3778
   60CHL1  H22B 6904   5.673   0.148   9.229 -0.6724 -2.0545  1.6409
   60CHL1   C23 6905   5.497   0.109   9.118 -0.2248 -0.4864 -0.0015
   60CHL1  H23A 6906   5.517   0.001   9.135 -1.5645 -1.2170 -2.8175
   60CHL1  H23B 6907   5.387   0.126   9.123 -0.0254  1.4497 -1.8204
   60CHL1   C24 6908   5.536   0.141   8.971  0.7534 -0.0643 -0.0785
   60CHL1  H24A 6909   5.548   0.252   8.972  0.1614  0.0008  0.5896
   60CHL1  H24B 6910   5.630   0.090   8.941  0.3898  0.9393 -3.0363
   60CHL1   C25 6911   5.432   0.108   8.865 -0.0682  0.0255 -0.1310
   60CHL1   H25 6912   5.337   0.166   8.871 -1.1868 -1.5199 -2.1069
   60CHL1   C26 6913   5.496   0.123   8.725  0.2768 -0.5856 -0.3637
   60CHL1  H26A 6914   5.517   0.232   8.720 -0.8699 -0.2678  1.4516
   60CHL1  H26B 6915   5.589   0.064   8.712  1.0837  0.4050  0.9219
   60CHL1  H26C 6916   5.427   0.090   8.644 -0.1441 -2.4368  0.7309
   60CHL1   C27 6917   5.360  -0.029   8.877  0.1341  0.0598  0.1782
   60CHL1  H27A 6918   5.434  -0.107   8.849 -0.5553 -0.3687 -0.4952
   60CHL1  H27B 6919   5.310  -0.043   8.975  1.1157 -0.2469  0.6339
   60CHL1  H27C 6920   5.287  -0.038   8.793  2.5492 -1.4370 -1.8422
   61CHL1    C3 6921   3.402   0.353  10.308  0.2219  0.0085 -0.0451
   61CHL1    H3 6922   3.458   0.448  10.294  0.7582 -0.4476 -0.9502
   61CHL1    O3 6923   3.470   0.284  10.414  0.0492 -0.5541 -0.2894
   61CHL1   H3' 6924   3.561   0.313  10.412 -0.6702  2.1337  2.0515
   61CHL1    C4 6925   3.256   0.388  10.355 -0.7633  0.1513 -0.0069
   61CHL1   H4A 6926   3.210   0.302  10.408  1.9055 -0.1007  2.0318
   61CHL1   H4B 6927   3.275   0.461  10.437  0.3409  1.9680 -1.8232
   61CHL1    C5 6928   3.169   0.441  10.247  0.2511 -0.2168 -0.4063
   61CHL1    C6 6929   3.102   0.559  10.251 -0.1016  0.4364  0.4174
   61CHL1    H6 6930   3.115   0.629  10.335 -1.5630 -0.1888  1.1874
   61CHL1    C7 6931   3.013   0.598  10.144 -0.3033 -0.2222  0.5129
   61CHL1   H7A 6932   2.916   0.637  10.182 -0.9208 -2.7086  1.5948
   61CHL1   H7B 6933   3.063   0.677  10.083  1.4408 -0.9436  0.9758
   61CHL1    C8 6934   2.959   0.491  10.045 -0.4008 -0.1813 -0.1909
   61CHL1    H8 6935   2.888   0.423  10.096  0.9578 -2.7015 -1.5671
   61CHL1   C14 6936   2.888   0.544   9.922  0.2462  0.5559 -0.5671
   61CHL1   H14 6937   2.968   0.612   9.886  1.2137 -0.6824 -0.7630
   61CHL1   C15 6938   2.763   0.631   9.941 -0.0323  0.1145 -0.6780
   61CHL1  H15A 6939   2.708   0.590  10.028  1.4689 -2.8221 -1.0632
   61CHL1  H15B 6940   2.785   0.736   9.969  0.5720 -0.0056 -0.7085
   61CHL1   C16 6941   2.690   0.620   9.802 -0.1430 -0.4047  0.8010
   61CHL1  H16A 6942   2.591   0.570   9.815  0.4943 -1.3393  2.1085
   61CHL1  H16B 6943   2.674   0.720   9.757  0.2307 -0.5297  0.3816
   61CHL1   C17 6944   2.779   0.526   9.712 -0.4106 -0.7892 -0.4196
   61CHL1   H17 6945   2.856   0.586   9.660 -0.7504 -0.6125 -0.7237
   61CHL1   C13 6946   2.864   0.440   9.811 -0.3183 -1.0136  0.2272
   61CHL1   C18 6947   2.771   0.338   9.862 -0.0982  0.1102 -0.2569
   61CHL1  H18A 6948   2.671   0.373   9.893  0.2873  1.0607 -0.0720
   61CHL1  H18B 6949   2.748   0.257   9.790  0.7048  1.3455 -1.9139
   61CHL1  H18C 6950   2.802   0.295   9.960  0.6912 -0.5487 -0.7875
   61CHL1   C12 6951   2.996   0.390   9.759  0.5187  0.6256 -0.3996
   61CHL1  H12A 6952   2.991   0.327   9.668 -0.4352  0.6716 -0.3880
   61CHL1  H12B 6953   3.062   0.473   9.726  2.5492 -0.6228  0.4719
   61CHL1   C11 6954   3.073   0.327   9.877  0.4011 -0.6398  0.0990
   61CHL1  H11A 6955   3.024   0.233   9.911  2.4145 -1.3671  1.0225
   61CHL1  H11B 6956   3.172   0.291   9.844 -0.7713  0.0628 -4.4594
   61CHL1    C9 6957   3.086   0.414  10.004  0.1866  0.2441 -0.2047
   61CHL1    H9 6958   3.161   0.485   9.964  2.0367 -2.2243 -1.2282
   61CHL1   C10 6959   3.163   0.340  10.125  0.5423 -0.0319  0.0643
   61CHL1   C19 6960   3.082   0.220  10.169 -0.3466 -0.2275  0.5246
   61CHL1  H19A 6961   2.976   0.250  10.178 -0.5553 -0.4779 -0.9328
   61CHL1  H19B 6962   3.080   0.129  10.106  0.2790 -0.1444  0.3806
   61CHL1  H19C 6963   3.113   0.181  10.269 -0.0585  0.5136  0.7245
   61CHL1    C1 6964   3.307   0.314  10.082  0.1787 -0.7055  0.0958
   61CHL1   H1A 6965   3.292   0.247   9.995  0.5626 -2.4711  1.3638
   61CHL1   H1B 6966   3.343   0.410  10.040 -0.8958 -1.1384 -1.8829
   61CHL1    C2 6967   3.398   0.257  10.187 -0.5073  0.5542  0.2730
   61CHL1   H2A 6968   3.498   0.236  10.145  0.0812  0.8476  1.4970
   61CHL1   H2B 6969   3.358   0.160  10.223 -0.9850  0.7913  0.3845
   61CHL1   C20 6970   2.702   0.474   9.592 -0.0673  0.2300  0.6869
   61CHL1   H20 6971   2.640   0.386   9.623 -1.2159  0.6690 -0.2995
   61CHL1   C21 6972   2.793   0.390   9.495 -0.7948  0.1301  0.2351
   61CHL1  H21A 6973   2.807   0.284   9.526  3.4446  0.1617 -1.3002
   61CHL1  H21B 6974   2.895   0.426   9.470 -0.5562 -1.4394 -1.1321
   61CHL1  H21C 6975   2.749   0.371   9.394  0.2628 -1.2964  0.0343
   61CHL1   C22 6976   2.603   0.567   9.519  0.0604  0.4666 -0.2847
   61CHL1  H22A 6977   2.542   0.516   9.441 -0.4072  0.6558 -0.0401
   61CHL1  H22B 6978   2.525   0.590   9.595  0.2294 -0.1452  0.0724
   61CHL1   C23 6979   2.669   0.695   9.464 -0.0857  0.4477 -0.5660
   61CHL1  H23A 6980   2.584   0.767   9.461 -2.0890 -1.8174  0.1866
   61CHL1  H23B 6981   2.748   0.736   9.530  0.6560 -0.6785 -0.7257
   61CHL1   C24 6982   2.712   0.675   9.316  0.2036 -0.0316  0.5534
   61CHL1  H24A 6983   2.778   0.587   9.302 -1.3166 -0.9479 -1.1792
   61CHL1  H24B 6984   2.617   0.652   9.262 -0.9020  1.6331  1.7610
   61CHL1   C25 6985   2.786   0.793   9.256  0.2637  0.0411 -0.1621
   61CHL1   H25 6986   2.878   0.811   9.315  0.6211 -0.6503 -0.5036
   61CHL1   C26 6987   2.827   0.761   9.112 -0.1391  0.5519  0.0261
   61CHL1  H26A 6988   2.878   0.663   9.101 -0.3136  0.6632 -1.8955
   61CHL1  H26B 6989   2.747   0.757   9.035  0.2725  1.6841 -0.4521
   61CHL1  H26C 6990   2.895   0.844   9.084  1.1293 -0.9802 -1.5710
   61CHL1   C27 6991   2.716   0.925   9.269  0.7449 -0.6953 -0.1101
   61CHL1  H27A 6992   2.699   0.951   9.375  0.6438  1.6321 -0.6488
   61CHL1  H27B 6993   2.780   1.007   9.229  0.9146 -0.2106  1.1276
   61CHL1  H27C 6994   2.618   0.918   9.218  0.4895  1.3322  0.0309
   62CHL1    C3 6995   3.612   3.706   9.968 -0.1105 -0.4598 -0.7115
   62CHL1    H3 6996   3.612   3.605   9.923 -0.0740 -0.2441 -1.1948
   62CHL1    O3 6997   3.567   3.711  10.107 -0.2690  0.1614  0.2266
   62CHL1   H3' 6998   3.622   3.780  10.144 -1.2462  2.5406 -2.6115
   62CHL1    C4 6999   3.757   3.748   9.961 -0.0871  0.2934  0.3207
   62CHL1   H4A 7000   3.766   3.850  10.004 -0.9199  0.7858 -0.6417
   62CHL1   H4B 7001   3.809   3.677  10.027  5.1491  3.3429 -0.2861
   62CHL1    C5 7002   3.808   3.737   9.816  0.1755  0.1520 -0.1215
   62CHL1    C6 7003   3.904   3.655   9.783 -0.5022  0.5507 -0.4729
   62CHL1    H6 7004   3.960   3.615   9.869  0.1214  2.9568  0.2697
   62CHL1    C7 7005   3.956   3.635   9.643  0.4161 -0.6858  0.0645
   62CHL1   H7A 7006   4.067   3.642   9.641  0.3280  0.6136 -0.2655
   62CHL1   H7B 7007   3.939   3.530   9.608  0.8395 -0.6625 -0.2190
   62CHL1    C8 7008   3.890   3.726   9.538 -0.2402 -0.4783 -0.7261
   62CHL1    H8 7009   3.933   3.828   9.550 -2.0184 -0.1278  3.6463
   62CHL1   C14 7010   3.901   3.666   9.400 -0.6158 -0.2768  0.2989
   62CHL1   H14 7011   3.834   3.578   9.397 -0.0470 -0.7049 -0.0304
   62CHL1   C15 7012   4.035   3.610   9.361  0.1567 -0.4224  0.5272
   62CHL1  H15A 7013   4.127   3.658   9.399  0.1372 -1.9317  2.5700
   62CHL1  H15B 7014   4.051   3.506   9.396  1.6071  0.1444  1.5670
   62CHL1   C16 7015   4.044   3.626   9.206  0.0283 -0.1334 -0.2082
   62CHL1  H16A 7016   4.113   3.709   9.181 -0.5718 -0.0252 -1.5921
   62CHL1  H16B 7017   4.089   3.535   9.160 -1.6489 -2.1806  2.0223
   62CHL1   C17 7018   3.906   3.678   9.162  0.1886 -0.6152  0.8844
   62CHL1   H17 7019   3.839   3.590   9.160 -1.3517  0.5754 -2.0238
   62CHL1   C13 7020   3.859   3.764   9.289  1.0078 -0.0423  0.6444
   62CHL1   C18 7021   3.943   3.897   9.294 -0.7960 -0.4258 -0.1327
   62CHL1  H18A 7022   3.908   3.961   9.210 -0.0937  2.0578  1.4523
   62CHL1  H18B 7023   3.920   3.953   9.387 -0.3466 -0.7610  0.1834
   62CHL1  H18C 7024   4.051   3.874   9.299 -1.1582 -2.3240 -0.4124
   62CHL1   C12 7025   3.710   3.794   9.310  0.2084 -0.2231 -0.1004
   62CHL1  H12A 7026   3.675   3.873   9.240  1.2984  0.6079  0.2797
   62CHL1  H12B 7027   3.647   3.703   9.295 -1.9670  1.4726 -1.6023
   62CHL1   C11 7028   3.675   3.836   9.456  0.4965  0.3431  0.2840
   62CHL1  H11A 7029   3.699   3.944   9.468 -2.8683  1.2353 -0.3033
   62CHL1  H11B 7030   3.566   3.822   9.470  0.6477 -0.5045  0.6185
   62CHL1    C9 7031   3.745   3.757   9.574 -0.3274 -0.7449  0.8506
   62CHL1    H9 7032   3.705   3.653   9.569 -1.9302 -0.1257  0.3175
   62CHL1   C10 7033   3.722   3.812   9.711 -0.5121 -0.7473 -0.6661
   62CHL1   C19 7034   3.773   3.954   9.730 -0.1945 -0.4961  0.2174
   62CHL1  H19A 7035   3.719   4.026   9.664  1.6610  1.0978  0.4036
   62CHL1  H19B 7036   3.746   3.982   9.834 -2.3721 -1.4304 -0.0638
   62CHL1  H19C 7037   3.882   3.970   9.717 -0.4817  3.0750  1.7473
   62CHL1    C1 7038   3.574   3.798   9.737  0.5159  0.3550 -0.8090
   62CHL1   H1A 7039   3.530   3.888   9.689  0.2716  1.3696  1.3004
   62CHL1   H1B 7040   3.535   3.706   9.688 -1.1175 -0.2580  1.5818
   62CHL1    C2 7041   3.525   3.801   9.881 -0.3760 -1.1301 -0.3318
   62CHL1   H2A 7042   3.418   3.771   9.879 -0.4894 -0.6842 -1.2652
   62CHL1   H2B 7043   3.543   3.904   9.916  2.8501 -0.5306 -3.4354
   62CHL1   C20 7044   3.896   3.754   9.027 -0.7138 -0.3975  0.1318
   62CHL1   H20 7045   3.916   3.862   9.044 -1.1451  0.0122 -1.9022
   62CHL1   C21 7046   3.749   3.718   8.981 -0.0793 -1.1112 -0.5059
   62CHL1  H21A 7047   3.742   3.784   8.892  2.2918  0.9834  0.8084
   62CHL1  H21B 7048   3.672   3.747   9.055 -1.1708 -2.6720 -0.9819
   62CHL1  H21C 7049   3.749   3.607   8.979 -1.9358 -1.0947 -1.8594
   62CHL1   C22 7050   4.004   3.717   8.923  0.1567 -0.3113  0.2408
   62CHL1  H22A 7051   4.101   3.735   8.974 -0.0342  0.5508  0.3085
   62CHL1  H22B 7052   4.000   3.606   8.914  0.3810 -0.0260 -5.2361
   62CHL1   C23 7053   3.999   3.795   8.799 -0.0663  0.3036 -0.0233
   62CHL1  H23A 7054   3.913   3.773   8.732 -1.6710  2.7702  1.1690
   62CHL1  H23B 7055   3.986   3.902   8.827 -0.7870  0.4250 -0.7952
   62CHL1   C24 7056   4.128   3.792   8.711 -0.1995  0.3085  0.6758
   62CHL1  H24A 7057   4.206   3.856   8.757  0.4612  0.1161 -0.1683
   62CHL1  H24B 7058   4.165   3.687   8.706  2.3123  1.2279 -1.4490
   62CHL1   C25 7059   4.104   3.839   8.565 -0.2438  0.1436 -0.2327
   62CHL1   H25 7060   4.048   3.753   8.521  2.8881 -2.0783  0.0024
   62CHL1   C26 7061   4.033   3.972   8.552 -0.4868 -0.1135 -0.5592
   62CHL1  H26A 7062   3.998   3.994   8.449  1.7818 -2.3488 -1.8509
   62CHL1  H26B 7063   3.952   3.989   8.627  0.5127 -0.9200  0.7177
   62CHL1  H26C 7064   4.109   4.044   8.590 -1.3739 -0.4921  2.0248
   62CHL1   C27 7065   4.233   3.853   8.492  0.3555  0.6221 -0.7987
   62CHL1  H27A 7066   4.283   3.756   8.472 -0.8276  0.3553 -2.5383
   62CHL1  H27B 7067   4.234   3.906   8.394  3.9842  2.1108 -0.0472
   62CHL1  H27C 7068   4.302   3.909   8.559  1.6701 -2.3877  0.4074
   63CHL1    C3 7069   5.262   5.007  10.519  0.3179 -0.1601  0.0543
   63CHL1    H3 7070   5.195   4.926  10.484 -2.0814  2.1161 -0.8185
   63CHL1    O3 7071   5.287   4.970  10.657 -0.0207  0.3463  0.1569
   63CHL1   H3' 7072   5.214   4.922  10.697 -0.1909  1.5904  1.3593
   63CHL1    C4 7073   5.393   5.033  10.443 -0.2758  0.5434  0.4329
   63CHL1   H4A 7074   5.444   5.117  10.494  0.4610 -1.0401  2.3577
   63CHL1   H4B 7075   5.458   4.944  10.455 -0.0044  0.8304  1.1157
   63CHL1    C5 7076   5.365   5.055  10.296 -0.6708 -0.2387 -0.4508
   63CHL1    C6 7077   5.408   4.973  10.194 -0.1008 -0.0639 -0.4742
   63CHL1    H6 7078   5.461   4.880  10.219 -2.2570 -1.1176  0.3612
   63CHL1    C7 7079   5.387   5.008  10.047 -0.4407 -0.6825  0.1663
   63CHL1   H7A 7080   5.483   5.008   9.991  0.1701 -0.3127  1.2087
   63CHL1   H7B 7081   5.322   4.929  10.002 -0.8150 -0.5322  0.4423
   63CHL1    C8 7082   5.330   5.147  10.025  0.6104  0.0650 -0.4148
   63CHL1    H8 7083   5.412   5.222  10.029 -0.5946  1.3356  1.1912
   63CHL1   C14 7084   5.265   5.155   9.890  0.5472  0.2913  0.2479
   63CHL1   H14 7085   5.176   5.090   9.901 -0.7059  1.7407 -1.1518
   63CHL1   C15 7086   5.327   5.089   9.764  0.2380 -0.1924 -0.8954
   63CHL1  H15A 7087   5.434   5.118   9.750  0.4746 -1.4834 -1.8423
   63CHL1  H15B 7088   5.322   4.979   9.778 -2.3247 -0.4320 -3.2689
   63CHL1   C16 7089   5.232   5.150   9.658  0.3509 -0.5987  0.2214
   63CHL1  H16A 7090   5.310   5.194   9.592  0.0024 -1.1158 -0.5454
   63CHL1  H16B 7091   5.174   5.080   9.594  0.2843  0.2811 -0.6964
   63CHL1   C17 7092   5.142   5.259   9.716  0.7784  0.1259  0.0451
   63CHL1   H17 7093   5.044   5.207   9.728  0.0332  1.0820 -1.6979
   63CHL1   C13 7094   5.203   5.288   9.855  0.9872  0.0940 -0.0644
   63CHL1   C18 7095   5.311   5.393   9.829  0.4393  0.8458 -0.0462
   63CHL1  H18A 7096   5.262   5.491   9.813  0.0971  0.5059 -1.0914
   63CHL1  H18B 7097   5.378   5.397   9.918 -1.4563 -0.6252  1.4914
   63CHL1  H18C 7098   5.374   5.376   9.739  0.1485  0.6677 -0.2156
   63CHL1   C12 7099   5.103   5.319   9.965  0.7536  1.2242  0.9486
   63CHL1  H12A 7100   5.057   5.419   9.944  0.0478  0.5820 -0.6713
   63CHL1  H12B 7101   5.017   5.250   9.948  0.8610  0.7740  2.1484
   63CHL1   C11 7102   5.165   5.313  10.105  0.0936 -0.4312 -0.6524
   63CHL1  H11A 7103   5.242   5.393  10.104 -0.1748 -0.1609  0.0843
   63CHL1  H11B 7104   5.095   5.345  10.185 -0.0739  0.2981 -1.0762
   63CHL1    C9 7105   5.225   5.178  10.134  0.6155  0.0004 -0.2433
   63CHL1    H9 7106   5.143   5.102  10.132  1.6658 -1.1378 -1.4278
   63CHL1   C10 7107   5.270   5.175  10.277 -0.2918  0.1078  0.2355
   63CHL1   C19 7108   5.362   5.298  10.303 -0.4338 -0.6238 -0.7406
   63CHL1  H19A 7109   5.414   5.298  10.401  1.4481  0.7124 -1.7160
   63CHL1  H19B 7110   5.437   5.311  10.223 -0.1206  0.4514 -0.2836
   63CHL1  H19C 7111   5.295   5.387  10.311 -1.7378 -1.7196  0.9727
   63CHL1    C1 7112   5.140   5.175  10.367 -0.4875  0.6872  0.3960
   63CHL1   H1A 7113   5.092   5.275  10.363 -0.5543  0.5726 -1.8152
   63CHL1   H1B 7114   5.069   5.097  10.331  1.8319 -1.5579  0.5077
   63CHL1    C2 7115   5.177   5.141  10.517 -0.0507 -0.8382  0.5466
   63CHL1   H2A 7116   5.084   5.134  10.579 -0.5176 -1.3288 -0.2086
   63CHL1   H2B 7117   5.238   5.220  10.565 -2.2936  2.3591 -1.6743
   63CHL1   C20 7118   5.116   5.375   9.608  0.2864 -0.3139  0.2330
   63CHL1   H20 7119   5.213   5.426   9.590  0.9455 -0.4208  3.1606
   63CHL1   C21 7120   5.014   5.478   9.668 -0.3079  0.1333 -0.1454
   63CHL1  H21A 7121   5.036   5.531   9.763 -1.4921 -0.4209  0.4474
   63CHL1  H21B 7122   4.918   5.423   9.680 -0.2870  0.3157  0.8810
   63CHL1  H21C 7123   4.988   5.564   9.602  0.6910 -0.2030 -0.9732
   63CHL1   C22 7124   5.046   5.309   9.487 -0.5748 -0.0396 -0.2003
   63CHL1  H22A 7125   5.115   5.229   9.452  2.3867  1.9825  0.7737
   63CHL1  H22B 7126   4.948   5.269   9.521 -0.3218 -2.0689 -1.7455
   63CHL1   C23 7127   5.042   5.403   9.361  0.1260  0.6419 -0.0255
   63CHL1  H23A 7128   4.980   5.487   9.398  0.4722  0.1824  1.6149
   63CHL1  H23B 7129   5.138   5.447   9.328  0.2031 -1.0381 -2.1979
   63CHL1   C24 7130   4.973   5.346   9.235 -0.4255  0.3015  0.1321
   63CHL1  H24A 7131   5.028   5.252   9.214 -1.3884 -0.4967  1.0904
   63CHL1  H24B 7132   4.868   5.316   9.259 -0.6981  0.4411 -0.8565
   63CHL1   C25 7133   4.961   5.451   9.116  0.4339  0.0081  0.5729
   63CHL1   H25 7134   5.057   5.504   9.099 -0.0014  0.5196 -0.3192
   63CHL1   C26 7135   4.933   5.360   8.989  0.7710  0.3148 -0.9108
   63CHL1  H26A 7136   4.840   5.303   9.013  1.1866  0.1063  0.2239
   63CHL1  H26B 7137   4.918   5.439   8.913 -0.6885  1.2960  0.3640
   63CHL1  H26C 7138   5.021   5.295   8.970 -0.1537 -0.9432 -1.0248
   63CHL1   C27 7139   4.847   5.555   9.151 -0.1646 -0.6020 -0.9324
   63CHL1  H27A 7140   4.816   5.616   9.063 -2.2375  0.0647  0.2211
   63CHL1  H27B 7141   4.755   5.503   9.184 -0.4053  0.3400 -0.1167
   63CHL1  H27C 7142   4.878   5.624   9.231 -0.2434 -1.6291 -0.0088
   64CHL1    C3 7143   4.261   4.636  10.004 -0.4429 -0.2910 -0.2254
   64CHL1    H3 7144   4.186   4.555   9.985 -1.6214  0.6266  0.4511
   64CHL1    O3 7145   4.284   4.662  10.141  0.2131  0.4527 -0.4005
   64CHL1   H3' 7146   4.241   4.747  10.155  1.9579  1.5864 -1.7737
   64CHL1    C4 7147   4.406   4.599   9.949  0.0782  0.2442 -0.0144
   64CHL1   H4A 7148   4.478   4.677   9.981 -1.0003  0.6599  1.4201
   64CHL1   H4B 7149   4.430   4.503   9.999  0.0897  1.2064  1.8816
   64CHL1    C5 7150   4.415   4.593   9.800  0.0898 -0.0274 -0.3022
   64CHL1    C6 7151   4.460   4.480   9.741  0.1048 -0.2925 -0.2915
   64CHL1    H6 7152   4.495   4.396   9.803 -0.3792 -1.1505 -1.1651
   64CHL1    C7 7153   4.453   4.456   9.597  0.3478  0.1002  0.4863
   64CHL1   H7A 7154   4.546   4.411   9.557 -0.7839 -2.4813  0.6675
   64CHL1   H7B 7155   4.373   4.382   9.576  0.0769  0.2440  1.0044
   64CHL1    C8 7156   4.440   4.592   9.513 -0.2497  0.7796 -0.5517
   64CHL1    H8 7157   4.538   4.646   9.514  0.2793 -0.1720  1.2563
   64CHL1   C14 7158   4.404   4.558   9.372 -0.1934  0.6508  0.9192
   64CHL1   H14 7159   4.298   4.524   9.371 -0.5756  1.8279  0.7694
   64CHL1   C15 7160   4.484   4.440   9.302  0.3492 -0.6338  0.4349
   64CHL1  H15A 7161   4.591   4.458   9.325  0.6154  1.4163 -2.1911
   64CHL1  H15B 7162   4.451   4.342   9.342 -2.1154  0.2961  0.8130
   64CHL1   C16 7163   4.466   4.473   9.154 -0.1384  0.1742 -0.2596
   64CHL1  H16A 7164   4.560   4.489   9.097  0.0044 -2.3553 -0.8177
   64CHL1  H16B 7165   4.413   4.393   9.096  1.6511  1.0984 -3.2752
   64CHL1   C17 7166   4.377   4.601   9.141  0.0591  0.0785  0.1957
   64CHL1   H17 7167   4.271   4.571   9.158 -0.3433  1.7168  0.6457
   64CHL1   C13 7168   4.393   4.682   9.277  0.5217  0.4536 -0.1139
   64CHL1   C18 7169   4.523   4.752   9.276  0.8136  0.2761  0.3231
   64CHL1  H18A 7170   4.527   4.818   9.187 -2.0602  0.9553  0.6434
   64CHL1  H18B 7171   4.546   4.807   9.369 -0.0332  3.0035 -1.0165
   64CHL1  H18C 7172   4.610   4.688   9.251  1.2407 -0.5236  3.6954
   64CHL1   C12 7173   4.278   4.770   9.335 -0.1127 -0.0236  0.2642
   64CHL1  H12A 7174   4.262   4.857   9.268  2.4893 -0.7392 -1.3623
   64CHL1  H12B 7175   4.186   4.708   9.340  1.2320 -1.9496  1.5946
   64CHL1   C11 7176   4.309   4.812   9.479 -0.7159  0.1918 -0.1143
   64CHL1  H11A 7177   4.402   4.872   9.487 -0.0433 -0.3861 -2.7695
   64CHL1  H11B 7178   4.215   4.863   9.508 -0.0898 -0.4052  3.1829
   64CHL1    C9 7179   4.332   4.684   9.567 -0.5027 -0.8785  0.6332
   64CHL1    H9 7180   4.228   4.648   9.552 -0.2989 -1.9643  1.7636
   64CHL1   C10 7181   4.355   4.709   9.718  0.2737 -0.8004  0.4773
   64CHL1   C19 7182   4.455   4.829   9.735 -0.8420  0.8722  0.0289
   64CHL1  H19A 7183   4.469   4.856   9.842 -2.5636  2.4440 -0.1013
   64CHL1  H19B 7184   4.553   4.803   9.690 -1.4524 -0.3224 -0.6360
   64CHL1  H19C 7185   4.419   4.923   9.688  2.7230  1.5169 -1.5402
   64CHL1    C1 7186   4.212   4.742   9.780 -0.6330 -0.6252 -0.9695
   64CHL1   H1A 7187   4.185   4.842   9.739 -0.2995  0.6347  1.7489
   64CHL1   H1B 7188   4.139   4.669   9.739  0.5427 -0.8360 -2.7534
   64CHL1    C2 7189   4.212   4.763   9.931  0.5940  0.0111  0.0890
   64CHL1   H2A 7190   4.115   4.802   9.968  1.3088  1.3933  0.5734
   64CHL1   H2B 7191   4.294   4.836   9.948  0.9797 -0.6011  0.8965
   64CHL1   C20 7192   4.379   4.677   9.000  0.5930 -0.8196 -0.2165
   64CHL1   H20 7193   4.487   4.702   8.991  0.8357 -2.5023 -2.2035
   64CHL1   C21 7194   4.319   4.813   9.006  0.8262  0.1242 -0.2617
   64CHL1  H21A 7195   4.214   4.800   9.039  0.6712  0.5706 -0.5828
   64CHL1  H21B 7196   4.325   4.865   8.908  0.4570  0.5780 -0.0399
   64CHL1  H21C 7197   4.376   4.880   9.074 -1.3654  2.4837 -0.7105
   64CHL1   C22 7198   4.331   4.594   8.887 -0.2977 -0.2745 -0.3532
   64CHL1  H22A 7199   4.350   4.484   8.887 -1.5670 -0.5024  0.5785
   64CHL1  H22B 7200   4.221   4.598   8.893 -0.1973  2.8438  0.1849
   64CHL1   C23 7201   4.369   4.637   8.737  0.0002  1.0553  0.1102
   64CHL1  H23A 7202   4.298   4.720   8.715 -1.2418 -0.3185 -1.1557
   64CHL1  H23B 7203   4.470   4.683   8.729 -0.5229  2.1411 -0.2702
   64CHL1   C24 7204   4.342   4.516   8.641 -0.2813 -0.7336  0.1137
   64CHL1  H24A 7205   4.394   4.428   8.685 -0.5968 -0.2332  1.5142
   64CHL1  H24B 7206   4.233   4.499   8.632 -0.4896  1.1324 -1.0635
   64CHL1   C25 7207   4.398   4.525   8.503 -0.2631 -0.3970 -0.8324
   64CHL1   H25 7208   4.508   4.511   8.515 -0.0031  2.0365 -0.0599
   64CHL1   C26 7209   4.360   4.404   8.414 -0.1303  0.3290  0.4579
   64CHL1  H26A 7210   4.250   4.403   8.398 -0.5704 -3.6945  2.9797
   64CHL1  H26B 7211   4.421   4.393   8.322  0.3296 -0.4934  0.8534
   64CHL1  H26C 7212   4.376   4.309   8.469 -2.4782 -0.7838 -0.7270
   64CHL1   C27 7213   4.364   4.652   8.428 -0.0647  0.0707  0.5643
   64CHL1  H27A 7214   4.392   4.653   8.320 -0.4205  1.3248  0.4796
   64CHL1  H27B 7215   4.254   4.657   8.420 -0.0370  1.6461  0.9899
   64CHL1  H27C 7216   4.410   4.744   8.471  0.4841  0.4742 -0.8253
   65CHL1    C3 7217   6.378   2.039  10.299 -0.1982  0.0449  0.0902
   65CHL1    H3 7218   6.316   2.131  10.290 -0.9825 -0.6503 -1.7146
   65CHL1    O3 7219   6.406   2.024  10.435  0.5775  0.0387 -0.4185
   65CHL1   H3' 7220   6.471   1.956  10.451  0.7848  0.9915  3.2387
   65CHL1    C4 7221   6.321   1.904  10.255 -0.0602  0.7261 -0.1051
   65CHL1   H4A 7222   6.394   1.826  10.285  1.0104  1.0129 -1.9020
   65CHL1   H4B 7223   6.226   1.897  10.313  1.0377  1.6164  1.8655
   65CHL1    C5 7224   6.303   1.893  10.105 -0.1721 -0.8041 -0.1214
   65CHL1    C6 7225   6.181   1.864  10.056  0.3371 -0.6434  0.2732
   65CHL1    H6 7226   6.095   1.841  10.122 -0.7667 -0.5903 -1.1196
   65CHL1    C7 7227   6.156   1.860   9.906  0.2499 -0.1915 -1.0598
   65CHL1   H7A 7228   6.090   1.773   9.884  1.9217 -1.7475 -0.0288
   65CHL1   H7B 7229   6.103   1.953   9.874 -1.2045 -0.4132  0.6237
   65CHL1    C8 7230   6.289   1.832   9.825 -0.6352 -0.6655  0.0395
   65CHL1    H8 7231   6.326   1.728   9.836 -1.5324 -1.0340 -0.3491
   65CHL1   C14 7232   6.262   1.857   9.676  0.2830  0.0950 -0.4852
   65CHL1   H14 7233   6.235   1.964   9.669 -0.0946 -0.1114 -2.7621
   65CHL1   C15 7234   6.153   1.764   9.610 -0.1758 -0.0545  1.2190
   65CHL1  H15A 7235   6.177   1.660   9.641  1.9763 -0.1997 -0.8592
   65CHL1  H15B 7236   6.051   1.794   9.642 -0.0302 -0.2386  1.8558
   65CHL1   C16 7237   6.190   1.767   9.462  0.6783 -0.3029  0.3627
   65CHL1  H16A 7238   6.222   1.673   9.413 -2.0739 -0.2868 -1.6183
   65CHL1  H16B 7239   6.100   1.798   9.404  0.0338 -0.2888  1.3589
   65CHL1   C17 7240   6.310   1.861   9.454 -0.0778 -0.0745 -0.4686
   65CHL1   H17 7241   6.277   1.966   9.445  1.9777  0.6356 -0.0187
   65CHL1   C13 7242   6.382   1.845   9.588 -0.4770  0.3340  0.2928
   65CHL1   C18 7243   6.448   1.702   9.583  0.2353 -0.5645 -0.4225
   65CHL1  H18A 7244   6.497   1.682   9.680  0.6576 -0.0179 -0.5244
   65CHL1  H18B 7245   6.370   1.625   9.561 -0.1561 -0.4676  0.5960
   65CHL1  H18C 7246   6.520   1.700   9.499  0.6818  0.2293 -0.0592
   65CHL1   C12 7247   6.483   1.953   9.627 -0.4003  0.1026 -0.2531
   65CHL1  H12A 7248   6.571   1.960   9.559  0.0027 -1.8724  0.0365
   65CHL1  H12B 7249   6.418   2.043   9.619 -0.8649  0.0860  2.8180
   65CHL1   C11 7250   6.527   1.929   9.774  0.3246 -0.1728  0.9669
   65CHL1  H11A 7251   6.583   1.834   9.785  1.6808  0.5661  0.6262
   65CHL1  H11B 7252   6.607   1.999   9.805  0.9504 -0.6178  0.3855
   65CHL1    C9 7253   6.405   1.925   9.874 -0.2830  0.0020 -0.8965
   65CHL1    H9 7254   6.360   2.027   9.872  0.4856  0.4091  1.4662
   65CHL1   C10 7255   6.433   1.913  10.027  0.0096 -0.6425  0.1744
   65CHL1   C19 7256   6.537   1.808  10.048 -0.4128  0.2191 -0.6618
   65CHL1  H19A 7257   6.557   1.802  10.157 -0.8237 -0.1293 -0.6042
   65CHL1  H19B 7258   6.506   1.713   9.999  1.8537 -0.4435 -0.8607
   65CHL1  H19C 7259   6.634   1.838  10.002  1.8707 -2.0881  2.4092
   65CHL1    C1 7260   6.502   2.045  10.074  0.3021 -0.3517 -0.2378
   65CHL1   H1A 7261   6.603   2.043  10.027 -0.2425 -0.7909 -1.4167
   65CHL1   H1B 7262   6.454   2.140  10.040  0.7423 -1.2018 -3.3851
   65CHL1    C2 7263   6.513   2.059  10.230 -0.1839  0.1504  0.2827
   65CHL1   H2A 7264   6.546   2.162  10.256  0.2406 -0.6217  3.0297
   65CHL1   H2B 7265   6.584   1.985  10.273  0.5055  0.4020 -0.4135
   65CHL1   C20 7266   6.383   1.820   9.316 -0.2682  0.0077 -0.4712
   65CHL1   H20 7267   6.407   1.712   9.322  1.0951  0.3532  0.6725
   65CHL1   C21 7268   6.518   1.896   9.295 -0.4134 -0.0022  0.1038
   65CHL1  H21A 7269   6.508   2.006   9.310  0.9186  0.4698 -2.1124
   65CHL1  H21B 7270   6.564   1.886   9.194  0.3457  0.8023  0.3669
   65CHL1  H21C 7271   6.599   1.861   9.362  0.9275  1.5364 -0.6797
   65CHL1   C22 7272   6.296   1.836   9.191 -0.5736  1.2234 -0.0650
   65CHL1  H22A 7273   6.224   1.752   9.198 -0.0701  0.9021  1.3819
   65CHL1  H22B 7274   6.251   1.937   9.196 -1.4896  0.8205 -0.1952
   65CHL1   C23 7275   6.360   1.816   9.056  0.5927 -0.1907  0.0942
   65CHL1  H23A 7276   6.435   1.887   9.014 -1.6671  2.2628  0.1237
   65CHL1  H23B 7277   6.419   1.722   9.054  0.7953 -0.0501 -2.4476
   65CHL1   C24 7278   6.251   1.806   8.945 -1.0943 -0.1981 -0.3883
   65CHL1  H24A 7279   6.167   1.743   8.981 -2.4358  1.8280  0.1297
   65CHL1  H24B 7280   6.195   1.902   8.932 -1.0749 -0.2583 -0.9185
   65CHL1   C25 7281   6.304   1.759   8.813 -0.8535  0.0722  0.5915
   65CHL1   H25 7282   6.396   1.813   8.785 -1.6558  0.9599 -0.3554
   65CHL1   C26 7283   6.325   1.609   8.808 -0.2980  0.1622 -0.2627
   65CHL1  H26A 7284   6.395   1.573   8.886  0.8739 -2.0283 -2.2734
   65CHL1  H26B 7285   6.224   1.568   8.832  0.5388 -1.2154  0.9215
   65CHL1  H26C 7286   6.360   1.577   8.708 -2.0209  1.1025 -1.1986
   65CHL1   C27 7287   6.216   1.793   8.695  0.2484  0.4836  0.0967
   65CHL1  H27A 7288   6.267   1.777   8.598  0.6703  1.0848  0.2164
   65CHL1  H27B 7289   6.116   1.744   8.700  1.3969 -1.9172  0.3383
   65CHL1  H27C 7290   6.189   1.901   8.695 -1.8669  0.0133  1.8503
   66CHL1    C3 7291   4.796   6.741  10.592 -0.0897 -0.0332 -0.7915
   66CHL1    H3 7292   4.690   6.768  10.608 -0.8065 -3.6795  1.3424
   66CHL1    O3 7293   4.861   6.740  10.720  0.1301  0.0244  0.5896
   66CHL1   H3' 7294   4.877   6.833  10.737  2.1410 -0.2438  0.2320
   66CHL1    C4 7295   4.780   6.605  10.522 -0.1232  0.1799  0.8058
   66CHL1   H4A 7296   4.874   6.546  10.529 -0.8323 -0.9608  1.0523
   66CHL1   H4B 7297   4.711   6.545  10.586  0.9095  1.8081  3.5308
   66CHL1    C5 7298   4.734   6.598  10.382  0.1482 -0.5914 -0.9100
   66CHL1    C6 7299   4.632   6.513  10.339 -0.6364  0.4474  0.2904
   66CHL1    H6 7300   4.584   6.442  10.407 -0.1448  0.3690  0.5588
   66CHL1    C7 7301   4.583   6.499  10.197  0.2186  0.5987  0.1233
   66CHL1   H7A 7302   4.581   6.391  10.170  2.0912  1.1267 -2.4114
   66CHL1   H7B 7303   4.479   6.534  10.188 -0.1869 -0.2923  1.2325
   66CHL1    C8 7304   4.666   6.585  10.091  0.2349  0.0017  0.7931
   66CHL1    H8 7305   4.756   6.524  10.064  1.0763  1.4995  0.1715
   66CHL1   C14 7306   4.579   6.614   9.972  0.5759  0.2797 -0.0783
   66CHL1   H14 7307   4.492   6.676  10.002 -2.9012 -2.8907 -3.0407
   66CHL1   C15 7308   4.514   6.496   9.894 -0.5808 -0.4901 -0.0939
   66CHL1  H15A 7309   4.588   6.416   9.873 -1.0199 -1.2232  1.0684
   66CHL1  H15B 7310   4.432   6.446   9.950  0.1400  0.0394  1.4804
   66CHL1   C16 7311   4.475   6.562   9.757 -0.3684  0.8875  0.3378
   66CHL1  H16A 7312   4.530   6.504   9.679 -0.8785 -0.2726  0.8359
   66CHL1  H16B 7313   4.368   6.542   9.735 -0.1070 -1.6277  1.1485
   66CHL1   C17 7314   4.522   6.708   9.761 -0.2486  0.1300 -0.2678
   66CHL1   H17 7315   4.445   6.777   9.802 -0.2411  0.4250 -0.7491
   66CHL1   C13 7316   4.639   6.710   9.863  0.2830 -0.3125 -0.7704
   66CHL1   C18 7317   4.773   6.645   9.806  0.3184  0.6293  0.5376
   66CHL1  H18A 7318   4.832   6.727   9.760  0.9850 -1.3164 -2.2114
   66CHL1  H18B 7319   4.838   6.598   9.883  1.0738  1.9688  0.7356
   66CHL1  H18C 7320   4.759   6.564   9.732 -1.8403  0.6254  0.9130
   66CHL1   C12 7321   4.668   6.839   9.934  0.2738  0.3079  0.6474
   66CHL1  H12A 7322   4.718   6.921   9.878  0.1287  0.3899  0.6389
   66CHL1  H12B 7323   4.577   6.879   9.984  0.8375  2.4520  0.0056
   66CHL1   C11 7324   4.767   6.816  10.055  0.0720 -0.4384 -0.2436
   66CHL1  H11A 7325   4.870   6.795  10.020 -1.2724 -2.8430 -2.9449
   66CHL1  H11B 7326   4.776   6.913  10.108 -0.9461 -0.2913 -0.3377
   66CHL1    C9 7327   4.711   6.710  10.158  0.2520  0.0431 -0.6277
   66CHL1    H9 7328   4.617   6.755  10.197  1.0850 -0.3368  1.8630
   66CHL1   C10 7329   4.803   6.693  10.281 -0.3760  0.4098  1.0404
   66CHL1   C19 7330   4.947   6.652  10.246  0.3826 -0.2498  0.6232
   66CHL1  H19A 7331   5.003   6.729  10.190  1.5423 -1.0583  0.6580
   66CHL1  H19B 7332   5.002   6.639  10.341  3.0527 -1.8117 -1.0606
   66CHL1  H19C 7333   4.944   6.557  10.188  2.6493  0.8719 -1.3783
   66CHL1    C1 7334   4.812   6.833  10.358  0.3922  0.0217 -0.0683
   66CHL1   H1A 7335   4.878   6.902  10.301  1.4927 -1.8453 -1.1508
   66CHL1   H1B 7336   4.714   6.882  10.376  0.9122  0.5217  1.4186
   66CHL1    C2 7337   4.882   6.823  10.496  0.0648 -0.5662 -0.5634
   66CHL1   H2A 7338   4.892   6.922  10.547 -0.8098  0.2403 -1.9437
   66CHL1   H2B 7339   4.979   6.769  10.490  0.1119 -0.4835 -0.5482
   66CHL1   C20 7340   4.549   6.754   9.616 -0.4470 -0.4174 -1.1851
   66CHL1   H20 7341   4.638   6.700   9.575 -0.1039 -0.5195 -0.3075
   66CHL1   C21 7342   4.594   6.910   9.599  0.1463 -0.8613  0.3883
   66CHL1  H21A 7343   4.517   6.979   9.639  1.0558  0.9942 -1.0267
   66CHL1  H21B 7344   4.612   6.935   9.492 -0.7373  2.3221  0.9290
   66CHL1  H21C 7345   4.687   6.928   9.655 -0.6293  1.9743  0.8301
   66CHL1   C22 7346   4.432   6.732   9.514  0.4238 -0.0649 -0.3295
   66CHL1  H22A 7347   4.457   6.774   9.415 -0.9762  1.5060 -0.0536
   66CHL1  H22B 7348   4.427   6.623   9.495  2.3238 -0.0141 -1.1855
   66CHL1   C23 7349   4.301   6.789   9.558  0.2396 -0.2287  0.4020
   66CHL1  H23A 7350   4.274   6.772   9.664 -0.5392  3.1592  0.7920
   66CHL1  H23B 7351   4.319   6.898   9.543 -0.8900 -0.0571  0.2742
   66CHL1   C24 7352   4.179   6.746   9.472  0.5390  0.8458 -0.3446
   66CHL1  H24A 7353   4.187   6.787   9.370  0.2039 -2.4729 -1.7922
   66CHL1  H24B 7354   4.175   6.637   9.450 -2.1568  0.8691 -0.1572
   66CHL1   C25 7355   4.044   6.793   9.526  0.6016  0.3274  0.1876
   66CHL1   H25 7356   3.966   6.755   9.457  0.9033 -1.6199  0.8831
   66CHL1   C26 7357   3.998   6.724   9.662  0.0418  0.2694  0.2709
   66CHL1  H26A 7358   3.889   6.746   9.671 -0.3645  0.4075 -4.0250
   66CHL1  H26B 7359   4.011   6.614   9.649 -0.1942  0.5877 -3.2388
   66CHL1  H26C 7360   4.060   6.755   9.748  0.1688  2.0789 -0.4574
   66CHL1   C27 7361   4.022   6.941   9.523 -0.0089 -0.2725 -0.2932
   66CHL1  H27A 7362   4.026   6.983   9.421 -3.2805  0.0462 -0.3626
   66CHL1  H27B 7363   3.922   6.957   9.569 -0.5696 -2.1415 -0.8413
   66CHL1  H27C 7364   4.102   6.996   9.578 -1.6182  1.7616  0.0744
   67CHL1    C3 7365   1.601   0.343  10.237 -0.4202 -0.1528  0.1680
   67CHL1    H3 7366   1.648   0.247  10.208  1.3798  0.8205 -0.2244
   67CHL1    O3 7367   1.568   0.345  10.373 -0.4359 -0.1511 -0.0313
   67CHL1   H3' 7368   1.614   0.417  10.417  3.6102 -1.1052 -2.3985
   67CHL1    C4 7369   1.701   0.455  10.198 -0.1212 -0.0562  0.1610
   67CHL1   H4A 7370   1.657   0.546  10.244 -0.6093 -0.5240  0.6271
   67CHL1   H4B 7371   1.794   0.433  10.254 -0.9121 -1.4229  0.9496
   67CHL1    C5 7372   1.721   0.481  10.057 -0.3456  0.2219 -0.2859
   67CHL1    C6 7373   1.849   0.494  10.005 -0.9184 -0.3798  0.4391
   67CHL1    H6 7374   1.939   0.482  10.066 -0.0004  0.5644 -0.7111
   67CHL1    C7 7375   1.884   0.528   9.865 -0.2822  0.3392 -0.6215
   67CHL1   H7A 7376   1.964   0.604   9.861 -0.0625  0.1630  0.3071
   67CHL1   H7B 7377   1.928   0.437   9.819  0.9328 -1.3558  3.6632
   67CHL1    C8 7378   1.755   0.577   9.788 -1.0931 -0.2767 -0.9512
   67CHL1    H8 7379   1.724   0.678   9.820 -3.1640 -1.1767 -0.0219
   67CHL1   C14 7380   1.790   0.567   9.646 -0.3587 -0.7509  0.0132
   67CHL1   H14 7381   1.805   0.459   9.623 -0.7482 -0.3927 -1.9814
   67CHL1   C15 7382   1.925   0.633   9.601 -0.3575  0.7357 -0.1020
   67CHL1  H15A 7383   1.944   0.732   9.646  2.2003  0.7688 -1.1520
   67CHL1  H15B 7384   2.012   0.568   9.624 -0.9028  0.4650  1.2379
   67CHL1   C16 7385   1.909   0.669   9.453  0.3347  0.6894  0.4089
   67CHL1  H16A 7386   1.926   0.777   9.437 -0.3597  0.8533  0.7456
   67CHL1  H16B 7387   1.979   0.620   9.382  0.0311 -0.8587  1.1527
   67CHL1   C17 7388   1.757   0.626   9.416 -0.0778 -0.4445  0.2809
   67CHL1   H17 7389   1.753   0.521   9.380 -0.4586  0.1680 -1.4704
   67CHL1   C13 7390   1.681   0.621   9.553 -0.1902  0.3088 -0.2206
   67CHL1   C18 7391   1.633   0.764   9.588 -0.0446  0.2614  0.2961
   67CHL1  H18A 7392   1.552   0.804   9.523 -0.2282  1.2773  1.1413
   67CHL1  H18B 7393   1.587   0.779   9.688  1.1687 -0.4653  0.9663
   67CHL1  H18C 7394   1.715   0.839   9.592  0.7482 -0.6251  0.6984
   67CHL1   C12 7395   1.570   0.521   9.563 -0.6535 -0.8408  0.0369
   67CHL1  H12A 7396   1.481   0.546   9.502 -1.1231  0.0225  1.0553
   67CHL1  H12B 7397   1.607   0.418   9.543 -0.6628 -0.0190 -4.7140
   67CHL1   C11 7398   1.522   0.519   9.713 -0.4215 -0.3364 -0.4637
   67CHL1  H11A 7399   1.464   0.609   9.739 -0.6247 -0.3748 -0.7729
   67CHL1  H11B 7400   1.450   0.435   9.708  2.1613 -2.6355 -0.7679
   67CHL1    C9 7401   1.628   0.492   9.819 -0.0106 -0.3798 -0.4694
   67CHL1    H9 7402   1.657   0.386   9.806 -1.1938 -0.6350 -1.1021
   67CHL1   C10 7403   1.591   0.491   9.973  0.8498 -0.4205  0.2731
   67CHL1   C19 7404   1.502   0.615  10.007  0.1544  0.1316  0.3075
   67CHL1  H19A 7405   1.398   0.606   9.969 -0.0458 -1.4140  1.2003
   67CHL1  H19B 7406   1.494   0.620  10.118 -2.3324  0.3598  0.1492
   67CHL1  H19C 7407   1.542   0.713   9.971  3.2829 -0.3772  2.1806
   67CHL1    C1 7408   1.509   0.367  10.010  0.4372  0.3215 -0.0717
   67CHL1   H1A 7409   1.416   0.368   9.949 -0.3263 -1.2290  1.0566
   67CHL1   H1B 7410   1.558   0.272   9.979 -1.0079 -0.0551 -1.2635
   67CHL1    C2 7411   1.477   0.359  10.154 -0.1016  0.9960 -0.3021
   67CHL1   H2A 7412   1.421   0.264  10.169 -0.2527  1.2926  1.0970
   67CHL1   H2B 7413   1.405   0.438  10.186 -2.1552  0.4429 -3.3464
   67CHL1   C20 7414   1.707   0.728   9.313 -0.2364  0.5598  1.0062
   67CHL1   H20 7415   1.710   0.827   9.364  1.6358 -0.0172  2.0514
   67CHL1   C21 7416   1.562   0.677   9.277 -0.0068 -0.3339 -0.6150
   67CHL1  H21A 7417   1.535   0.727   9.182 -1.7729  0.8770  0.5024
   67CHL1  H21B 7418   1.489   0.709   9.354  0.6161  0.2705 -0.2688
   67CHL1  H21C 7419   1.570   0.567   9.262  2.2262 -0.8287  3.4452
   67CHL1   C22 7420   1.802   0.742   9.186  0.0912  0.1087  0.0193
   67CHL1  H22A 7421   1.903   0.776   9.216  0.0205 -0.0266  0.4235
   67CHL1  H22B 7422   1.821   0.642   9.143  0.9943  0.8113 -1.2296
   67CHL1   C23 7423   1.748   0.849   9.092  0.5888 -0.0507  0.1467
   67CHL1  H23A 7424   1.658   0.806   9.043  0.2568 -0.6129  1.2328
   67CHL1  H23B 7425   1.713   0.932   9.157 -1.9978 -2.4256  1.9605
   67CHL1   C24 7426   1.840   0.890   8.980  0.1552 -0.1851  0.0606
   67CHL1  H24A 7427   1.932   0.928   9.029 -1.4489  1.8040  1.6269
   67CHL1  H24B 7428   1.869   0.810   8.909 -2.9560  1.0072 -2.7058
   67CHL1   C25 7429   1.789   1.014   8.907  0.3221  0.0416 -0.4827
   67CHL1   H25 7430   1.769   1.101   8.973 -0.2866 -0.1118 -0.4696
   67CHL1   C26 7431   1.888   1.056   8.796 -0.5331 -0.7195  0.3224
   67CHL1  H26A 7432   1.876   0.989   8.709  0.0543  1.2287 -1.2964
   67CHL1  H26B 7433   1.869   1.159   8.760  2.6893 -0.8900 -2.1725
   67CHL1  H26C 7434   1.996   1.038   8.817 -0.3694 -1.5312 -1.1541
   67CHL1   C27 7435   1.654   0.985   8.840  0.4384 -0.3954 -0.1506
   67CHL1  H27A 7436   1.664   0.893   8.778  2.3413 -0.2638 -0.0609
   67CHL1  H27B 7437   1.581   0.964   8.921 -1.7773  1.3762 -1.6197
   67CHL1  H27C 7438   1.614   1.063   8.772  1.0381  1.1393  1.2316
   68CHL1    C3 7439   0.257   1.332  10.260 -0.2808 -0.1780  0.2699
   68CHL1    H3 7440   0.316   1.422  10.232 -0.6429 -0.0233 -0.0089
   68CHL1    O3 7441   0.267   1.322  10.402  0.4172  0.0045  0.5526
   68CHL1   H3' 7442   0.213   1.244  10.418  2.1534 -1.2038  0.6823
   68CHL1    C4 7443   0.108   1.358  10.223 -0.4315 -0.0960  0.2403
   68CHL1   H4A 7444   0.051   1.272  10.265  2.9753 -2.0130  1.1151
   68CHL1   H4B 7445   0.075   1.446  10.283 -1.5638 -0.8706  0.7597
   68CHL1    C5 7446   0.075   1.375  10.077 -0.1148  0.4150  0.3730
   68CHL1    C6 7447   0.003   1.480  10.030 -0.0042 -0.1327 -0.3389
   68CHL1    H6 7448  -0.053   1.556  10.086 -0.7107  0.1741 -1.4474
   68CHL1    C7 7449  -0.013   1.502   9.886 -0.8360  0.1110 -0.0456
   68CHL1   H7A 7450  -0.116   1.539   9.862 -0.9497  0.5149  1.0775
   68CHL1   H7B 7451   0.052   1.589   9.865 -1.4154  0.9236  1.4557
   68CHL1    C8 7452   0.014   1.382   9.792  0.6362  0.0618 -0.2263
   68CHL1    H8 7453  -0.068   1.307   9.803  2.0893 -1.8031 -1.7926
   68CHL1   C14 7454   0.030   1.424   9.651 -0.1633  0.4352  0.2916
   68CHL1   H14 7455   0.124   1.484   9.650  0.5309 -0.5638  2.4016
   68CHL1   C15 7456  -0.091   1.502   9.596  0.1041  0.4803 -0.5719
   68CHL1  H15A 7457  -0.174   1.464   9.660  2.4544 -0.4293  2.0702
   68CHL1  H15B 7458  -0.080   1.610   9.622  1.7690 -0.5392  3.3793
   68CHL1   C16 7459  -0.087   1.480   9.441  0.2067  0.3699 -0.3239
   68CHL1  H16A 7460  -0.185   1.445   9.402  0.8458  0.1349 -1.7537
   68CHL1  H16B 7461  -0.045   1.558   9.375  2.3990  0.2920  0.9202
   68CHL1   C17 7462   0.034   1.386   9.413  0.2007 -0.8472 -0.0785
   68CHL1   H17 7463   0.124   1.450   9.405 -0.4625 -0.1279 -2.1901
   68CHL1   C13 7464   0.050   1.311   9.546 -0.5352  0.1216 -0.0230
   68CHL1   C18 7465  -0.067   1.206   9.556  0.6199 -0.3589  0.4610
   68CHL1  H18A 7466  -0.164   1.254   9.531  0.3072 -0.6645  1.0793
   68CHL1  H18B 7467  -0.052   1.121   9.487  1.7631 -0.9152  1.3696
   68CHL1  H18C 7468  -0.074   1.172   9.662 -1.7270 -1.4598 -0.0327
   68CHL1   C12 7469   0.180   1.239   9.586 -0.1719  0.2820  0.6582
   68CHL1  H12A 7470   0.215   1.146   9.536 -1.2653 -1.2214  2.5722
   68CHL1  H12B 7471   0.257   1.319   9.581  1.1747 -0.9734  0.9109
   68CHL1   C11 7472   0.178   1.195   9.739 -0.7479  1.0215  0.1316
   68CHL1  H11A 7473   0.104   1.112   9.745 -0.1721  0.4129 -0.8493
   68CHL1  H11B 7474   0.283   1.159   9.744 -0.2403  2.1320 -1.7154
   68CHL1    C9 7475   0.143   1.308   9.841  0.4740 -1.0010 -0.0407
   68CHL1    H9 7476   0.222   1.387   9.846 -0.0975 -0.4526  0.3868
   68CHL1   C10 7477   0.139   1.262   9.990 -0.6194  0.3734 -0.6754
   68CHL1   C19 7478   0.048   1.132  10.017 -0.0337 -1.1654 -0.2483
   68CHL1  H19A 7479  -0.059   1.160  10.003 -0.4655 -3.0920 -0.9822
   68CHL1  H19B 7480   0.082   1.045   9.957  1.3689 -0.9120  0.1642
   68CHL1  H19C 7481   0.067   1.096  10.120  0.9806 -0.6581 -0.2601
   68CHL1    C1 7482   0.293   1.242  10.045  0.5210  0.0011  0.2603
   68CHL1   H1A 7483   0.350   1.169   9.983 -0.5298  0.3601 -1.1730
   68CHL1   H1B 7484   0.341   1.340  10.027 -1.0047  1.4829  3.9328
   68CHL1    C2 7485   0.311   1.214  10.190 -0.1638 -0.2873 -0.1315
   68CHL1   H2A 7486   0.417   1.200  10.219  0.1157  2.0903  0.1333
   68CHL1   H2B 7487   0.253   1.127  10.227 -0.8434  0.3329  0.2985
   68CHL1   C20 7488   0.034   1.306   9.276  0.0655 -0.5310 -0.1182
   68CHL1   H20 7489  -0.055   1.240   9.281 -0.4701  0.3218  2.2831
   68CHL1   C21 7490   0.161   1.222   9.262  0.5796 -0.0418 -0.1235
   68CHL1  H21A 7491   0.173   1.141   9.338 -0.7309 -2.7294 -2.6797
   68CHL1  H21B 7492   0.258   1.275   9.270  1.5770 -1.8700  0.2366
   68CHL1  H21C 7493   0.152   1.173   9.163  1.5273  1.9403 -1.2219
   68CHL1   C22 7494   0.007   1.388   9.147 -0.0131 -0.4699 -0.6117
   68CHL1  H22A 7495  -0.000   1.321   9.059 -1.2116 -1.6035  0.3264
   68CHL1  H22B 7496  -0.094   1.431   9.164 -0.0160 -1.2904  1.6612
   68CHL1   C23 7497   0.096   1.509   9.117 -0.1971  0.0695  0.4843
   68CHL1  H23A 7498   0.088   1.584   9.198  3.2889  1.9229 -0.7593
   68CHL1  H23B 7499   0.202   1.473   9.112  0.3991  1.7920  0.5151
   68CHL1   C24 7500   0.055   1.566   8.986  0.0777  0.4208  0.2932
   68CHL1  H24A 7501   0.147   1.616   8.949  1.5455 -1.8832  0.7608
   68CHL1  H24B 7502   0.030   1.480   8.921  3.1756 -0.4954  0.2565
   68CHL1   C25 7503  -0.056   1.671   8.994  0.2727  0.2620 -0.5450
   68CHL1   H25 7504  -0.120   1.639   9.080 -2.2491  0.6653 -2.2098
   68CHL1   C26 7505   0.002   1.810   9.023  0.2005  0.1293  0.2292
   68CHL1  H26A 7506  -0.076   1.884   9.049  0.2976  0.5004 -0.5050
   68CHL1  H26B 7507   0.081   1.817   9.101 -0.0048 -1.3450  0.5846
   68CHL1  H26C 7508   0.052   1.861   8.937 -0.3869  0.9872  0.3959
   68CHL1   C27 7509  -0.144   1.690   8.869 -0.1943  0.2510 -0.7673
   68CHL1  H27A 7510  -0.198   1.598   8.840  0.6960  0.5164 -3.3686
   68CHL1  H27B 7511  -0.211   1.779   8.875 -1.2603 -0.4328 -2.3167
   68CHL1  H27C 7512  -0.075   1.719   8.787 -1.8569  0.1234 -2.2478
   69CHL1    C3 7513   5.137   5.909   6.773 -0.0957  0.3157 -0.0875
   69CHL1    H3 7514   5.237   5.957   6.774 -0.0856  0.3010 -0.4596
   69CHL1    O3 7515   5.112   5.876   6.640  0.4734  0.4002 -0.0356
   69CHL1   H3' 7516   5.142   5.951   6.588  0.8301 -0.4709 -1.0928
   69CHL1    C4 7517   5.128   5.776   6.848  0.0667  0.1887 -0.1524
   69CHL1   H4A 7518   5.030   5.727   6.827  0.1657  1.3344 -3.6413
   69CHL1   H4B 7519   5.201   5.707   6.802  2.5068  2.0923  0.7855
   69CHL1    C5 7520   5.160   5.796   6.996  0.4977 -0.2594 -0.0044
   69CHL1    C6 7521   5.255   5.730   7.060 -0.0087 -0.6244 -0.0432
   69CHL1    H6 7522   5.322   5.661   7.007  1.4658  0.6180  0.1580
   69CHL1    C7 7523   5.267   5.740   7.209  0.5192 -0.0371  0.9103
   69CHL1   H7A 7524   5.277   5.638   7.252  0.9480 -0.4253 -0.0735
   69CHL1   H7B 7525   5.357   5.802   7.228 -0.2652  1.9034 -1.5135
   69CHL1    C8 7526   5.142   5.804   7.275  0.0811 -0.2952 -1.0067
   69CHL1    H8 7527   5.055   5.736   7.266 -0.4479  0.2797 -0.3028
   69CHL1   C14 7528   5.164   5.831   7.420  1.2535 -0.3946 -0.6610
   69CHL1   H14 7529   5.241   5.911   7.433 -0.7273  1.3852  0.3899
   69CHL1   C15 7530   5.218   5.713   7.508 -0.1494  0.1915  0.9216
   69CHL1  H15A 7531   5.171   5.618   7.473 -0.5232 -1.3534  5.2443
   69CHL1  H15B 7532   5.326   5.724   7.485  0.6542 -2.9533  2.8532
   69CHL1   C16 7533   5.184   5.742   7.652  0.0097  0.5428 -0.1744
   69CHL1  H16A 7534   5.110   5.664   7.682  1.0300 -0.8343 -1.1767
   69CHL1  H16B 7535   5.275   5.738   7.715 -0.8370  0.5157  1.0585
   69CHL1   C17 7536   5.112   5.881   7.642 -0.2294 -0.7441  0.0833
   69CHL1   H17 7537   5.200   5.948   7.635 -2.4456  2.0896 -1.5272
   69CHL1   C13 7538   5.049   5.883   7.492  0.9351  0.3547 -0.0252
   69CHL1   C18 7539   4.932   5.786   7.496  1.1464  0.6920  0.2233
   69CHL1  H18A 7540   4.961   5.679   7.494 -3.4281 -0.7004  1.1396
   69CHL1  H18B 7541   4.858   5.804   7.577  0.7958 -2.8731  0.7926
   69CHL1  H18C 7542   4.874   5.805   7.403 -0.2101  1.2308  1.1724
   69CHL1   C12 7543   5.014   6.016   7.433 -0.2884 -0.3086  0.3370
   69CHL1  H12A 7544   4.927   6.059   7.487 -0.0890  0.4720  0.0348
   69CHL1  H12B 7545   5.105   6.074   7.459 -1.6433  1.3348  1.5055
   69CHL1   C11 7546   4.994   6.011   7.285  0.2308 -0.6266  0.1380
   69CHL1  H11A 7547   4.888   5.977   7.282 -0.7962  2.2190  2.2286
   69CHL1  H11B 7548   4.989   6.110   7.235 -3.0288 -0.8816 -0.1766
   69CHL1    C9 7549   5.102   5.930   7.206  0.3673  0.5220 -0.1288
   69CHL1    H9 7550   5.188   6.002   7.208  0.0373  0.9269 -0.5408
   69CHL1   C10 7551   5.064   5.900   7.059  0.2308  0.2131  0.8749
   69CHL1   C19 7552   4.918   5.841   7.059  0.2963  0.0979  0.0523
   69CHL1  H19A 7553   4.843   5.915   7.093 -1.0708 -0.0930 -2.3550
   69CHL1  H19B 7554   4.891   5.813   6.955  0.8159 -0.5198  0.0800
   69CHL1  H19C 7555   4.903   5.741   7.105  1.4233  0.7477  1.8712
   69CHL1    C1 7556   5.059   6.034   6.978  0.0366  0.0479 -0.5969
   69CHL1   H1A 7557   4.969   6.088   7.013 -0.3483  0.2215 -1.8359
   69CHL1   H1B 7558   5.146   6.102   6.987  1.7333 -1.7771 -2.6589
   69CHL1    C2 7559   5.038   6.014   6.829 -0.8404  0.1034 -0.4070
   69CHL1   H2A 7560   5.064   6.111   6.782  2.0583 -0.3914  0.1038
   69CHL1   H2B 7561   4.934   5.984   6.803 -0.3207 -1.9679 -0.1272
   69CHL1   C20 7562   5.032   5.917   7.775 -0.5376 -0.1965 -0.0965
   69CHL1   H20 7563   4.945   5.847   7.781 -0.1417 -0.6901 -0.0856
   69CHL1   C21 7564   4.992   6.068   7.753 -0.2035 -0.5914 -0.5185
   69CHL1  H21A 7565   4.972   6.099   7.858 -1.6275  1.0860 -1.2600
   69CHL1  H21B 7566   4.897   6.092   7.700  0.0522 -0.1667 -0.7885
   69CHL1  H21C 7567   5.075   6.131   7.714  0.3225 -0.9190  0.0709
   69CHL1   C22 7568   5.109   5.899   7.908 -0.5630 -0.3941 -0.0602
   69CHL1  H22A 7569   5.173   5.808   7.919 -2.1585 -1.3064  2.2653
   69CHL1  H22B 7570   5.167   5.990   7.935  0.9149 -0.5809 -2.5002
   69CHL1   C23 7571   4.997   5.870   8.012  0.5496 -0.0828  0.7986
   69CHL1  H23A 7572   4.938   5.962   8.032 -1.4396 -1.4263  1.3306
   69CHL1  H23B 7573   4.929   5.788   7.979  0.7669 -0.1605  0.5426
   69CHL1   C24 7574   5.065   5.831   8.152 -0.2160  0.4606  0.0735
   69CHL1  H24A 7575   5.132   5.917   8.175  1.6388 -0.0581 -3.1401
   69CHL1  H24B 7576   4.980   5.820   8.223 -0.0715 -1.1438  0.0137
   69CHL1   C25 7577   5.157   5.714   8.162 -0.1137 -0.5200  0.2634
   69CHL1   H25 7578   5.237   5.728   8.086 -0.2608 -0.2889  0.1491
   69CHL1   C26 7579   5.224   5.694   8.294  0.4819  0.2837 -0.4889
   69CHL1  H26A 7580   5.153   5.679   8.378  0.1086 -0.1147 -0.8711
   69CHL1  H26B 7581   5.286   5.601   8.296 -0.6379 -0.4467  1.3729
   69CHL1  H26C 7582   5.293   5.779   8.315 -1.2283  1.0370  2.3341
   69CHL1   C27 7583   5.081   5.584   8.126 -0.0054  0.3568 -0.6563
   69CHL1  H27A 7584   5.033   5.591   8.026 -0.0747  1.1770 -0.5639
   69CHL1  H27B 7585   5.151   5.497   8.130 -1.2288 -0.6000  0.3064
   69CHL1  H27C 7586   4.992   5.578   8.192  0.8405 -1.2664  0.3889
   70CHL1    C3 7587   4.507   2.209   7.214 -0.0514  0.7458 -0.3944
   70CHL1    H3 7588   4.460   2.108   7.214  0.2758  0.5918 -0.1630
   70CHL1    O3 7589   4.493   2.232   7.075  0.2292  0.2443 -0.2258
   70CHL1   H3' 7590   4.521   2.320   7.052 -1.4110  0.8153 -0.1134
   70CHL1    C4 7591   4.418   2.301   7.298 -0.7968  0.4537 -0.0323
   70CHL1   H4A 7592   4.441   2.404   7.266  0.2190 -0.5277 -2.5341
   70CHL1   H4B 7593   4.315   2.295   7.258 -0.8256  1.9371 -0.2038
   70CHL1    C5 7594   4.427   2.285   7.452  0.3973 -0.1373 -0.3088
   70CHL1    C6 7595   4.309   2.287   7.523 -0.2348 -0.4472  1.2622
   70CHL1    H6 7596   4.210   2.295   7.476  0.1832  1.5365  0.6776
   70CHL1    C7 7597   4.316   2.270   7.674  0.0651  0.1329  0.3168
   70CHL1   H7A 7598   4.235   2.333   7.718  0.5644  1.3314 -0.4669
   70CHL1   H7B 7599   4.287   2.164   7.692  0.8253  0.0992  1.3662
   70CHL1    C8 7600   4.458   2.288   7.738  0.5700  0.4334 -0.6697
   70CHL1    H8 7601   4.476   2.397   7.747 -1.4602  0.6883  0.8780
   70CHL1   C14 7602   4.465   2.235   7.883  0.3114  0.4681 -0.3608
   70CHL1   H14 7603   4.457   2.124   7.881  2.5184  0.3033 -2.7104
   70CHL1   C15 7604   4.355   2.284   7.978  0.0801  0.3762 -0.3218
   70CHL1  H15A 7605   4.334   2.393   7.975  0.1040  0.3730 -0.6244
   70CHL1  H15B 7606   4.262   2.229   7.953 -0.1709  0.0482  1.2623
   70CHL1   C16 7607   4.412   2.269   8.118  0.6580 -0.1911  0.0444
   70CHL1  H16A 7608   4.410   2.367   8.171  1.3530 -0.6474  0.9082
   70CHL1  H16B 7609   4.352   2.198   8.178 -1.1984 -0.5785 -2.2046
   70CHL1   C17 7610   4.554   2.208   8.096  0.1196 -0.1950  0.0600
   70CHL1   H17 7611   4.548   2.098   8.082 -0.7041 -0.0592 -0.6930
   70CHL1   C13 7612   4.595   2.270   7.959 -0.4563 -0.1001 -0.5427
   70CHL1   C18 7613   4.609   2.421   7.962  0.1980 -0.1354 -0.5742
   70CHL1  H18A 7614   4.630   2.470   7.865 -0.2021  1.1632 -0.0210
   70CHL1  H18B 7615   4.524   2.467   8.017 -0.0247  0.5531 -1.4818
   70CHL1  H18C 7616   4.706   2.440   8.014 -0.2354  0.6742 -0.0405
   70CHL1   C12 7617   4.709   2.194   7.877  0.0298  0.1411  0.3822
   70CHL1  H12A 7618   4.812   2.215   7.912 -0.2274 -2.4281  2.9099
   70CHL1  H12B 7619   4.694   2.086   7.900 -0.8788 -0.4028 -2.6061
   70CHL1   C11 7620   4.706   2.232   7.729 -0.6173 -0.1245  0.2514
   70CHL1  H11A 7621   4.733   2.339   7.713  0.6680 -0.9961 -4.0862
   70CHL1  H11B 7622   4.782   2.174   7.672  0.9424 -0.0348  2.1965
   70CHL1    C9 7623   4.568   2.222   7.654  0.1897 -0.0727 -0.0612
   70CHL1    H9 7624   4.540   2.114   7.663 -1.3445  0.5220  2.9025
   70CHL1   C10 7625   4.564   2.271   7.511 -0.0734  1.1533  0.1610
   70CHL1   C19 7626   4.617   2.416   7.507  0.4083  0.4094 -0.3452
   70CHL1  H19A 7627   4.727   2.421   7.523 -0.0425 -0.0338  3.3516
   70CHL1  H19B 7628   4.613   2.453   7.403 -0.5270  1.0723 -0.0838
   70CHL1  H19C 7629   4.568   2.488   7.576  0.4612 -0.0985  0.2333
   70CHL1    C1 7630   4.662   2.183   7.422 -0.1875  0.7416  0.1580
   70CHL1   H1A 7631   4.766   2.196   7.456  0.0553  1.4434 -0.8340
   70CHL1   H1B 7632   4.628   2.079   7.441 -1.7423  0.9109 -1.4723
   70CHL1    C2 7633   4.649   2.201   7.263 -0.8768 -0.1538  0.2350
   70CHL1   H2A 7634   4.704   2.114   7.221  1.0072  1.9319 -1.7473
   70CHL1   H2B 7635   4.705   2.295   7.242  2.1765 -1.0265  3.7104
   70CHL1   C20 7636   4.639   2.240   8.217 -0.2792 -0.0898 -0.4631
   70CHL1   H20 7637   4.644   2.350   8.231  0.1425  0.1327 -2.1532
   70CHL1   C21 7638   4.778   2.186   8.200 -0.3385  0.0747 -0.0849
   70CHL1  H21A 7639   4.841   2.206   8.289  0.1209 -2.0860  0.0864
   70CHL1  H21B 7640   4.826   2.235   8.112 -0.9242  0.3402 -0.2604
   70CHL1  H21C 7641   4.773   2.076   8.193 -0.2264 -0.0021  0.9816
   70CHL1   C22 7642   4.565   2.183   8.348 -0.1493  0.0826  0.0242
   70CHL1  H22A 7643   4.473   2.242   8.366  0.1360  0.2362  1.0028
   70CHL1  H22B 7644   4.536   2.080   8.320  0.1017 -0.8843  3.1775
   70CHL1   C23 7645   4.648   2.180   8.478  1.2752 -0.2592  0.0754
   70CHL1  H23A 7646   4.601   2.135   8.568  0.4883  0.8666  0.2354
   70CHL1  H23B 7647   4.744   2.125   8.469  0.9802 -0.7931  0.1218
   70CHL1   C24 7648   4.690   2.319   8.536 -0.3252  0.0004 -0.6401
   70CHL1  H24A 7649   4.780   2.357   8.484 -1.2079  2.3469 -0.4893
   70CHL1  H24B 7650   4.604   2.388   8.528  1.1074  1.6851 -1.6681
   70CHL1   C25 7651   4.722   2.317   8.685  0.4786 -0.0547 -0.5457
   70CHL1   H25 7652   4.628   2.291   8.740  1.3829  0.5666  1.3542
   70CHL1   C26 7653   4.804   2.198   8.735 -0.1606 -0.5174 -0.4744
   70CHL1  H26A 7654   4.910   2.226   8.717 -0.3221  0.4421  0.0570
   70CHL1  H26B 7655   4.784   2.174   8.842  0.3165 -0.5205 -0.3822
   70CHL1  H26C 7656   4.782   2.104   8.680 -0.3862 -1.0949  0.5898
   70CHL1   C27 7657   4.775   2.443   8.756 -0.4623 -0.3097 -0.6375
   70CHL1  H27A 7658   4.701   2.526   8.753  0.7613  0.7359 -2.8410
   70CHL1  H27B 7659   4.798   2.422   8.863 -0.1435 -1.6796 -0.9762
   70CHL1  H27C 7660   4.865   2.491   8.711 -0.1246 -0.5570 -0.2313
   71CHL1    C3 7661   4.185   4.597   6.669 -0.3908 -1.0690 -0.7829
   71CHL1    H3 7662   4.261   4.524   6.704 -0.7768 -0.8280  0.5662
   71CHL1    O3 7663   4.187   4.615   6.531  0.4796  0.3205  0.4616
   71CHL1   H3' 7664   4.106   4.665   6.516  1.6911  1.9603 -0.8606
   71CHL1    C4 7665   4.045   4.552   6.715  0.3322  0.1074  0.0446
   71CHL1   H4A 7666   3.970   4.626   6.680  0.9922  1.1965  0.9280
   71CHL1   H4B 7667   4.020   4.458   6.661 -0.4268  1.7701 -2.6014
   71CHL1    C5 7668   4.022   4.556   6.862 -0.0506 -0.1013 -0.8672
   71CHL1    C6 7669   3.967   4.455   6.928 -0.2610 -0.0823  1.0403
   71CHL1    H6 7670   3.934   4.364   6.876 -2.2757  1.5118 -0.5742
   71CHL1    C7 7671   3.937   4.446   7.075  0.6147 -0.0664 -0.3212
   71CHL1   H7A 7672   3.830   4.423   7.095  0.1183 -0.7065 -3.4913
   71CHL1   H7B 7673   3.992   4.362   7.123 -0.2329  0.2721  1.2784
   71CHL1    C8 7674   3.963   4.581   7.149 -0.1168 -0.2654  1.1174
   71CHL1    H8 7675   3.866   4.633   7.132 -1.0886 -1.7536  2.0460
   71CHL1   C14 7676   3.982   4.568   7.290  0.6292  0.2512 -0.6785
   71CHL1   H14 7677   4.082   4.521   7.296  0.6861  0.6514  2.6986
   71CHL1   C15 7678   3.896   4.474   7.379  0.0239  0.0376  0.2764
   71CHL1  H15A 7679   3.790   4.492   7.351  0.2973  1.7924  0.3502
   71CHL1  H15B 7680   3.924   4.369   7.357  0.0450 -0.1673  1.2817
   71CHL1   C16 7681   3.921   4.511   7.525  0.0844  0.6371 -0.0460
   71CHL1  H16A 7682   3.823   4.536   7.570  0.1819  2.8713 -1.0114
   71CHL1  H16B 7683   3.974   4.437   7.589 -2.1537  0.8764  2.1303
   71CHL1   C17 7684   4.013   4.636   7.525 -0.8121  0.3476 -0.7782
   71CHL1   H17 7685   4.118   4.599   7.535 -0.9398  0.6210  2.2106
   71CHL1   C13 7686   3.999   4.690   7.377 -0.3581  0.6960  0.2951
   71CHL1   C18 7687   3.866   4.773   7.373 -0.0966 -0.5721  0.5948
   71CHL1  H18A 7688   3.781   4.717   7.417 -1.8672  2.5015  1.2782
   71CHL1  H18B 7689   3.883   4.865   7.433 -1.0371  2.6281 -3.8157
   71CHL1  H18C 7690   3.846   4.804   7.268 -1.0437  0.9227  1.1998
   71CHL1   C12 7691   4.111   4.771   7.323 -0.1055 -0.1420  0.6653
   71CHL1  H12A 7692   4.099   4.871   7.370 -0.9741  0.8262 -1.5802
   71CHL1  H12B 7693   4.210   4.728   7.351  0.3990  1.5032  1.4632
   71CHL1   C11 7694   4.109   4.785   7.168 -1.0794 -0.3149  0.5844
   71CHL1  H11A 7695   4.019   4.851   7.165 -0.6659  0.2183 -0.5866
   71CHL1  H11B 7696   4.199   4.838   7.130 -0.9716 -1.4802 -0.8312
   71CHL1    C9 7697   4.077   4.657   7.089 -0.0209 -0.0662  0.4749
   71CHL1    H9 7698   4.159   4.583   7.100 -0.2789 -1.2843 -4.6238
   71CHL1   C10 7699   4.063   4.687   6.934  0.1593  0.7004 -0.3055
   71CHL1   C19 7700   3.959   4.804   6.908  0.1190 -0.3747 -0.3472
   71CHL1  H19A 7701   3.864   4.784   6.962 -0.7199  2.3629 -0.7669
   71CHL1  H19B 7702   4.005   4.901   6.935  0.4952 -0.8777  0.8220
   71CHL1  H19C 7703   3.937   4.806   6.799 -1.8474  1.9204  0.0528
   71CHL1    C1 7704   4.206   4.724   6.880  0.2716 -0.0902 -0.6137
   71CHL1   H1A 7705   4.234   4.825   6.918 -2.2402 -0.2593  1.8080
   71CHL1   H1B 7706   4.277   4.644   6.909  0.8900  0.0803 -1.6300
   71CHL1    C2 7707   4.217   4.728   6.727 -0.1127 -0.1547 -0.0287
   71CHL1   H2A 7708   4.319   4.764   6.698  0.5442 -1.2967  0.8275
   71CHL1   H2B 7709   4.148   4.806   6.690  2.2906  1.7191 -0.7394
   71CHL1   C20 7710   3.985   4.733   7.643 -0.3552 -0.2650  0.4983
   71CHL1   H20 7711   3.889   4.789   7.630  0.6009  1.0981 -0.7796
   71CHL1   C21 7712   4.104   4.844   7.659  0.5861  0.0040 -0.1536
   71CHL1  H21A 7713   4.108   4.910   7.569 -0.0729 -0.5816 -0.6210
   71CHL1  H21B 7714   4.202   4.797   7.679  0.4874 -0.8110 -1.5209
   71CHL1  H21C 7715   4.082   4.912   7.744  1.9256 -0.9212  0.9375
   71CHL1   C22 7716   3.976   4.651   7.778  0.5429  0.7736 -0.6274
   71CHL1  H22A 7717   3.930   4.550   7.773  2.6329 -0.1627 -1.4684
   71CHL1  H22B 7718   4.081   4.627   7.803  0.8202  1.5180 -1.0504
   71CHL1   C23 7719   3.902   4.720   7.900  0.7761  0.4202  0.7895
   71CHL1  H23A 7720   3.952   4.819   7.910  0.9732  0.4259 -0.1998
   71CHL1  H23B 7721   3.797   4.721   7.863  0.9404 -0.9942  0.2732
   71CHL1   C24 7722   3.906   4.649   8.034  0.3877  0.3127 -0.0325
   71CHL1  H24A 7723   3.808   4.679   8.077  1.5728  1.9102  1.6276
   71CHL1  H24B 7724   3.886   4.543   8.008 -0.3774  0.2462  0.8020
   71CHL1   C25 7725   4.024   4.653   8.130  0.4951 -0.5060 -0.0129
   71CHL1   H25 7726   4.110   4.625   8.066 -1.0688 -1.2878 -1.8304
   71CHL1   C26 7727   4.038   4.789   8.191 -0.0726 -0.3515 -0.0281
   71CHL1  H26A 7728   3.948   4.814   8.250 -0.1986 -0.4476 -0.1786
   71CHL1  H26B 7729   4.131   4.782   8.251 -0.0883 -2.6001 -0.2053
   71CHL1  H26C 7730   4.058   4.868   8.115  0.4251  0.1880  0.6663
   71CHL1   C27 7731   4.000   4.551   8.241  0.8082  0.2139 -0.2850
   71CHL1  H27A 7732   3.908   4.573   8.300  0.9109 -1.6716  0.5985
   71CHL1  H27B 7733   3.982   4.453   8.194  0.6565 -0.4868  1.2110
   71CHL1  H27C 7734   4.088   4.539   8.308  0.7063 -0.5389 -0.2857
   72CHL1    C3 7735   4.350   2.764   7.066  0.0601  0.0211 -0.2363
   72CHL1    H3 7736   4.254   2.815   7.042 -1.2644 -2.7553 -1.0238
   72CHL1    O3 7737   4.415   2.733   6.943 -0.5479  0.5624  0.0123
   72CHL1   H3' 7738   4.438   2.815   6.899  2.2043 -0.0786  0.1726
   72CHL1    C4 7739   4.439   2.875   7.131 -0.2616  0.4328  0.4256
   72CHL1   H4A 7740   4.543   2.834   7.135 -0.2620  0.6022  2.3495
   72CHL1   H4B 7741   4.438   2.960   7.060  0.0050  0.2541  0.2033
   72CHL1    C5 7742   4.405   2.911   7.274 -0.1124 -0.0772 -0.0920
   72CHL1    C6 7743   4.384   3.036   7.321 -0.4530  0.1164  0.2954
   72CHL1    H6 7744   4.408   3.114   7.247  0.8101 -0.4494  0.1020
   72CHL1    C7 7745   4.361   3.079   7.464  0.4714  0.9275  0.1188
   72CHL1   H7A 7746   4.425   3.162   7.500  2.2998 -0.5219  0.2813
   72CHL1   H7B 7747   4.258   3.102   7.500  0.6560 -2.6153  3.1633
   72CHL1    C8 7748   4.398   2.955   7.556 -0.1225 -1.0880 -0.1408
   72CHL1    H8 7749   4.508   2.944   7.557 -0.2541 -2.7915 -1.1131
   72CHL1   C14 7750   4.346   2.984   7.700  0.0389  0.9974  0.1123
   72CHL1   H14 7751   4.236   2.988   7.686  0.0598 -1.9026 -1.3596
   72CHL1   C15 7752   4.386   3.115   7.773 -0.9984 -1.2755  0.0817
   72CHL1  H15A 7753   4.489   3.146   7.746 -1.0976 -0.8013  0.2499
   72CHL1  H15B 7754   4.307   3.188   7.745 -0.0920 -0.2649  0.1521
   72CHL1   C16 7755   4.390   3.078   7.926 -0.1887  0.0043 -0.4531
   72CHL1  H16A 7756   4.492   3.068   7.968 -0.4869  0.4859  0.4201
   72CHL1  H16B 7757   4.332   3.160   7.974  1.8499  0.1636  1.8338
   72CHL1   C17 7758   4.324   2.935   7.936 -0.4997 -0.2326  0.3960
   72CHL1   H17 7759   4.218   2.965   7.921  0.0655  0.8273 -1.6237
   72CHL1   C13 7760   4.360   2.866   7.801 -0.2291  0.0488 -0.2522
   72CHL1   C18 7761   4.511   2.823   7.801 -0.1240 -0.3231  0.7404
   72CHL1  H18A 7762   4.547   2.804   7.698  0.3124  0.0895  0.8138
   72CHL1  H18B 7763   4.573   2.910   7.832 -2.3755  0.8679  2.0182
   72CHL1  H18C 7764   4.540   2.750   7.880 -0.5884  0.0419  1.2583
   72CHL1   C12 7765   4.274   2.754   7.747  0.5957  0.4933  0.6296
   72CHL1  H12A 7766   4.284   2.675   7.825  2.1779  0.4302  0.3890
   72CHL1  H12B 7767   4.168   2.780   7.728  0.7418 -1.0302 -2.6444
   72CHL1   C11 7768   4.335   2.713   7.608 -0.0875 -0.5635  0.0952
   72CHL1  H11A 7769   4.431   2.661   7.626 -0.6949 -1.2676  1.3206
   72CHL1  H11B 7770   4.267   2.628   7.584  1.5061 -1.4330 -1.4670
   72CHL1    C9 7771   4.335   2.826   7.508  0.9663  0.1631  0.2398
   72CHL1    H9 7772   4.228   2.852   7.491  0.8646  0.7903  1.7658
   72CHL1   C10 7773   4.382   2.782   7.365 -0.7553 -0.4497  0.3195
   72CHL1   C19 7774   4.522   2.729   7.383 -0.5482 -0.1057  0.0216
   72CHL1  H19A 7775   4.515   2.633   7.439  0.9047 -1.3588 -1.9059
   72CHL1  H19B 7776   4.585   2.714   7.293 -1.1515  1.2852 -0.6516
   72CHL1  H19C 7777   4.573   2.804   7.448  2.0216  0.5586 -2.6673
   72CHL1    C1 7778   4.285   2.680   7.301  0.3722 -0.0929 -0.5147
   72CHL1   H1A 7779   4.291   2.587   7.363  0.0051 -0.0208 -0.3716
   72CHL1   H1B 7780   4.186   2.729   7.304  1.7852  2.8507  0.1230
   72CHL1    C2 7781   4.323   2.641   7.158  0.5359 -0.1219 -0.6403
   72CHL1   H2A 7782   4.248   2.578   7.106 -0.5527  0.1376  0.5929
   72CHL1   H2B 7783   4.422   2.590   7.157 -0.0044 -1.2373  0.9372
   72CHL1   C20 7784   4.345   2.859   8.063  0.1916  0.3283 -0.0146
   72CHL1   H20 7785   4.444   2.808   8.060 -1.0195 -2.0563  0.0081
   72CHL1   C21 7786   4.246   2.743   8.069 -0.0522 -0.1784  0.6300
   72CHL1  H21A 7787   4.212   2.732   8.174  0.8709  1.2949  1.0993
   72CHL1  H21B 7788   4.278   2.642   8.033 -2.0293 -1.1792  1.6266
   72CHL1  H21C 7789   4.158   2.769   8.008 -0.4074 -0.3806  1.0587
   72CHL1   C22 7790   4.335   2.938   8.202  0.0744 -0.3725 -0.7128
   72CHL1  H22A 7791   4.379   3.040   8.202 -0.4477 -0.1342 -0.0162
   72CHL1  H22B 7792   4.224   2.947   8.206  0.1758 -0.1125  3.0642
   72CHL1   C23 7793   4.397   2.861   8.314 -0.2503 -0.6621 -0.1782
   72CHL1  H23A 7794   4.435   2.768   8.267 -3.5427 -1.4743 -1.4127
   72CHL1  H23B 7795   4.467   2.923   8.373 -1.7297  0.7090  0.1754
   72CHL1   C24 7796   4.301   2.813   8.428  0.2219  0.3619 -1.0593
   72CHL1  H24A 7797   4.225   2.893   8.438 -0.5865 -0.3845 -1.1177
   72CHL1  H24B 7798   4.238   2.736   8.378 -2.1716 -0.1972  2.5890
   72CHL1   C25 7799   4.352   2.761   8.559 -0.4962  0.0682  0.8302
   72CHL1   H25 7800   4.266   2.714   8.611 -1.0091  0.0107 -0.0497
   72CHL1   C26 7801   4.459   2.658   8.543  0.3156 -0.5337 -0.5542
   72CHL1  H26A 7802   4.415   2.561   8.511  0.0145  0.3952 -3.1211
   72CHL1  H26B 7803   4.518   2.689   8.454 -1.2944  0.4157 -1.3320
   72CHL1  H26C 7804   4.519   2.643   8.635 -0.4402 -2.3079 -0.3330
   72CHL1   C27 7805   4.417   2.874   8.636 -0.1174 -0.1938  0.8304
   72CHL1  H27A 7806   4.466   2.845   8.732  2.7169 -3.5092 -1.4644
   72CHL1  H27B 7807   4.494   2.933   8.580  0.6070  2.0845  4.0502
   72CHL1  H27C 7808   4.337   2.947   8.659  1.0347  0.7821  1.8496
   73CHL1    C3 7809   3.990   6.288   6.903  0.3955  0.1341 -0.4098
   73CHL1    H3 7810   3.888   6.331   6.898  0.4812  0.3407 -0.4214
   73CHL1    O3 7811   4.037   6.294   6.769  0.2370 -0.0225  0.4194
   73CHL1   H3' 7812   4.124   6.253   6.777 -0.0749 -0.9797 -0.9305
   73CHL1    C4 7813   4.082   6.370   7.003 -0.4362  0.1304 -0.4840
   73CHL1   H4A 7814   4.190   6.346   6.996 -0.2407  0.3948  1.3459
   73CHL1   H4B 7815   4.091   6.477   6.974 -0.5351 -0.0424 -1.1697
   73CHL1    C5 7816   4.053   6.346   7.152 -0.7686  0.2887 -0.0684
   73CHL1    C6 7817   4.045   6.451   7.240 -0.5671 -0.4782 -0.0283
   73CHL1    H6 7818   4.071   6.548   7.194  3.1443 -0.5916  1.7289
   73CHL1    C7 7819   4.029   6.449   7.392  0.3861 -0.7025  0.5693
   73CHL1   H7A 7820   4.110   6.511   7.438  0.1514  1.9404 -2.4230
   73CHL1   H7B 7821   3.934   6.490   7.435 -0.0632  1.6622 -2.5184
   73CHL1    C8 7822   4.048   6.298   7.435 -0.0011  0.4142  0.0689
   73CHL1    H8 7823   4.156   6.271   7.432 -0.2767 -0.7842  0.7308
   73CHL1   C14 7824   3.994   6.299   7.580 -0.3920 -0.2393  0.0313
   73CHL1   H14 7825   3.886   6.323   7.572 -0.7461 -1.4887  0.9299
   73CHL1   C15 7826   4.054   6.402   7.676  0.1843  0.0782  0.0332
   73CHL1  H15A 7827   4.164   6.401   7.661  0.4058  0.9693  1.4483
   73CHL1  H15B 7828   4.025   6.509   7.666  1.0123  0.3536  0.5391
   73CHL1   C16 7829   4.017   6.342   7.817 -0.3929  0.5104 -0.0638
   73CHL1  H16A 7830   4.108   6.336   7.881  0.0031 -0.1239 -0.6762
   73CHL1  H16B 7831   3.945   6.413   7.862 -0.9395 -0.6489  0.9226
   73CHL1   C17 7832   3.958   6.200   7.787 -0.1857 -0.7082  0.2727
   73CHL1   H17 7833   3.851   6.218   7.765  0.7074  2.2221 -2.1249
   73CHL1   C13 7834   4.006   6.165   7.646 -0.0927 -0.3168 -0.0360
   73CHL1   C18 7835   4.149   6.104   7.649  0.5649  1.0659  0.5768
   73CHL1  H18A 7836   4.187   6.070   7.550  0.1409  2.3608 -0.0464
   73CHL1  H18B 7837   4.221   6.170   7.701 -0.2438  2.0864  0.4138
   73CHL1  H18C 7838   4.138   6.006   7.699 -2.6104  0.2411 -1.5167
   73CHL1   C12 7839   3.917   6.070   7.565 -0.6956  0.0545 -0.6122
   73CHL1  H12A 7840   3.921   5.967   7.608  0.0012 -0.2585 -1.4073
   73CHL1  H12B 7841   3.812   6.106   7.564 -0.1602  1.6359 -0.1393
   73CHL1   C11 7842   3.956   6.065   7.414  0.6406 -0.1521 -0.5689
   73CHL1  H11A 7843   4.050   6.007   7.399  0.3557 -0.9882  0.8676
   73CHL1  H11B 7844   3.876   6.003   7.367 -0.6622  0.4782  0.8129
   73CHL1    C9 7845   3.968   6.203   7.342 -0.8222 -0.1068 -0.2471
   73CHL1    H9 7846   3.861   6.235   7.337 -1.6983 -2.7824  0.6040
   73CHL1   C10 7847   4.022   6.200   7.197 -0.1193  0.0033  1.2117
   73CHL1   C19 7848   4.167   6.133   7.199  0.1593 -0.6368 -0.7142
   73CHL1  H19A 7849   4.244   6.173   7.269 -0.1622 -0.0894 -0.6674
   73CHL1  H19B 7850   4.152   6.024   7.218 -2.0588 -0.0446  1.1869
   73CHL1  H19C 7851   4.199   6.134   7.093  0.0715  1.4974 -0.7394
   73CHL1    C1 7852   3.917   6.134   7.102 -0.8796 -0.0483  0.1517
   73CHL1   H1A 7853   3.906   6.025   7.121  2.4047 -0.1982  1.7388
   73CHL1   H1B 7854   3.817   6.180   7.100 -0.7826  0.1107 -2.2375
   73CHL1    C2 7855   3.962   6.147   6.950  0.0643  0.2378  0.2891
   73CHL1   H2A 7856   3.884   6.094   6.891  0.8534 -0.2864 -0.3067
   73CHL1   H2B 7857   4.055   6.087   6.940 -0.5402 -0.5774 -0.5002
   73CHL1   C20 7858   3.972   6.111   7.907  0.8655 -0.3012 -0.2111
   73CHL1   H20 7859   4.079   6.092   7.932  0.9474 -0.3984 -0.6291
   73CHL1   C21 7860   3.906   5.974   7.882  0.4721 -0.9875 -0.7683
   73CHL1  H21A 7861   3.965   5.924   7.803  2.2038  0.9386 -0.7439
   73CHL1  H21B 7862   3.801   5.992   7.849  0.6215 -1.3414 -1.4350
   73CHL1  H21C 7863   3.894   5.926   7.982 -2.4577 -3.0496 -2.0463
   73CHL1   C22 7864   3.912   6.183   8.032  0.5893  0.7460 -0.3710
   73CHL1  H22A 7865   3.966   6.279   8.048 -0.8589  1.8830 -2.1387
   73CHL1  H22B 7866   3.812   6.228   8.014  0.3529  1.5381  2.6655
   73CHL1   C23 7867   3.933   6.117   8.173  0.5111  0.0640 -0.3323
   73CHL1  H23A 7868   3.881   6.176   8.252  1.7322  1.3866 -0.4993
   73CHL1  H23B 7869   3.899   6.012   8.173 -0.0458  0.2379 -0.3593
   73CHL1   C24 7870   4.081   6.126   8.208  0.4615 -0.0852  0.2250
   73CHL1  H24A 7871   4.127   6.035   8.165  0.9654  2.0868 -4.1448
   73CHL1  H24B 7872   4.126   6.207   8.147  0.2461  1.1292  1.6424
   73CHL1   C25 7873   4.117   6.139   8.362  0.0702 -0.9601  0.1509
   73CHL1   H25 7874   4.057   6.059   8.411 -3.2930 -0.7228 -3.3848
   73CHL1   C26 7875   4.260   6.095   8.382  0.1100 -0.5698  0.1168
   73CHL1  H26A 7876   4.273   5.990   8.347 -0.3706 -0.0651 -1.6397
   73CHL1  H26B 7877   4.333   6.166   8.338 -1.0214  1.2582  1.1824
   73CHL1  H26C 7878   4.266   6.094   8.493 -0.8689  0.6904  0.1888
   73CHL1   C27 7879   4.097   6.276   8.424 -0.4038 -0.3661  0.2065
   73CHL1  H27A 7880   4.012   6.327   8.374  1.0879 -1.2555 -3.3937
   73CHL1  H27B 7881   4.075   6.261   8.532  0.0083 -0.1053  0.3274
   73CHL1  H27C 7882   4.180   6.346   8.401 -1.4948  0.8835  0.0664
   74CHL1    C3 7883   3.625   5.146   6.976 -0.1342 -0.6260  0.1587
   74CHL1    H3 7884   3.657   5.041   6.958  0.3888 -0.4558  0.0998
   74CHL1    O3 7885   3.575   5.192   6.851 -0.0384 -0.7544  0.0674
   74CHL1   H3' 7886   3.637   5.161   6.784 -0.7070  0.5935 -1.2238
   74CHL1    C4 7887   3.513   5.164   7.081 -0.4340 -0.0363  0.0792
   74CHL1   H4A 7888   3.485   5.271   7.076 -0.7982  0.0012  2.3747
   74CHL1   H4B 7889   3.427   5.101   7.050  0.2643 -0.4218 -1.0992
   74CHL1    C5 7890   3.558   5.150   7.230 -0.4193  0.1483 -0.1133
   74CHL1    C6 7891   3.498   5.065   7.315 -0.2955  0.4027  0.0154
   74CHL1    H6 7892   3.419   4.994   7.288  0.3827  0.5520 -2.5806
   74CHL1    C7 7893   3.534   5.044   7.456 -0.0104 -0.2133 -0.4256
   74CHL1   H7A 7894   3.436   5.040   7.509 -0.5813 -1.1297 -1.5356
   74CHL1   H7B 7895   3.577   4.943   7.472 -1.7666 -0.7112  1.3096
   74CHL1    C8 7896   3.638   5.150   7.500 -0.6562  0.7051 -0.2613
   74CHL1    H8 7897   3.580   5.243   7.524 -0.8337 -0.2565  3.3230
   74CHL1   C14 7898   3.691   5.103   7.634  0.3712  0.1591  0.4892
   74CHL1   H14 7899   3.749   5.013   7.605 -0.0525 -0.4144  1.4092
   74CHL1   C15 7900   3.595   5.070   7.749 -0.1996  0.4041 -0.3139
   74CHL1  H15A 7901   3.517   5.149   7.756  0.2260  0.9602 -1.7574
   74CHL1  H15B 7902   3.557   4.966   7.742  2.2351 -0.6182  1.1288
   74CHL1   C16 7903   3.685   5.070   7.874 -0.7024  0.8231 -0.6533
   74CHL1  H16A 7904   3.652   5.152   7.941  1.0595  1.0992 -0.0759
   74CHL1  H16B 7905   3.700   4.971   7.923 -2.0736  0.7900 -0.2730
   74CHL1   C17 7906   3.825   5.127   7.829 -0.0510  0.1491 -0.2748
   74CHL1   H17 7907   3.883   5.034   7.809 -1.6252 -1.1622  1.1396
   74CHL1   C13 7908   3.805   5.196   7.691  0.9475 -0.5338 -0.7981
   74CHL1   C18 7909   3.749   5.337   7.712 -0.5833 -1.0447  0.1932
   74CHL1  H18A 7910   3.817   5.408   7.762 -1.3435  0.2158 -0.5298
   74CHL1  H18B 7911   3.726   5.384   7.613 -0.9077 -1.8066 -0.0965
   74CHL1  H18C 7912   3.647   5.343   7.755 -0.7710 -4.2786  0.3258
   74CHL1   C12 7913   3.921   5.199   7.594  0.7430 -0.3658 -0.3599
   74CHL1  H12A 7914   4.000   5.271   7.624  0.9420  0.9153 -3.7446
   74CHL1  H12B 7915   3.962   5.096   7.595  0.4670 -0.4839 -1.4152
   74CHL1   C11 7916   3.875   5.238   7.449  0.2382  0.4983  0.9075
   74CHL1  H11A 7917   3.866   5.348   7.438  0.5764  0.4128 -0.3514
   74CHL1  H11B 7918   3.957   5.212   7.378  1.2003  0.4608  2.0170
   74CHL1    C9 7919   3.741   5.168   7.396 -0.3969 -0.7829 -0.0649
   74CHL1    H9 7920   3.779   5.069   7.363  1.8600 -0.5823  1.8184
   74CHL1   C10 7921   3.688   5.224   7.259 -0.9925 -0.3324  0.3268
   74CHL1   C19 7922   3.654   5.370   7.265  0.3223 -0.4859 -0.2716
   74CHL1  H19A 7923   3.582   5.384   7.349  0.7634 -2.7241  0.5401
   74CHL1  H19B 7924   3.747   5.426   7.287  0.6992 -1.7608  1.5210
   74CHL1  H19C 7925   3.618   5.410   7.169 -0.0239 -0.7962 -0.2735
   74CHL1    C1 7926   3.797   5.197   7.145  0.2314 -0.7928  0.3709
   74CHL1   H1A 7927   3.889   5.252   7.173 -0.4736  0.4235  0.3604
   74CHL1   H1B 7928   3.813   5.087   7.153  0.3738 -0.6204  2.9348
   74CHL1    C2 7929   3.752   5.228   7.010 -0.6435  0.1086 -0.1194
   74CHL1   H2A 7930   3.831   5.204   6.935  0.4950 -0.5948  1.2662
   74CHL1   H2B 7931   3.728   5.336   6.996  1.2536  0.6644  0.6314
   74CHL1   C20 7932   3.907   5.206   7.935 -0.3102  0.8309  0.6024
   74CHL1   H20 7933   3.987   5.262   7.881 -0.5505 -0.7922 -1.4644
   74CHL1   C21 7934   3.974   5.111   8.032  0.6205  0.2192 -0.1399
   74CHL1  H21A 7935   4.035   5.032   7.984 -1.2238 -1.6756  0.5615
   74CHL1  H21B 7936   3.892   5.061   8.088 -0.2831  0.5928 -1.1085
   74CHL1  H21C 7937   4.035   5.165   8.107  1.0917 -3.1548  1.9639
   74CHL1   C22 7938   3.831   5.312   8.020 -0.2445 -0.0561 -0.0536
   74CHL1  H22A 7939   3.742   5.353   7.968 -2.2582 -2.0119  1.7612
   74CHL1  H22B 7940   3.790   5.271   8.115 -0.3062  1.8343  0.7644
   74CHL1   C23 7941   3.924   5.423   8.068 -0.1462 -0.7442  0.1791
   74CHL1  H23A 7942   4.001   5.389   8.140  1.2752  0.5095 -0.6994
   74CHL1  H23B 7943   3.982   5.454   7.978 -1.0561 -0.9206 -0.4793
   74CHL1   C24 7944   3.848   5.548   8.121 -0.1049  0.2317  0.3690
   74CHL1  H24A 7945   3.788   5.602   8.045 -0.7580 -2.4199 -1.0582
   74CHL1  H24B 7946   3.758   5.509   8.173 -0.3125  2.1054  1.4962
   74CHL1   C25 7947   3.927   5.656   8.190 -0.2982 -0.2216 -0.6249
   74CHL1   H25 7948   3.980   5.595   8.265  0.6656 -0.3457 -1.4021
   74CHL1   C26 7949   4.039   5.719   8.104  0.3729 -0.8262 -0.3554
   74CHL1  H26A 7950   4.122   5.647   8.090  1.7646 -0.2500  4.2277
   74CHL1  H26B 7951   3.988   5.756   8.012  1.5310 -0.8791 -1.0264
   74CHL1  H26C 7952   4.086   5.808   8.151  0.1727 -0.6875 -0.4138
   74CHL1   C27 7953   3.825   5.751   8.249 -0.2574 -0.0653  0.3806
   74CHL1  H27A 7954   3.741   5.697   8.297 -0.3041 -0.5112 -0.1907
   74CHL1  H27B 7955   3.875   5.823   8.317  0.5004  0.9722 -1.2225
   74CHL1  H27C 7956   3.781   5.816   8.170  0.8243 -0.5257 -0.6309
   75CHL1    C3 7957   0.270   6.109   6.751 -1.0946  0.1373  0.3382
   75CHL1    H3 7958   0.209   6.016   6.755 -0.3652 -0.3055  1.0363
   75CHL1    O3 7959   0.272   6.146   6.612  0.0838  0.4577  0.4554
   75CHL1   H3' 7960   0.364   6.155   6.585  0.2926 -0.3082  0.9237
   75CHL1    C4 7961   0.200   6.215   6.834  0.3710 -0.0206  0.2486
   75CHL1   H4A 7962   0.262   6.306   6.816  0.1250 -0.0366 -0.6763
   75CHL1   H4B 7963   0.098   6.236   6.797  1.1820  1.4952 -1.2158
   75CHL1    C5 7964   0.218   6.178   6.978 -0.9566 -0.5588  0.2549
   75CHL1    C6 7965   0.107   6.166   7.059 -0.0813  1.5903 -0.6326
   75CHL1    H6 7966   0.006   6.182   7.017 -1.9745 -0.1783  3.0058
   75CHL1    C7 7967   0.103   6.140   7.211  0.1635  0.2795  0.6077
   75CHL1   H7A 7968   0.028   6.205   7.261  0.6016  1.4150 -0.2032
   75CHL1   H7B 7969   0.093   6.031   7.229  2.2169 -0.1691 -0.7937
   75CHL1    C8 7970   0.247   6.163   7.267 -0.4714 -0.1896 -0.5252
   75CHL1    H8 7971   0.264   6.273   7.279  0.0963 -0.6442  3.7807
   75CHL1   C14 7972   0.253   6.108   7.409  0.3614  0.2909  0.2373
   75CHL1   H14 7973   0.237   5.998   7.410  2.1679  0.0237  0.0661
   75CHL1   C15 7974   0.147   6.158   7.511  0.6800  0.6651 -0.4031
   75CHL1  H15A 7975   0.139   6.268   7.504 -1.1301  0.4086 -3.1374
   75CHL1  H15B 7976   0.047   6.110   7.499  0.5696  0.5414  0.9979
   75CHL1   C16 7977   0.208   6.132   7.646  0.3339  0.2021  0.3875
   75CHL1  H16A 7978   0.208   6.228   7.702  1.1930  0.3996  0.0552
   75CHL1  H16B 7979   0.148   6.065   7.711 -1.8871  1.1044 -0.7105
   75CHL1   C17 7980   0.354   6.072   7.623 -0.4097  0.0709  0.1984
   75CHL1   H17 7981   0.333   5.963   7.631 -1.4113  0.2691  0.2993
   75CHL1   C13 7982   0.388   6.116   7.477 -0.3173  0.0347 -0.0467
   75CHL1   C18 7983   0.444   6.262   7.474  0.4866 -0.1900  0.6486
   75CHL1  H18A 7984   0.538   6.267   7.532  0.2308 -1.8865  1.2459
   75CHL1  H18B 7985   0.457   6.292   7.368  2.2819 -2.2969  0.2296
   75CHL1  H18C 7986   0.372   6.332   7.523 -0.3137 -2.0254  2.1705
   75CHL1   C12 7987   0.486   6.032   7.395 -0.4949 -0.4989  0.2359
   75CHL1  H12A 7988   0.588   6.033   7.438 -0.8186  2.8104  1.0420
   75CHL1  H12B 7989   0.443   5.929   7.391 -2.6836  0.3350  1.4595
   75CHL1   C11 7990   0.489   6.077   7.247 -0.6124 -0.8034 -0.4680
   75CHL1  H11A 7991   0.547   6.171   7.240 -1.8232 -0.0479 -0.5362
   75CHL1  H11B 7992   0.553   6.008   7.187 -0.8206  0.1529 -1.8204
   75CHL1    C9 7993   0.347   6.097   7.175  0.0684 -0.2983  1.0225
   75CHL1    H9 7994   0.315   5.992   7.161  0.8779 -0.6352  1.6909
   75CHL1   C10 7995   0.357   6.150   7.030 -0.2384 -0.6734 -0.8732
   75CHL1   C19 7996   0.438   6.279   7.022 -0.2686  0.2237 -0.4395
   75CHL1  H19A 7997   0.547   6.259   7.026 -0.6326 -1.4977  2.0551
   75CHL1  H19B 7998   0.415   6.342   6.933 -1.0953  0.3751 -0.1199
   75CHL1  H19C 7999   0.433   6.337   7.116  3.0072  1.9123 -1.2463
   75CHL1    C1 8000   0.415   6.043   6.936  0.4737  0.1731  0.6954
   75CHL1   H1A 8001   0.517   6.017   6.973  0.5015  0.4275  0.7929
   75CHL1   H1B 8002   0.350   5.952   6.938 -2.0659  1.9299  0.0206
   75CHL1    C2 8003   0.418   6.085   6.788 -0.4110  0.0372 -0.0723
   75CHL1   H2A 8004   0.468   6.005   6.729  1.3457  0.7217  0.4481
   75CHL1   H2B 8005   0.482   6.176   6.787 -1.0793  0.5126 -1.6369
   75CHL1   C20 8006   0.455   6.115   7.728  0.0406 -0.3734 -0.0861
   75CHL1   H20 8007   0.456   6.226   7.726  1.1957 -0.2574  3.8913
   75CHL1   C21 8008   0.585   6.042   7.710  0.3805  1.1205 -0.5321
   75CHL1  H21A 8009   0.568   5.933   7.695  0.4942  0.7209  2.1361
   75CHL1  H21B 8010   0.658   6.052   7.793  1.0032  1.3773 -1.1065
   75CHL1  H21C 8011   0.639   6.079   7.619  0.0915 -0.0192 -1.1785
   75CHL1   C22 8012   0.400   6.084   7.875 -0.4111  0.2011 -0.0116
   75CHL1  H22A 8013   0.473   6.113   7.953 -1.7599 -1.7340  2.0137
   75CHL1  H22B 8014   0.323   6.163   7.887  0.0699  0.7458 -0.4394
   75CHL1   C23 8015   0.350   5.941   7.896  0.9896  0.4885  0.0892
   75CHL1  H23A 8016   0.272   5.919   7.820  0.0209 -1.4702  1.6134
   75CHL1  H23B 8017   0.433   5.870   7.875  0.4898 -0.5595  1.6100
   75CHL1   C24 8018   0.318   5.909   8.044 -0.2752  0.4779  0.3638
   75CHL1  H24A 8019   0.418   5.911   8.092 -0.2050  1.2366  0.1990
   75CHL1  H24B 8020   0.251   5.980   8.096 -2.2829 -2.0222  1.3106
   75CHL1   C25 8021   0.253   5.775   8.066 -0.1411 -0.4661  0.3778
   75CHL1   H25 8022   0.309   5.705   7.999 -0.8250 -0.2548 -0.4199
   75CHL1   C26 8023   0.269   5.732   8.205 -0.0664 -0.7276  0.2146
   75CHL1  H26A 8024   0.370   5.687   8.219 -0.5477 -1.7299  0.4853
   75CHL1  H26B 8025   0.240   5.816   8.273 -0.9462 -0.2405 -0.7573
   75CHL1  H26C 8026   0.204   5.647   8.235  0.5019 -1.5197 -0.7744
   75CHL1   C27 8027   0.108   5.758   8.004 -0.1013 -0.3373 -0.0606
   75CHL1  H27A 8028   0.079   5.651   7.991  0.5076 -0.4358 -0.5890
   75CHL1  H27B 8029   0.032   5.808   8.068 -1.9412 -1.6871 -1.1433
   75CHL1  H27C 8030   0.098   5.811   7.907 -1.9592 -1.5509 -0.5813
   76CHL1    C3 8031   3.100   1.239   7.333 -0.1290 -0.0375  0.0156
   76CHL1    H3 8032   3.142   1.136   7.327 -0.6313 -0.2653  0.3397
   76CHL1    O3 8033   3.113   1.308   7.213  0.0413 -0.3859 -0.5125
   76CHL1   H3' 8034   3.099   1.241   7.145 -1.7865 -1.0241  0.4433
   76CHL1    C4 8035   2.956   1.236   7.372 -0.3325  0.3835 -0.3254
   76CHL1   H4A 8036   2.920   1.342   7.372  2.1660  1.3208  3.3646
   76CHL1   H4B 8037   2.904   1.183   7.289 -0.8199  2.2533 -1.2491
   76CHL1    C5 8038   2.938   1.174   7.515  0.2467  0.7427  0.4535
   76CHL1    C6 8039   2.839   1.077   7.539 -0.5564 -0.4567 -0.2217
   76CHL1    H6 8040   2.791   1.033   7.450 -1.8491 -1.1251  0.7759
   76CHL1    C7 8041   2.803   1.027   7.677  0.5884  0.6008 -0.0522
   76CHL1   H7A 8042   2.694   1.017   7.694 -0.0020  1.6346 -2.8413
   76CHL1   H7B 8043   2.857   0.933   7.702  1.0031  1.3443  1.9243
   76CHL1    C8 8044   2.861   1.110   7.793 -0.2194 -0.4142 -0.1960
   76CHL1    H8 8045   2.799   1.199   7.816 -0.3558 -0.4625 -0.3818
   76CHL1   C14 8046   2.858   1.026   7.917 -0.6584  0.7236  0.2191
   76CHL1   H14 8047   2.934   0.947   7.902  0.1166  1.2002  1.5218
   76CHL1   C15 8048   2.727   0.964   7.967 -0.6896 -0.6131  0.7846
   76CHL1  H15A 8049   2.645   1.035   7.943 -0.3152 -1.0885 -2.0478
   76CHL1  H15B 8050   2.708   0.868   7.913 -0.2545  0.0110 -0.5083
   76CHL1   C16 8051   2.747   0.941   8.115  0.3286 -0.9784 -0.0098
   76CHL1  H16A 8052   2.666   1.001   8.162  0.4731  0.8715 -2.0311
   76CHL1  H16B 8053   2.733   0.838   8.154 -0.5835  0.0319  2.4463
   76CHL1   C17 8054   2.890   0.990   8.145 -0.4892 -0.5987 -0.3045
   76CHL1   H17 8055   2.963   0.908   8.130 -1.7745 -1.4018 -2.3250
   76CHL1   C13 8056   2.918   1.096   8.038  0.1015  0.2782  0.3245
   76CHL1   C18 8057   2.835   1.231   8.066 -0.0659 -0.1521  0.1865
   76CHL1  H18A 8058   2.864   1.288   8.157  1.1837  1.6590 -1.3056
   76CHL1  H18B 8059   2.827   1.298   7.978 -0.0911  0.6315  0.7777
   76CHL1  H18C 8060   2.727   1.206   8.075 -0.0238 -0.0129  1.1962
   76CHL1   C12 8061   3.062   1.137   8.005 -0.4741 -0.2771 -0.1228
   76CHL1  H12A 8062   3.115   1.195   8.083  2.4247 -2.1240 -0.6453
   76CHL1  H12B 8063   3.133   1.054   7.982  0.1014  0.1440  0.1370
   76CHL1   C11 8064   3.071   1.232   7.881  0.0191  0.9955 -0.8984
   76CHL1  H11A 8065   3.021   1.327   7.908  1.2460  1.0183  1.3403
   76CHL1  H11B 8066   3.179   1.253   7.868  0.4633  0.4770  1.7713
   76CHL1    C9 8067   3.008   1.157   7.759  0.0615 -0.1640 -0.2443
   76CHL1    H9 8068   3.062   1.061   7.748 -0.4446 -0.2713 -2.0021
   76CHL1   C10 8069   3.019   1.242   7.629  0.6876  0.3381  0.0276
   76CHL1   C19 8070   2.952   1.383   7.652  0.0737  0.0616  0.3531
   76CHL1  H19A 8071   3.014   1.446   7.719 -0.9101  0.3046  1.0642
   76CHL1  H19B 8072   2.927   1.430   7.555  0.5648  2.8889  1.5526
   76CHL1  H19C 8073   2.861   1.378   7.717  0.7440  0.8711  1.3723
   76CHL1    C1 8074   3.168   1.243   7.583  0.3311  0.0311 -0.8765
   76CHL1   H1A 8075   3.231   1.300   7.655  0.8303 -0.5609 -0.8392
   76CHL1   H1B 8076   3.214   1.142   7.583  0.1220 -0.0629 -1.5299
   76CHL1    C2 8077   3.187   1.297   7.440  0.3719 -0.1684 -0.1680
   76CHL1   H2A 8078   3.289   1.278   7.401  0.6773  1.1154 -0.0253
   76CHL1   H2B 8079   3.165   1.405   7.455 -2.3930 -0.2794 -3.0384
   76CHL1   C20 8080   2.911   1.029   8.294  0.5420 -0.2908 -0.0909
   76CHL1   H20 8081   2.859   1.126   8.314  1.3893  0.3078 -0.7609
   76CHL1   C21 8082   3.058   1.064   8.333 -0.0812  0.7876  0.1923
   76CHL1  H21A 8083   3.088   1.163   8.294 -1.6907  1.2206  0.0491
   76CHL1  H21B 8084   3.137   0.993   8.300  2.0075  2.8048  0.7580
   76CHL1  H21C 8085   3.061   1.068   8.444 -1.2241  1.7494  0.1960
   76CHL1   C22 8086   2.851   0.928   8.391 -0.2946  0.5206  0.6640
   76CHL1  H22A 8087   2.753   0.890   8.354 -0.5826  2.3730 -0.5068
   76CHL1  H22B 8088   2.915   0.837   8.402  1.7752  2.2112  3.3733
   76CHL1   C23 8089   2.832   0.985   8.531 -0.1315 -0.0808 -0.4338
   76CHL1  H23A 8090   2.923   0.975   8.594  0.1351 -0.2323 -0.8401
   76CHL1  H23B 8091   2.813   1.093   8.512  1.5173  0.4991  1.0292
   76CHL1   C24 8092   2.712   0.916   8.610 -0.2446  0.0317 -0.0254
   76CHL1  H24A 8093   2.622   0.927   8.545  0.9605  0.8115 -1.5851
   76CHL1  H24B 8094   2.735   0.807   8.614  0.0116  0.0468 -0.9548
   76CHL1   C25 8095   2.689   0.969   8.746 -0.0242  0.2114  0.3198
   76CHL1   H25 8096   2.782   0.966   8.808  0.3467 -2.4751 -0.2886
   76CHL1   C26 8097   2.644   1.113   8.744  0.7514 -0.0095 -0.2760
   76CHL1  H26A 8098   2.707   1.181   8.682 -2.6808  2.1576 -1.5494
   76CHL1  H26B 8099   2.537   1.122   8.712  1.0633 -1.7441 -1.9119
   76CHL1  H26C 8100   2.651   1.146   8.850  1.4057 -1.3704  0.1058
   76CHL1   C27 8101   2.601   0.862   8.818  0.5820 -0.0039  0.6501
   76CHL1  H27A 8102   2.576   0.899   8.920 -0.8381  1.8208 -0.3254
   76CHL1  H27B 8103   2.507   0.849   8.759  0.6359  4.2528 -0.5569
   76CHL1  H27C 8104   2.659   0.768   8.827 -0.4928 -0.7623 -0.1848
   77CHL1    C3 8105   3.612   0.128   6.836 -0.2132  0.7737 -0.6735
   77CHL1    H3 8106   3.555   0.216   6.872 -3.1759 -1.5624  0.6072
   77CHL1    O3 8107   3.568   0.118   6.701 -0.4001  0.1233  0.9585
   77CHL1   H3' 8108   3.624   0.060   6.648 -1.5125  1.4987 -1.8429
   77CHL1    C4 8109   3.762   0.134   6.849 -0.3499 -0.0492  0.0634
   77CHL1   H4A 8110   3.813   0.048   6.801 -2.1599  0.4672 -2.9641
   77CHL1   H4B 8111   3.799   0.226   6.798  2.0677 -1.5597 -0.9859
   77CHL1    C5 8112   3.795   0.153   6.998  0.0584  0.2529  0.1660
   77CHL1    C6 8113   3.853   0.258   7.055 -0.4060  0.4034 -0.1124
   77CHL1    H6 8114   3.877   0.348   6.997  1.3985 -0.4962 -0.7803
   77CHL1    C7 8115   3.889   0.281   7.194 -0.0893 -0.4266 -0.2069
   77CHL1   H7A 8116   3.983   0.337   7.207 -1.6662  2.2391  0.0464
   77CHL1   H7B 8117   3.814   0.340   7.251  1.5814 -0.5483  2.1819
   77CHL1    C8 8118   3.884   0.145   7.271  0.1133 -0.2470 -0.0680
   77CHL1    H8 8119   3.975   0.088   7.239 -1.0227 -1.7059 -0.7702
   77CHL1   C14 8120   3.882   0.175   7.426  0.3530 -0.0606 -0.1508
   77CHL1   H14 8121   3.784   0.222   7.449  0.7641 -0.0371  1.6224
   77CHL1   C15 8122   3.988   0.272   7.491  0.0823 -0.1743 -0.0415
   77CHL1  H15A 8123   4.087   0.270   7.441 -0.0216 -2.4401 -0.2033
   77CHL1  H15B 8124   3.948   0.375   7.482 -0.6913 -0.5046 -0.4587
   77CHL1   C16 8125   4.000   0.230   7.638  0.3389 -0.0662 -0.5734
   77CHL1  H16A 8126   4.103   0.204   7.668  0.9168  2.1886 -0.4720
   77CHL1  H16B 8127   3.981   0.322   7.698  1.9670  1.9334 -3.0190
   77CHL1   C17 8128   3.895   0.120   7.660  0.1236 -0.4470 -0.2244
   77CHL1   H17 8129   3.801   0.176   7.681  0.1816  0.0024 -1.1652
   77CHL1   C13 8130   3.881   0.058   7.517  0.2744 -0.5082  0.1839
   77CHL1   C18 8131   4.003  -0.021   7.488 -0.7318  0.4421 -0.1514
   77CHL1  H18A 8132   4.017  -0.114   7.548 -1.4370  1.3274  1.4118
   77CHL1  H18B 8133   3.994  -0.057   7.383  0.9865 -0.5117  0.0024
   77CHL1  H18C 8134   4.089   0.048   7.471  0.9645 -1.5054  0.2533
   77CHL1   C12 8135   3.749  -0.017   7.481 -0.2537 -0.7518 -0.5609
   77CHL1  H12A 8136   3.736  -0.113   7.534  1.9022 -1.1943 -0.7898
   77CHL1  H12B 8137   3.665   0.048   7.514 -0.1440 -1.0430  0.3024
   77CHL1   C11 8138   3.733  -0.054   7.332  0.5493 -0.2120 -0.6419
   77CHL1  H11A 8139   3.807  -0.134   7.308  1.1539 -0.2994  1.4277
   77CHL1  H11B 8140   3.636  -0.106   7.319 -0.2387 -0.0660  3.9128
   77CHL1    C9 8141   3.761   0.067   7.232  0.1647 -0.3860  0.3135
   77CHL1    H9 8142   3.684   0.141   7.262  0.1509 -0.4014  0.3152
   77CHL1   C10 8143   3.746   0.033   7.077 -0.2068 -0.3863  0.5588
   77CHL1   C19 8144   3.827  -0.094   7.038 -0.4163  0.2761  0.4670
   77CHL1  H19A 8145   3.798  -0.125   6.936 -0.7329  2.5669 -0.1699
   77CHL1  H19B 8146   3.935  -0.069   7.025  0.0532 -2.8099 -2.1149
   77CHL1  H19C 8147   3.806  -0.181   7.104  0.4728  0.3237  0.8172
   77CHL1    C1 8148   3.599   0.006   7.050 -0.5159  0.1202  0.0156
   77CHL1   H1A 8149   3.575  -0.093   7.093 -0.6742  0.0339 -0.2661
   77CHL1   H1B 8150   3.545   0.078   7.115  1.4705  1.0230  0.7103
   77CHL1    C2 8151   3.557   0.003   6.909 -0.0879  0.4758  0.2400
   77CHL1   H2A 8152   3.446   0.017   6.905 -0.1100  0.5134  0.9274
   77CHL1   H2B 8153   3.588  -0.088   6.854 -0.7106  0.7441 -0.5681
   77CHL1   C20 8154   3.926   0.027   7.781  0.3278 -0.4634  0.3542
   77CHL1   H20 8155   4.028  -0.016   7.772 -0.0107 -1.0684 -0.6914
   77CHL1   C21 8156   3.830  -0.088   7.781 -0.4670 -0.8010 -0.0978
   77CHL1  H21A 8157   3.839  -0.149   7.689  0.8149  0.6468 -0.9484
   77CHL1  H21B 8158   3.732  -0.041   7.801 -1.0363 -2.2055  0.4851
   77CHL1  H21C 8159   3.858  -0.160   7.861  0.9142  0.8096  0.8960
   77CHL1   C22 8160   3.935   0.105   7.915  0.1159 -0.3089  0.2525
   77CHL1  H22A 8161   4.003   0.193   7.915 -2.1419  1.4846  0.2054
   77CHL1  H22B 8162   3.832   0.145   7.918  0.1566 -0.2068  0.2821
   77CHL1   C23 8163   3.971   0.027   8.046  0.6425  0.0177 -0.1737
   77CHL1  H23A 8164   3.992   0.095   8.132  0.1260  0.9938 -0.8021
   77CHL1  H23B 8165   3.880  -0.033   8.064  0.2975 -0.1394 -2.3093
   77CHL1   C24 8166   4.095  -0.060   8.041 -0.7567  0.4443 -0.3806
   77CHL1  H24A 8167   4.091  -0.123   7.949 -0.9628 -0.1344  0.0259
   77CHL1  H24B 8168   4.187   0.001   8.036  1.8891 -3.3394  0.3348
   77CHL1   C25 8169   4.099  -0.154   8.163 -0.3086  0.7772  0.3485
   77CHL1   H25 8170   3.998  -0.201   8.164 -0.0657 -0.0029 -3.8868
   77CHL1   C26 8171   4.213  -0.250   8.166  0.2111 -0.4704  0.2213
   77CHL1  H26A 8172   4.202  -0.318   8.079 -1.1485  3.1568 -2.6128
   77CHL1  H26B 8173   4.312  -0.198   8.161  0.6501 -1.1223  1.8954
   77CHL1  H26C 8174   4.224  -0.312   8.257 -0.1402  0.5687  0.9824
   77CHL1   C27 8175   4.093  -0.076   8.291 -0.1303  0.3639 -0.7309
   77CHL1  H27A 8176   4.026   0.009   8.316  1.5453  1.1922  1.0943
   77CHL1  H27B 8177   4.072  -0.143   8.378  2.0003  1.5105  0.7055
   77CHL1  H27C 8178   4.197  -0.037   8.299  0.0126 -0.3655  1.4654
   78CHL1    C3 8179   6.080   1.298   6.854 -0.8160 -0.5512 -0.1035
   78CHL1    H3 8180   6.039   1.400   6.870 -0.4377 -0.6903  1.8807
   78CHL1    O3 8181   6.083   1.266   6.715 -0.6307 -0.3351 -0.1354
   78CHL1   H3' 8182   6.162   1.306   6.678  0.1526 -0.4064  1.4428
   78CHL1    C4 8183   6.229   1.294   6.903 -0.0933  0.3449  0.6229
   78CHL1   H4A 8184   6.281   1.202   6.870 -1.7296  0.3723 -2.2277
   78CHL1   H4B 8185   6.274   1.380   6.848 -0.9728 -0.3415 -1.2139
   78CHL1    C5 8186   6.243   1.318   7.045 -0.1749 -0.5643  0.2284
   78CHL1    C6 8187   6.313   1.420   7.102 -0.7242  0.2669  0.2181
   78CHL1    H6 8188   6.373   1.486   7.037 -0.6017  1.1562  1.2243
   78CHL1    C7 8189   6.340   1.417   7.250 -0.2873 -0.5170 -0.3278
   78CHL1   H7A 8190   6.445   1.447   7.269 -1.1237  1.4632  1.2832
   78CHL1   H7B 8191   6.272   1.498   7.283 -2.2196 -2.0548 -0.4124
   78CHL1    C8 8192   6.304   1.283   7.315 -0.6603  0.4755 -0.9833
   78CHL1    H8 8193   6.382   1.211   7.283 -1.0626 -0.6544  0.5564
   78CHL1   C14 8194   6.322   1.295   7.470 -0.1248 -0.1436 -0.2688
   78CHL1   H14 8195   6.267   1.386   7.502  1.1316  0.3866  0.4491
   78CHL1   C15 8196   6.465   1.318   7.535  0.4422  0.0473  0.5162
   78CHL1  H15A 8197   6.546   1.261   7.484  0.2563  1.0686 -0.9401
   78CHL1  H15B 8198   6.494   1.425   7.525  0.9968  0.0149  1.6454
   78CHL1   C16 8199   6.453   1.272   7.679  0.7068 -0.0028 -0.5242
   78CHL1  H16A 8200   6.528   1.192   7.699 -0.7304 -1.3105 -0.2773
   78CHL1  H16B 8201   6.491   1.349   7.749  0.0902 -0.0766 -0.1029
   78CHL1   C17 8202   6.307   1.218   7.700  0.1263 -0.6212  0.1927
   78CHL1   H17 8203   6.256   1.313   7.725  0.2867 -0.6168  0.5061
   78CHL1   C13 8204   6.260   1.179   7.550  0.7663  0.0447 -0.7064
   78CHL1   C18 8205   6.324   1.051   7.507  0.1783 -0.5625 -0.0612
   78CHL1  H18A 8206   6.285   0.965   7.565 -0.5797  0.4079  0.8755
   78CHL1  H18B 8207   6.313   1.033   7.398  1.3573  2.1499 -0.6699
   78CHL1  H18C 8208   6.434   1.056   7.524  0.3641 -0.4875 -1.2127
   78CHL1   C12 8209   6.111   1.174   7.519  0.0470  0.4411 -0.4159
   78CHL1  H12A 8210   6.067   1.110   7.598 -0.9772  2.2658  0.5175
   78CHL1  H12B 8211   6.065   1.274   7.535  1.0290  0.7574  0.4731
   78CHL1   C11 8212   6.087   1.138   7.370  0.1906  0.5776 -0.0129
   78CHL1  H11A 8213   6.114   1.031   7.365 -1.8993  0.0136  0.0767
   78CHL1  H11B 8214   5.982   1.153   7.334 -1.1314 -1.0475  3.0070
   78CHL1    C9 8215   6.161   1.241   7.279 -0.4779 -0.2377 -0.2383
   78CHL1    H9 8216   6.103   1.332   7.305  1.4163  0.7630  0.5592
   78CHL1   C10 8217   6.158   1.215   7.125 -0.3859 -0.3375 -0.1750
   78CHL1   C19 8218   6.199   1.066   7.092  0.2350  0.2696 -0.1327
   78CHL1  H19A 8219   6.211   1.042   6.985 -0.7505 -0.8621 -0.0032
   78CHL1  H19B 8220   6.294   1.051   7.147  1.2149  2.4095 -1.1761
   78CHL1  H19C 8221   6.127   0.992   7.133  3.9514 -3.5796 -0.1830
   78CHL1    C1 8222   6.007   1.228   7.084 -0.0900 -0.3045 -0.0019
   78CHL1   H1A 8223   5.945   1.153   7.137 -1.4067  0.4246 -0.4760
   78CHL1   H1B 8224   5.967   1.327   7.116  0.4322  0.4739 -1.6734
   78CHL1    C2 8225   5.988   1.211   6.934 -0.2578 -0.0652  0.9410
   78CHL1   H2A 8226   5.887   1.239   6.898  0.5385 -0.9331 -2.1017
   78CHL1   H2B 8227   5.994   1.103   6.909  1.0647  0.5122 -1.3981
   78CHL1   C20 8228   6.295   1.114   7.810  0.1742  0.2950  0.1118
   78CHL1   H20 8229   6.347   1.021   7.776 -1.1951  0.6824 -3.2441
   78CHL1   C21 8230   6.150   1.088   7.836 -0.4147  0.1412  0.4120
   78CHL1  H21A 8231   6.141   1.032   7.932  0.3698 -1.1052 -0.2341
   78CHL1  H21B 8232   6.116   1.011   7.764  1.3700 -0.5359  0.2722
   78CHL1  H21C 8233   6.083   1.177   7.847 -1.9642 -0.8341 -0.9220
   78CHL1   C22 8234   6.378   1.150   7.938  0.5193  0.7065  0.2490
   78CHL1  H22A 8235   6.486   1.145   7.914  0.1983  0.2239 -1.1472
   78CHL1  H22B 8236   6.371   1.261   7.950  2.2145  1.3429 -3.7147
   78CHL1   C23 8237   6.352   1.080   8.073 -0.1321  0.2942  0.9981
   78CHL1  H23A 8238   6.261   1.114   8.126 -1.1056 -2.6683  1.3141
   78CHL1  H23B 8239   6.353   0.971   8.052 -0.0799  0.6972 -1.2190
   78CHL1   C24 8240   6.466   1.100   8.170  0.2763 -0.6201  0.6391
   78CHL1  H24A 8241   6.554   1.045   8.131 -0.1471 -1.4599  0.8516
   78CHL1  H24B 8242   6.490   1.208   8.178  1.3050 -0.8855  1.2726
   78CHL1   C25 8243   6.444   1.045   8.314  0.6039 -0.8190  0.7118
   78CHL1   H25 8244   6.343   1.077   8.347  1.0430 -0.0432  1.3392
   78CHL1   C26 8245   6.456   0.892   8.294 -0.5028 -0.5654 -0.3049
   78CHL1  H26A 8246   6.549   0.861   8.240 -0.9918 -0.8435 -0.9921
   78CHL1  H26B 8247   6.452   0.846   8.395 -1.2479  2.7924  1.2562
   78CHL1  H26C 8248   6.365   0.854   8.244 -0.4021 -1.0862 -0.0919
   78CHL1   C27 8249   6.552   1.089   8.416 -0.1877 -0.1615 -0.0604
   78CHL1  H27A 8250   6.531   1.043   8.515  1.9830 -1.0761  0.0231
   78CHL1  H27B 8251   6.650   1.045   8.385 -0.9722 -0.9628 -1.4511
   78CHL1  H27C 8252   6.543   1.198   8.432  3.2770  0.0397  1.0746
   79CHL1    C3 8253   4.243   1.398   7.226 -0.9870  0.1483  0.4094
   79CHL1    H3 8254   4.306   1.490   7.235  1.2295 -1.1050 -1.6759
   79CHL1    O3 8255   4.228   1.361   7.097 -0.8459  0.4009 -0.3173
   79CHL1   H3' 8256   4.189   1.273   7.101  0.6342 -0.2579  0.1504
   79CHL1    C4 8257   4.314   1.283   7.308 -0.3212  0.7582  0.1769
   79CHL1   H4A 8258   4.265   1.189   7.275  0.0567  0.6435 -0.0617
   79CHL1   H4B 8259   4.415   1.300   7.264 -1.1833  0.8514 -1.8343
   79CHL1    C5 8260   4.325   1.317   7.461  0.1486 -0.1014 -0.4658
   79CHL1    C6 8261   4.442   1.322   7.523 -0.1787  0.6627 -0.5531
   79CHL1    H6 8262   4.530   1.315   7.457 -3.0449  0.6166 -4.5608
   79CHL1    C7 8263   4.453   1.345   7.671 -1.0132 -0.5002  0.3701
   79CHL1   H7A 8264   4.537   1.285   7.712 -0.4519 -0.0905 -0.1847
   79CHL1   H7B 8265   4.473   1.453   7.685  2.6811 -0.8560 -1.6410
   79CHL1    C8 8266   4.328   1.329   7.749  0.7118  0.1824  0.3057
   79CHL1    H8 8267   4.311   1.220   7.760  1.4336  0.2029  1.6777
   79CHL1   C14 8268   4.334   1.376   7.888  0.0295 -0.2038 -0.0260
   79CHL1   H14 8269   4.340   1.486   7.872  0.7405 -0.2430 -0.0138
   79CHL1   C15 8270   4.468   1.350   7.972  0.4417 -0.8299  0.6690
   79CHL1  H15A 8271   4.499   1.249   7.935 -0.3065 -1.0778  0.7082
   79CHL1  H15B 8272   4.543   1.426   7.942  0.0153 -1.7032 -2.7976
   79CHL1   C16 8273   4.417   1.362   8.113  0.6094 -0.4650 -0.2451
   79CHL1  H16A 8274   4.414   1.259   8.153  0.0151 -0.3912 -0.0964
   79CHL1  H16B 8275   4.488   1.416   8.180 -0.3934 -1.1985  1.4309
   79CHL1   C17 8276   4.264   1.412   8.110 -0.4219 -0.6841  0.3458
   79CHL1   H17 8277   4.271   1.522   8.093  0.0970 -0.9804 -1.4497
   79CHL1   C13 8278   4.212   1.353   7.977  0.0641  0.2112  0.1920
   79CHL1   C18 8279   4.188   1.195   7.999  0.5771  0.2445 -0.2877
   79CHL1  H18A 8280   4.266   1.140   8.055 -0.1220 -0.8290 -0.3385
   79CHL1  H18B 8281   4.087   1.198   8.045  0.8794 -0.3230  0.4261
   79CHL1  H18C 8282   4.178   1.145   7.900 -0.0674  1.4330 -0.8302
   79CHL1   C12 8283   4.088   1.411   7.907  0.3600 -0.6702  0.0268
   79CHL1  H12A 8284   3.989   1.383   7.950  0.0242  2.1186  1.1951
   79CHL1  H12B 8285   4.098   1.521   7.920 -0.5961 -0.9240  3.4038
   79CHL1   C11 8286   4.072   1.369   7.761 -0.0826  0.0859  0.1937
   79CHL1  H11A 8287   4.042   1.262   7.771  1.8101 -0.5482 -0.8660
   79CHL1  H11B 8288   3.988   1.429   7.721  0.1783 -0.8363 -1.7829
   79CHL1    C9 8289   4.204   1.389   7.678 -0.0082  0.4724  0.7192
   79CHL1    H9 8290   4.232   1.496   7.668 -1.6257  0.9117  0.6134
   79CHL1   C10 8291   4.192   1.338   7.527  0.6761 -1.4038 -1.3034
   79CHL1   C19 8292   4.111   1.205   7.524  0.0774  0.6792 -0.3934
   79CHL1  H19A 8293   4.123   1.154   7.426 -1.0937  0.9841 -0.7017
   79CHL1  H19B 8294   4.133   1.133   7.606 -0.2468 -0.7981 -1.5841
   79CHL1  H19C 8295   4.001   1.219   7.538 -0.0325  2.1524 -2.4817
   79CHL1    C1 8296   4.123   1.456   7.441  0.3195 -0.2144  0.5810
   79CHL1   H1A 8297   4.028   1.484   7.490 -0.0486  0.3502 -0.4220
   79CHL1   H1B 8298   4.195   1.541   7.442  3.5659 -2.8146 -1.4543
   79CHL1    C2 8299   4.107   1.425   7.284  0.3262  0.0108 -0.1035
   79CHL1   H2A 8300   4.060   1.511   7.232  0.7173  1.3134  1.6524
   79CHL1   H2B 8301   4.044   1.335   7.268 -1.3840  0.6130  2.8079
   79CHL1   C20 8302   4.184   1.385   8.240  0.3407 -0.1707 -0.0708
   79CHL1   H20 8303   4.196   1.278   8.268 -0.0405  0.3865  2.3659
   79CHL1   C21 8304   4.034   1.416   8.220 -0.6786  0.0973  0.4497
   79CHL1  H21A 8305   3.979   1.340   8.160 -0.2881 -0.8870  1.3266
   79CHL1  H21B 8306   4.028   1.516   8.173  0.9685  0.1463  0.3338
   79CHL1  H21C 8307   3.990   1.425   8.321 -2.2555 -1.2842 -0.0766
   79CHL1   C22 8308   4.231   1.473   8.366  0.5782  0.1642  0.9718
   79CHL1  H22A 8309   4.168   1.438   8.450 -3.1548 -0.5337 -1.9737
   79CHL1  H22B 8310   4.339   1.458   8.388  1.3954  3.9293 -0.1177
   79CHL1   C23 8311   4.216   1.627   8.338 -0.3808 -0.4533 -1.0665
   79CHL1  H23A 8312   4.280   1.653   8.251  1.2213 -0.3007  0.1258
   79CHL1  H23B 8313   4.110   1.650   8.318 -1.0820 -2.6084 -0.0285
   79CHL1   C24 8314   4.276   1.703   8.454 -0.1753  0.1175  0.3848
   79CHL1  H24A 8315   4.260   1.644   8.546  1.0983  1.2109  1.3299
   79CHL1  H24B 8316   4.386   1.707   8.438 -0.1480  4.3519  0.8868
   79CHL1   C25 8317   4.214   1.846   8.475 -0.3981  0.0654 -0.1222
   79CHL1   H25 8318   4.103   1.843   8.483 -0.4054 -1.8732 -0.6411
   79CHL1   C26 8319   4.268   1.907   8.604  0.1381 -0.4939 -0.8370
   79CHL1  H26A 8320   4.221   2.005   8.629 -1.8003 -1.5693 -0.1585
   79CHL1  H26B 8321   4.255   1.836   8.688 -1.1420  0.0867 -0.5267
   79CHL1  H26C 8322   4.377   1.917   8.586  0.1666 -0.8467 -0.8547
   79CHL1   C27 8323   4.245   1.931   8.349  0.8237  0.1805 -0.3720
   79CHL1  H27A 8324   4.181   1.899   8.264  0.8551 -2.0941  0.4368
   79CHL1  H27B 8325   4.218   2.032   8.386  1.9944  0.4112 -0.1200
   79CHL1  H27C 8326   4.354   1.924   8.325  1.0907 -2.8496  1.5389
   80CHL1    C3 8327   3.065   5.001   7.121  0.4031  0.2355  0.3128
   80CHL1    H3 8328   3.157   4.940   7.128 -1.1601 -2.5284 -2.2984
   80CHL1    O3 8329   3.058   5.040   6.981 -0.1472 -0.6527 -0.1744
   80CHL1   H3' 8330   3.125   5.107   6.967  0.1689 -1.2438 -1.5989
   80CHL1    C4 8331   2.942   4.914   7.159  0.3538  0.8521 -0.5177
   80CHL1   H4A 8332   2.853   4.969   7.119 -1.4823 -1.7245 -0.1041
   80CHL1   H4B 8333   2.943   4.819   7.103  0.9794  1.2061 -1.1072
   80CHL1    C5 8334   2.904   4.903   7.306 -0.6430  0.4765  0.0295
   80CHL1    C6 8335   2.898   4.784   7.364 -1.1618  0.2146 -0.2753
   80CHL1    H6 8336   2.898   4.693   7.302 -0.7677 -0.4293  0.6588
   80CHL1    C7 8337   2.892   4.753   7.507 -0.1368  0.2461  0.1514
   80CHL1   H7A 8338   2.803   4.689   7.526 -0.2530 -0.1044 -1.4937
   80CHL1   H7B 8339   2.988   4.710   7.543 -0.2356  0.9079  1.2303
   80CHL1    C8 8340   2.856   4.884   7.585  0.8522  0.3165 -0.9167
   80CHL1    H8 8341   2.748   4.907   7.579  0.7473  1.2032  3.0950
   80CHL1   C14 8342   2.874   4.860   7.739  0.6771 -0.3157 -0.0392
   80CHL1   H14 8343   2.985   4.861   7.744  0.7440  0.5277 -1.4242
   80CHL1   C15 8344   2.822   4.736   7.805  0.4774 -0.5238 -0.1087
   80CHL1  H15A 8345   2.719   4.711   7.773 -0.3464  3.4921 -0.9063
   80CHL1  H15B 8346   2.888   4.652   7.775 -1.7208 -2.4997  0.4076
   80CHL1   C16 8347   2.818   4.770   7.953  0.0630 -0.1408  0.3645
   80CHL1  H16A 8348   2.711   4.784   7.977 -0.8020 -0.6316 -2.8538
   80CHL1  H16B 8349   2.862   4.700   8.027  1.0611 -0.2486 -0.3213
   80CHL1   C17 8350   2.875   4.912   7.971  0.2558  0.0393  0.7144
   80CHL1   H17 8351   2.985   4.908   7.965  0.2755  2.0962 -0.8533
   80CHL1   C13 8352   2.837   4.975   7.829 -0.3831  0.2904 -0.6703
   80CHL1   C18 8353   2.689   5.013   7.828  0.3084 -0.6071  0.4549
   80CHL1  H18A 8354   2.653   5.027   7.724 -0.9366 -0.7363  0.8598
   80CHL1  H18B 8355   2.623   4.932   7.866  1.8865 -1.2477  1.8343
   80CHL1  H18C 8356   2.668   5.103   7.890 -0.3941 -1.6499  1.7458
   80CHL1   C12 8357   2.925   5.094   7.788 -0.2346  0.0277 -0.8227
   80CHL1  H12A 8358   2.882   5.179   7.845  1.1475 -0.0534  0.3624
   80CHL1  H12B 8359   3.032   5.087   7.814 -0.0031 -0.8663 -1.9817
   80CHL1   C11 8360   2.901   5.130   7.631 -0.0886 -0.0337 -0.1637
   80CHL1  H11A 8361   2.798   5.168   7.615 -0.1184 -0.6504 -1.5495
   80CHL1  H11B 8362   2.963   5.217   7.600 -0.7858 -0.1908 -2.0805
   80CHL1    C9 8363   2.930   5.009   7.540  0.6728  0.1711  0.3244
   80CHL1    H9 8364   3.036   4.986   7.560 -0.0565 -3.2010  0.6535
   80CHL1   C10 8365   2.920   5.033   7.386  0.0133  0.1406  0.0170
   80CHL1   C19 8366   2.798   5.122   7.358  0.0412 -0.0916 -0.1083
   80CHL1  H19A 8367   2.767   5.133   7.252  1.0159 -0.9591 -0.4844
   80CHL1  H19B 8368   2.713   5.077   7.413 -0.4059 -0.1099 -0.8018
   80CHL1  H19C 8369   2.817   5.224   7.399  1.2217  0.0115 -0.8932
   80CHL1    C1 8370   3.055   5.108   7.345  0.3658 -0.3764 -0.0234
   80CHL1   H1A 8371   3.064   5.203   7.402  0.9767 -0.0620 -0.6366
   80CHL1   H1B 8372   3.138   5.042   7.380  0.5361 -1.7078 -2.8268
   80CHL1    C2 8373   3.077   5.130   7.196  0.6580 -0.2188 -0.3036
   80CHL1   H2A 8374   3.171   5.177   7.159 -0.9255  1.4963 -2.2588
   80CHL1   H2B 8375   2.997   5.199   7.161 -1.7729 -2.5762  0.5012
   80CHL1   C20 8376   2.835   4.986   8.091  0.2365 -1.0685 -0.5755
   80CHL1   H20 8377   2.732   5.022   8.072  0.4550 -1.3059 -2.3118
   80CHL1   C21 8378   2.929   5.106   8.112  0.3543  0.5576 -0.4619
   80CHL1  H21A 8379   2.882   5.184   8.049  2.0387  0.2720 -2.1323
   80CHL1  H21B 8380   3.033   5.082   8.080  1.3919  4.9476 -0.7699
   80CHL1  H21C 8381   2.932   5.134   8.219 -1.3717  1.1059 -0.5457
   80CHL1   C22 8382   2.826   4.904   8.221 -0.3367 -0.4067  0.6486
   80CHL1  H22A 8383   2.802   4.974   8.304  0.8767  1.5448 -0.5999
   80CHL1  H22B 8384   2.746   4.827   8.214  0.7738 -1.5112 -0.1166
   80CHL1   C23 8385   2.953   4.847   8.259 -0.1649 -0.0042 -0.4194
   80CHL1  H23A 8386   3.021   4.804   8.183  0.5654  2.7289 -1.3662
   80CHL1  H23B 8387   3.021   4.922   8.306  0.0328 -1.1838  1.2139
   80CHL1   C24 8388   2.931   4.744   8.368  0.0736  0.5437  0.4710
   80CHL1  H24A 8389   2.856   4.785   8.439  0.5817 -0.2469  1.4782
   80CHL1  H24B 8390   2.881   4.653   8.328 -1.6789  1.7328 -0.0975
   80CHL1   C25 8391   3.049   4.712   8.463 -0.6925  0.0451  0.2080
   80CHL1   H25 8392   3.061   4.798   8.532  2.4909  0.7369 -1.1455
   80CHL1   C26 8393   3.012   4.595   8.557  0.1607 -0.2474 -0.0619
   80CHL1  H26A 8394   2.979   4.506   8.500 -2.9169  1.2397 -0.7456
   80CHL1  H26B 8395   3.095   4.557   8.620 -0.8432 -1.0706  0.7831
   80CHL1  H26C 8396   2.928   4.628   8.623  0.1044  2.0834 -1.2288
   80CHL1   C27 8397   3.178   4.698   8.387 -0.4409 -0.0951 -0.1248
   80CHL1  H27A 8398   3.182   4.602   8.332 -1.6324 -0.9529  1.2826
   80CHL1  H27B 8399   3.201   4.780   8.315  2.4189 -1.3719 -0.7444
   80CHL1  H27C 8400   3.262   4.707   8.460 -0.4064 -3.7306  0.3871
   81CHL1    C3 8401   0.774   5.272   6.848 -0.0261  0.1281  0.1568
   81CHL1    H3 8402   0.692   5.202   6.822  0.6084 -0.5188 -0.1295
   81CHL1    O3 8403   0.823   5.334   6.728 -0.1012  0.6000 -0.1933
   81CHL1   H3' 8404   0.915   5.349   6.751 -0.3420 -0.4943  1.6606
   81CHL1    C4 8405   0.698   5.375   6.935  0.0332 -0.5048 -0.8459
   81CHL1   H4A 8406   0.776   5.447   6.968  0.2624 -1.7009  1.2528
   81CHL1   H4B 8407   0.619   5.421   6.872 -0.1064  0.4756  0.0486
   81CHL1    C5 8408   0.641   5.297   7.053  0.2520  0.3765 -0.2433
   81CHL1    C6 8409   0.510   5.283   7.061  0.0665 -0.3867  0.5771
   81CHL1    H6 8410   0.445   5.330   6.986  1.3779  0.4796 -0.0254
   81CHL1    C7 8411   0.436   5.223   7.174 -0.5994 -0.1231 -0.3669
   81CHL1   H7A 8412   0.346   5.284   7.199  0.2243  1.6164 -1.5797
   81CHL1   H7B 8413   0.388   5.127   7.146  2.0685 -1.6024  0.0154
   81CHL1    C8 8414   0.524   5.198   7.302  0.5556 -0.7351  0.6054
   81CHL1    H8 8415   0.531   5.300   7.344  1.9229  0.3652 -2.1684
   81CHL1   C14 8416   0.454   5.099   7.399 -1.1443 -0.2796  0.0646
   81CHL1   H14 8417   0.459   5.000   7.349  1.0822 -2.5752  4.5492
   81CHL1   C15 8418   0.314   5.114   7.442 -0.3311 -0.4869  0.4713
   81CHL1  H15A 8419   0.297   5.222   7.466 -1.4865 -0.4138 -0.6750
   81CHL1  H15B 8420   0.262   5.081   7.350 -0.3038  1.7616 -0.3948
   81CHL1   C16 8421   0.304   5.012   7.552  0.4335  0.4843  0.0553
   81CHL1  H16A 8422   0.257   5.059   7.641 -0.6201  1.2969 -0.9176
   81CHL1  H16B 8423   0.240   4.922   7.546  0.4513  0.4506  0.3672
   81CHL1   C17 8424   0.447   4.962   7.596  0.5340 -0.3499  0.2071
   81CHL1   H17 8425   0.460   4.860   7.552  1.1080 -0.8297  1.4671
   81CHL1   C13 8426   0.533   5.061   7.522 -1.1987 -0.8126 -0.1631
   81CHL1   C18 8427   0.556   5.188   7.609 -0.4832  0.3342  0.0582
   81CHL1  H18A 8428   0.631   5.176   7.690  0.1464 -0.0742 -0.5829
   81CHL1  H18B 8429   0.597   5.265   7.539 -1.7472 -0.7468 -1.9052
   81CHL1  H18C 8430   0.463   5.234   7.649 -0.7898  0.3045 -0.6153
   81CHL1   C12 8431   0.669   5.003   7.476 -0.4965 -0.6286 -0.5339
   81CHL1  H12A 8432   0.724   4.986   7.571  1.1463  0.1256 -1.3124
   81CHL1  H12B 8433   0.645   4.911   7.418 -1.6838 -0.4129 -0.3909
   81CHL1   C11 8434   0.745   5.107   7.386  0.2244  0.2394 -0.0697
   81CHL1  H11A 8435   0.774   5.196   7.447 -2.1658  0.2763  1.0669
   81CHL1  H11B 8436   0.829   5.056   7.334  0.4849  1.5919 -1.0113
   81CHL1    C9 8437   0.663   5.153   7.258 -0.4178 -0.1136  0.7343
   81CHL1    H9 8438   0.644   5.061   7.199 -0.0730  0.8986 -1.0044
   81CHL1   C10 8439   0.736   5.244   7.157  1.1276 -0.3296  0.0358
   81CHL1   C19 8440   0.818   5.349   7.240 -0.2437  0.8189  0.2265
   81CHL1  H19A 8441   0.922   5.319   7.265 -0.3830  0.6226  0.5610
   81CHL1  H19B 8442   0.822   5.442   7.179 -2.1919 -0.0476 -1.2822
   81CHL1  H19C 8443   0.781   5.377   7.341  1.4157 -0.6454  1.2715
   81CHL1    C1 8444   0.838   5.153   7.081 -0.2199 -0.2085 -0.1957
   81CHL1   H1A 8445   0.921   5.145   7.154  0.2010  0.9302 -0.5366
   81CHL1   H1B 8446   0.801   5.049   7.063  1.5305 -0.6107 -1.5732
   81CHL1    C2 8447   0.883   5.204   6.936 -0.8758 -0.2354 -0.2548
   81CHL1   H2A 8448   0.911   5.111   6.881 -0.0774 -1.8571  2.7534
   81CHL1   H2B 8449   0.976   5.262   6.952  0.3625 -2.0009 -0.9026
   81CHL1   C20 8450   0.464   4.940   7.749  0.1390 -0.9118  0.4174
   81CHL1   H20 8451   0.452   5.041   7.793  1.9859  0.2319 -1.6192
   81CHL1   C21 8452   0.611   4.897   7.787  0.4792  0.6465  0.2711
   81CHL1  H21A 8453   0.621   4.878   7.896  1.4642  0.3519  0.1339
   81CHL1  H21B 8454   0.687   4.977   7.769  0.2490  0.3304 -2.3554
   81CHL1  H21C 8455   0.644   4.808   7.730 -0.4477  0.1134  0.5751
   81CHL1   C22 8456   0.356   4.845   7.804  0.6831  0.3389  0.5311
   81CHL1  H22A 8457   0.257   4.870   7.760  0.9683 -0.7859 -0.7520
   81CHL1  H22B 8458   0.375   4.739   7.779 -1.9488 -0.3560  1.3180
   81CHL1   C23 8459   0.346   4.847   7.961  0.6593  0.1453  0.2665
   81CHL1  H23A 8460   0.444   4.823   8.007  0.5945  0.0397  0.3516
   81CHL1  H23B 8461   0.324   4.947   8.003  1.9891  0.1193  1.0585
   81CHL1   C24 8462   0.253   4.740   8.016 -0.5200 -0.4885  0.5366
   81CHL1  H24A 8463   0.163   4.730   7.952 -0.4766 -0.1124  0.4126
   81CHL1  H24B 8464   0.296   4.639   8.001 -1.2189 -0.5605 -1.1201
   81CHL1   C25 8465   0.213   4.763   8.160  0.7304 -0.0661  0.0137
   81CHL1   H25 8466   0.300   4.804   8.214 -0.0083  1.0798  0.3413
   81CHL1   C26 8467   0.094   4.857   8.178 -0.4208 -0.0687  0.1223
   81CHL1  H26A 8468   0.117   4.966   8.173 -1.0494  0.1156  0.9592
   81CHL1  H26B 8469   0.020   4.838   8.098 -2.7752  2.8609  1.4793
   81CHL1  H26C 8470   0.038   4.831   8.271  0.6147 -0.6892  0.5736
   81CHL1   C27 8471   0.177   4.622   8.215 -0.9656 -0.3137 -0.3155
   81CHL1  H27A 8472   0.079   4.587   8.177 -1.2699 -2.2880  2.0892
   81CHL1  H27B 8473   0.249   4.539   8.199 -0.4257 -0.1183  0.9878
   81CHL1  H27C 8474   0.171   4.631   8.326  0.1224 -2.0165 -0.0997
   82CHL1    C3 8475   1.787   6.038   7.037 -0.2750  0.2383  0.5951
   82CHL1    H3 8476   1.695   5.977   7.039  0.2260 -0.4901  2.6381
   82CHL1    O3 8477   1.857   6.025   6.912  0.6855  0.2284  0.1101
   82CHL1   H3' 8478   1.907   5.943   6.920  0.4658 -0.0168 -0.9112
   82CHL1    C4 8479   1.752   6.183   7.074 -0.3338  0.5473 -0.0699
   82CHL1   H4A 8480   1.844   6.244   7.065 -0.4982  0.6771 -0.9560
   82CHL1   H4B 8481   1.681   6.232   7.004 -0.5020 -0.0218 -0.3031
   82CHL1    C5 8482   1.701   6.204   7.219  0.3040  0.2604  0.2384
   82CHL1    C6 8483   1.586   6.269   7.242 -0.6051 -0.0849  0.0334
   82CHL1    H6 8484   1.522   6.300   7.158 -2.1531  0.8266  1.5049
   82CHL1    C7 8485   1.536   6.289   7.385 -0.1288  0.1558 -0.9881
   82CHL1   H7A 8486   1.527   6.399   7.394 -1.2047  0.3156 -3.4963
   82CHL1   H7B 8487   1.436   6.247   7.411  0.7750  0.8020  3.9871
   82CHL1    C8 8488   1.642   6.255   7.503 -0.5509  0.2031  0.2437
   82CHL1    H8 8489   1.716   6.337   7.515  1.6315 -1.4835 -1.2814
   82CHL1   C14 8490   1.571   6.244   7.634  0.5298  0.2106  0.2486
   82CHL1   H14 8491   1.506   6.155   7.626 -0.7019  1.3562 -3.2300
   82CHL1   C15 8492   1.479   6.366   7.674 -0.1685  0.1844 -0.1040
   82CHL1  H15A 8493   1.535   6.457   7.643  1.4848 -0.5669  0.6247
   82CHL1  H15B 8494   1.393   6.363   7.604  0.3402 -0.3776 -0.7120
   82CHL1   C16 8495   1.461   6.343   7.826 -0.6845  0.7538 -0.6740
   82CHL1  H16A 8496   1.498   6.435   7.874  0.1099  0.4512 -0.6947
   82CHL1  H16B 8497   1.354   6.325   7.850 -0.9115  1.8976 -0.8129
   82CHL1   C17 8498   1.552   6.227   7.872 -0.2689 -0.2637 -0.6618
   82CHL1   H17 8499   1.502   6.128   7.879  0.2530 -0.4337  1.2567
   82CHL1   C13 8500   1.656   6.209   7.760  0.8379 -0.3872 -0.3264
   82CHL1   C18 8501   1.764   6.319   7.785 -0.7856 -0.3736  0.1675
   82CHL1  H18A 8502   1.837   6.275   7.855 -0.1213 -2.1578 -1.5921
   82CHL1  H18B 8503   1.816   6.349   7.691 -2.2027  3.2733  0.4661
   82CHL1  H18C 8504   1.717   6.409   7.830 -0.9174 -0.2988 -0.1168
   82CHL1   C12 8505   1.720   6.069   7.729 -0.5458  0.4572  0.1883
   82CHL1  H12A 8506   1.783   6.021   7.807 -1.9783 -0.4771  0.8162
   82CHL1  H12B 8507   1.633   6.000   7.717 -0.7557  0.5614  1.0415
   82CHL1   C11 8508   1.799   6.063   7.588  0.3893 -0.6020 -0.7709
   82CHL1  H11A 8509   1.884   6.134   7.599 -0.1686  0.1553 -1.3415
   82CHL1  H11B 8510   1.842   5.965   7.559  2.1186  0.1396 -0.7929
   82CHL1    C9 8511   1.710   6.127   7.472  0.1483 -0.4116  0.1222
   82CHL1    H9 8512   1.637   6.044   7.463 -1.7124  1.2139 -0.0925
   82CHL1   C10 8513   1.785   6.135   7.336  0.0163  0.0920 -0.0055
   82CHL1   C19 8514   1.916   6.220   7.358  0.7380 -0.6078 -0.3405
   82CHL1  H19A 8515   1.973   6.217   7.262 -2.0672 -2.0132 -2.0151
   82CHL1  H19B 8516   1.890   6.324   7.385 -2.5704 -1.1048 -1.3893
   82CHL1  H19C 8517   1.982   6.182   7.439  0.0370 -1.0402  0.0257
   82CHL1    C1 8518   1.830   5.994   7.290 -0.2136 -1.1541  0.5507
   82CHL1   H1A 8519   1.912   5.966   7.359 -0.6238  0.6028  1.8034
   82CHL1   H1B 8520   1.746   5.921   7.301 -1.7387  0.4589 -0.0812
   82CHL1    C2 8521   1.878   5.977   7.143  0.0763  0.2284 -0.6150
   82CHL1   H2A 8522   1.889   5.868   7.124  2.5309  0.4229 -0.5341
   82CHL1   H2B 8523   1.976   6.029   7.139 -0.3766  1.2315  0.7999
   82CHL1   C20 8524   1.599   6.247   8.019 -1.4687  0.4529  0.2569
   82CHL1   H20 8525   1.669   6.331   8.038  0.0213 -0.6375 -0.3214
   82CHL1   C21 8526   1.649   6.111   8.071 -0.6632  0.5059 -0.4480
   82CHL1  H21A 8527   1.674   6.126   8.178  1.3354  1.5148 -1.0274
   82CHL1  H21B 8528   1.730   6.065   8.011  0.1513 -0.1220  1.1105
   82CHL1  H21C 8529   1.568   6.035   8.071 -0.2761  0.0719  1.3539
   82CHL1   C22 8530   1.482   6.287   8.113  0.3488 -0.6105 -0.6030
   82CHL1  H22A 8531   1.456   6.394   8.094 -1.5398 -1.0537 -0.6340
   82CHL1  H22B 8532   1.391   6.225   8.103  0.8541 -1.2423 -1.2921
   82CHL1   C23 8533   1.519   6.311   8.263  0.0362  0.4125  0.2581
   82CHL1  H23A 8534   1.491   6.220   8.321 -2.1207  0.9314  0.0805
   82CHL1  H23B 8535   1.628   6.329   8.261  0.0232  0.4202 -0.7089
   82CHL1   C24 8536   1.445   6.423   8.338  0.2439 -0.8222  0.0834
   82CHL1  H24A 8537   1.435   6.515   8.276 -1.0284 -1.2760 -0.4079
   82CHL1  H24B 8538   1.344   6.385   8.367 -0.0248 -0.0630  0.1702
   82CHL1   C25 8539   1.519   6.473   8.464 -0.0761  0.1718 -0.3680
   82CHL1   H25 8540   1.616   6.507   8.422  0.4079  0.4553  0.9802
   82CHL1   C26 8541   1.454   6.603   8.525  0.2748  0.3316 -0.1935
   82CHL1  H26A 8542   1.497   6.623   8.626 -2.4265  1.6395  0.7576
   82CHL1  H26B 8543   1.481   6.690   8.462 -3.4015  0.6484 -1.4806
   82CHL1  H26C 8544   1.343   6.593   8.521  0.3225 -0.2866  0.0273
   82CHL1   C27 8545   1.545   6.362   8.568  0.5399 -0.3368  1.0516
   82CHL1  H27A 8546   1.618   6.392   8.647  0.4669 -0.4261  1.1530
   82CHL1  H27B 8547   1.449   6.349   8.623 -1.9450  1.5216 -2.6671
   82CHL1  H27C 8548   1.584   6.267   8.526 -0.5752 -0.5498  0.4846
   83CHL1    C3 8549   4.568   0.909   7.123  0.2875  0.0963  0.4025
   83CHL1    H3 8550   4.668   0.943   7.090 -0.5835  2.7789  0.4253
   83CHL1    O3 8551   4.488   0.909   7.009  0.0706 -0.2877  0.1434
   83CHL1   H3' 8552   4.401   0.907   7.050 -0.0957  2.2273  0.0089
   83CHL1    C4 8553   4.561   0.770   7.187  0.0544 -0.1651  0.0024
   83CHL1   H4A 8554   4.454   0.756   7.209 -0.4731  0.1173 -2.2622
   83CHL1   H4B 8555   4.576   0.691   7.110  0.6377  1.0193 -1.1114
   83CHL1    C5 8556   4.633   0.761   7.319  0.0244 -0.1377  0.0426
   83CHL1    C6 8557   4.741   0.685   7.334 -0.7184 -0.8905 -0.1806
   83CHL1    H6 8558   4.778   0.619   7.254  0.6968 -0.6216  0.2330
   83CHL1    C7 8559   4.807   0.666   7.467  0.4145 -0.3010  0.5185
   83CHL1   H7A 8560   4.799   0.556   7.481  0.6700 -0.7976 -2.8334
   83CHL1   H7B 8561   4.915   0.687   7.459  0.8997 -2.9496 -0.1349
   83CHL1    C8 8562   4.727   0.732   7.586  0.0982  0.3181 -0.5497
   83CHL1    H8 8563   4.639   0.671   7.616  1.3507  0.1071  2.8853
   83CHL1   C14 8564   4.810   0.734   7.715  0.1608  0.5071 -0.2092
   83CHL1   H14 8565   4.900   0.795   7.693  0.5490  0.8104  2.1193
   83CHL1   C15 8566   4.866   0.602   7.768  0.3834 -0.0401  0.2437
   83CHL1  H15A 8567   4.780   0.536   7.790  0.2207 -0.0192 -0.3367
   83CHL1  H15B 8568   4.942   0.555   7.702  1.9940 -0.1016  2.0794
   83CHL1   C16 8569   4.911   0.642   7.909 -0.2557 -0.1300 -0.1431
   83CHL1  H16A 8570   4.868   0.575   7.987  2.1769 -1.1596  0.3661
   83CHL1  H16B 8571   5.022   0.647   7.915 -0.2682  0.4936 -0.3947
   83CHL1   C17 8572   4.864   0.790   7.939 -0.0163  0.7681  0.2368
   83CHL1   H17 8573   4.943   0.862   7.911 -0.3311  0.4960 -1.4119
   83CHL1   C13 8574   4.750   0.809   7.837  0.2791  0.4412  0.9225
   83CHL1   C18 8575   4.621   0.746   7.889  0.6478  0.0530  0.2168
   83CHL1  H18A 8576   4.630   0.638   7.915 -0.1944 -0.3423 -1.1152
   83CHL1  H18B 8577   4.588   0.797   7.982 -1.2307  0.3157 -0.5812
   83CHL1  H18C 8578   4.538   0.747   7.816  0.3850 -0.7465  0.5017
   83CHL1   C12 8579   4.717   0.949   7.785 -0.3429 -1.4578  0.4512
   83CHL1  H12A 8580   4.694   1.018   7.869 -2.2822 -0.7716 -0.6126
   83CHL1  H12B 8581   4.812   0.987   7.742 -1.5872 -3.2431 -4.2504
   83CHL1   C11 8582   4.623   0.957   7.668  0.5138 -0.5020 -0.2560
   83CHL1  H11A 8583   4.522   0.930   7.705  0.1338  0.9110 -0.2368
   83CHL1  H11B 8584   4.604   1.063   7.639  0.7966 -0.2441  0.4905
   83CHL1    C9 8585   4.680   0.873   7.550 -0.5774  0.5949  0.3869
   83CHL1    H9 8586   4.778   0.915   7.519 -0.8904  2.9181  2.3781
   83CHL1   C10 8587   4.583   0.865   7.421  0.8274 -0.2722  0.3881
   83CHL1   C19 8588   4.439   0.825   7.478  0.4010 -1.0787 -0.3285
   83CHL1  H19A 8589   4.440   0.719   7.512 -0.9829 -1.0939 -0.3357
   83CHL1  H19B 8590   4.390   0.896   7.548 -2.1729 -2.4558 -0.6944
   83CHL1  H19C 8591   4.364   0.816   7.397 -1.7367  3.6232  0.9839
   83CHL1    C1 8592   4.582   1.008   7.357 -0.6867  0.4850 -0.3585
   83CHL1   H1A 8593   4.525   1.073   7.427 -0.6094  0.1741 -0.0051
   83CHL1   H1B 8594   4.685   1.049   7.361  0.3865 -2.0011 -1.1753
   83CHL1    C2 8595   4.514   1.011   7.223  0.0200  0.6529 -0.0302
   83CHL1   H2A 8596   4.521   1.115   7.182 -1.1637 -0.2389 -2.5827
   83CHL1   H2B 8597   4.407   0.987   7.238  0.2454  0.5561  1.4597
   83CHL1   C20 8598   4.834   0.812   8.093 -0.3845 -0.4993 -0.4803
   83CHL1   H20 8599   4.742   0.759   8.123 -0.3025  1.5535  3.6670
   83CHL1   C21 8600   4.804   0.966   8.102 -0.3360  0.3214  0.3583
   83CHL1  H21A 8601   4.874   1.024   8.039  1.4441 -0.9206  1.1728
   83CHL1  H21B 8602   4.803   1.003   8.207 -0.6085  2.0773 -0.2532
   83CHL1  H21C 8603   4.700   0.977   8.063 -0.5466  0.2917  0.8970
   83CHL1   C22 8604   4.953   0.773   8.186  0.2584 -0.4797  0.2594
   83CHL1  H22A 8605   4.971   0.665   8.165 -2.4547 -0.9392  0.0714
   83CHL1  H22B 8606   5.044   0.834   8.165 -0.0972  0.1242  0.4505
   83CHL1   C23 8607   4.919   0.770   8.343 -0.2150  0.5467 -0.7531
   83CHL1  H23A 8608   5.005   0.733   8.402 -1.1553  0.0210  0.3182
   83CHL1  H23B 8609   4.905   0.878   8.365 -0.4199  0.9284 -2.6824
   83CHL1   C24 8610   4.797   0.684   8.392  0.1929 -0.2176  0.5155
   83CHL1  H24A 8611   4.713   0.742   8.347  3.1211  2.0596 -2.2251
   83CHL1  H24B 8612   4.819   0.581   8.360 -2.3037 -0.6066 -0.0770
   83CHL1   C25 8613   4.776   0.666   8.541  0.1445 -0.8228 -0.1428
   83CHL1   H25 8614   4.875   0.640   8.584  0.9260 -2.1383 -2.6777
   83CHL1   C26 8615   4.735   0.803   8.602 -0.1438 -0.3632  0.3762
   83CHL1  H26A 8616   4.645   0.840   8.546  0.8344  2.1632  0.3943
   83CHL1  H26B 8617   4.720   0.801   8.712  3.0255  0.1518  0.8541
   83CHL1  H26C 8618   4.818   0.875   8.593 -0.9337  0.5324  0.1152
   83CHL1   C27 8619   4.674   0.565   8.576 -0.0160 -0.0597  0.3087
   83CHL1  H27A 8620   4.594   0.562   8.499 -1.1400 -1.8006  1.5037
   83CHL1  H27B 8621   4.719   0.463   8.574 -1.2668 -0.6679  1.7079
   83CHL1  H27C 8622   4.635   0.579   8.679 -0.6659 -2.1239  0.3718
   84CHL1    C3 8623   6.748   3.693   7.008 -0.4094  0.5319  0.2163
   84CHL1    H3 8624   6.664   3.621   6.998  0.8575 -0.9632  0.1281
   84CHL1    O3 8625   6.775   3.758   6.885  0.3398  0.0930  0.1640
   84CHL1   H3' 8626   6.700   3.817   6.871 -0.4204 -1.2142 -1.3490
   84CHL1    C4 8627   6.699   3.799   7.106  0.4598 -0.0289  0.4034
   84CHL1   H4A 8628   6.770   3.882   7.089  1.5696 -1.3100 -1.4066
   84CHL1   H4B 8629   6.601   3.835   7.067  1.0268  0.8998 -0.1877
   84CHL1    C5 8630   6.686   3.751   7.248  0.1632 -0.1168 -0.3677
   84CHL1    C6 8631   6.570   3.755   7.314 -0.5676 -0.2888  0.4923
   84CHL1    H6 8632   6.481   3.802   7.269 -0.5389  0.0570  0.7986
   84CHL1    C7 8633   6.559   3.717   7.460  0.5345 -0.2552  0.5490
   84CHL1   H7A 8634   6.490   3.783   7.517  2.2004 -0.9421  3.4639
   84CHL1   H7B 8635   6.508   3.618   7.467 -3.8998  1.8568 -0.0605
   84CHL1    C8 8636   6.700   3.705   7.532  0.5918 -0.4049 -0.4618
   84CHL1    H8 8637   6.742   3.808   7.539  1.7264 -0.9644  1.5570
   84CHL1   C14 8638   6.684   3.634   7.673  0.0545 -0.1807  0.1101
   84CHL1   H14 8639   6.651   3.533   7.640  0.3307 -0.2385  0.0118
   84CHL1   C15 8640   6.587   3.689   7.772  0.1719 -0.1588  0.0555
   84CHL1  H15A 8641   6.591   3.798   7.754  1.4193 -0.4751 -1.8197
   84CHL1  H15B 8642   6.487   3.645   7.752 -1.2071  3.9899 -2.8084
   84CHL1   C16 8643   6.639   3.659   7.916  0.4095 -0.2716  0.2652
   84CHL1  H16A 8644   6.664   3.755   7.966  0.3593  0.1995 -0.6070
   84CHL1  H16B 8645   6.567   3.609   7.984  1.5458  0.9889  2.4205
   84CHL1   C17 8646   6.767   3.561   7.891 -0.1097  0.0477  0.5933
   84CHL1   H17 8647   6.742   3.454   7.880  0.9359 -0.2191  0.7320
   84CHL1   C13 8648   6.822   3.620   7.752 -0.6875  0.3870 -0.7687
   84CHL1   C18 8649   6.886   3.760   7.781 -0.0040  0.0259 -0.4538
   84CHL1  H18A 8650   6.813   3.821   7.837  1.1700  1.1088 -0.0777
   84CHL1  H18B 8651   6.986   3.746   7.828 -1.6620 -0.4568  3.0318
   84CHL1  H18C 8652   6.885   3.810   7.682  1.6067 -1.5936 -1.3275
   84CHL1   C12 8653   6.907   3.521   7.663 -0.0906  0.4668 -0.0892
   84CHL1  H12A 8654   7.007   3.516   7.711  0.9528 -3.7938 -2.4644
   84CHL1  H12B 8655   6.864   3.419   7.676  0.3832  0.1233 -1.1766
   84CHL1   C11 8656   6.925   3.572   7.520  0.0171 -0.0752  0.2614
   84CHL1  H11A 8657   7.004   3.651   7.522  0.9450 -1.0290  2.2003
   84CHL1  H11B 8658   6.977   3.494   7.461  0.1514  0.0256  0.2448
   84CHL1    C9 8659   6.790   3.622   7.442  0.8878  0.6293 -0.5561
   84CHL1    H9 8660   6.733   3.527   7.432 -0.5591  1.4306 -0.0296
   84CHL1   C10 8661   6.812   3.683   7.302  0.0989 -0.3742  0.2544
   84CHL1   C19 8662   6.923   3.796   7.317  0.0209  0.6689  0.2457
   84CHL1  H19A 8663   6.910   3.869   7.234 -0.0321  1.1752  0.6949
   84CHL1  H19B 8664   6.911   3.842   7.418  1.0968  0.3073  0.5429
   84CHL1  H19C 8665   7.031   3.770   7.323 -0.1347 -0.3359 -1.1546
   84CHL1    C1 8666   6.863   3.569   7.204 -0.1728  0.0219 -0.4030
   84CHL1   H1A 8667   6.965   3.534   7.234 -0.4817 -1.8736 -1.4740
   84CHL1   H1B 8668   6.796   3.480   7.206 -1.4996  1.0164 -0.0014
   84CHL1    C2 8669   6.869   3.613   7.055  0.0450 -0.4341 -0.5902
   84CHL1   H2A 8670   6.883   3.517   7.001 -0.9493 -0.9479  0.0770
   84CHL1   H2B 8671   6.965   3.669   7.047 -0.4822  0.5943  0.2082
   84CHL1   C20 8672   6.858   3.567   8.016 -0.2232  0.2564 -0.2120
   84CHL1   H20 8673   6.891   3.672   8.035 -1.4677  0.7387 -0.7098
   84CHL1   C21 8674   6.986   3.486   7.998  0.5600  0.2240 -0.3327
   84CHL1  H21A 8675   7.044   3.493   8.092 -0.6264  0.8107  0.3602
   84CHL1  H21B 8676   7.039   3.532   7.911 -0.4154 -1.1230 -1.6624
   84CHL1  H21C 8677   6.960   3.383   7.968 -0.3260  0.5755 -0.7805
   84CHL1   C22 8678   6.779   3.516   8.139 -0.2119  0.2389 -0.0037
   84CHL1  H22A 8679   6.674   3.553   8.139  0.0045  0.8565 -0.6737
   84CHL1  H22B 8680   6.767   3.406   8.130  1.9331  0.2233 -3.3086
   84CHL1   C23 8681   6.842   3.561   8.276  0.3041  0.7729 -0.4136
   84CHL1  H23A 8682   6.936   3.502   8.276  1.6341  2.8462 -0.8580
   84CHL1  H23B 8683   6.871   3.668   8.269  0.3760  0.8822  1.3427
   84CHL1   C24 8684   6.753   3.560   8.399 -0.2755  0.6328 -0.0192
   84CHL1  H24A 8685   6.667   3.624   8.371  0.3482  0.8995 -1.3373
   84CHL1  H24B 8686   6.701   3.464   8.421 -0.5716  0.3877 -1.7630
   84CHL1   C25 8687   6.817   3.618   8.518  1.5570  0.1584 -0.5164
   84CHL1   H25 8688   6.840   3.725   8.498  1.6186  0.1278 -0.6101
   84CHL1   C26 8689   6.703   3.604   8.630  0.4417 -0.6589  0.7468
   84CHL1  H26A 8690   6.608   3.649   8.595  0.2932  0.4597  2.5297
   84CHL1  H26B 8691   6.695   3.498   8.662  0.3764 -0.4813  1.3284
   84CHL1  H26C 8692   6.739   3.670   8.712 -0.5331  1.0101 -0.1193
   84CHL1   C27 8693   6.957   3.552   8.547  0.0415  0.0493 -0.0041
   84CHL1  H27A 8694   7.026   3.586   8.467  0.3401  1.1546  0.7013
   84CHL1  H27B 8695   6.984   3.601   8.643 -0.0021  2.7370 -1.2925
   84CHL1  H27C 8696   6.943   3.442   8.553 -1.6493  0.0856 -2.6400
   85CHL1    C3 8697   6.087   0.460   6.632  0.0745  0.3602  0.6443
   85CHL1    H3 8698   5.992   0.516   6.642 -1.1748 -1.4937 -0.3555
   85CHL1    O3 8699   6.079   0.426   6.494 -0.2519 -0.0254  0.0392
   85CHL1   H3' 8700   6.149   0.474   6.449  2.1089  1.1477  4.7192
   85CHL1    C4 8701   6.203   0.552   6.665 -0.2114 -0.1555  0.4436
   85CHL1   H4A 8702   6.305   0.520   6.636  0.3055  3.7718 -2.4448
   85CHL1   H4B 8703   6.187   0.650   6.616  0.0556 -1.0047 -1.4046
   85CHL1    C5 8704   6.197   0.564   6.815 -0.7047 -0.2242  0.2777
   85CHL1    C6 8705   6.201   0.685   6.875  0.1959 -0.2676 -0.4455
   85CHL1    H6 8706   6.190   0.771   6.808 -3.1392  0.2360  0.6803
   85CHL1    C7 8707   6.224   0.716   7.024  0.1013  0.5587 -0.2775
   85CHL1   H7A 8708   6.302   0.794   7.033 -0.7051  1.2289  1.1444
   85CHL1   H7B 8709   6.136   0.768   7.067 -1.5035 -0.8381 -1.7608
   85CHL1    C8 8710   6.268   0.591   7.100 -0.6915  0.1132 -0.5611
   85CHL1    H8 8711   6.374   0.569   7.075 -0.8670 -1.5845  0.1126
   85CHL1   C14 8712   6.267   0.613   7.249  0.2038  0.6524  0.0903
   85CHL1   H14 8713   6.165   0.648   7.279  0.0735  1.3563 -1.1225
   85CHL1   C15 8714   6.371   0.725   7.287  0.4586  0.0722  0.4061
   85CHL1  H15A 8715   6.461   0.730   7.221 -0.1980 -1.6544 -0.6523
   85CHL1  H15B 8716   6.312   0.819   7.289 -0.7204 -0.6677  0.5351
   85CHL1   C16 8717   6.404   0.686   7.430  0.1209  0.1561  1.0669
   85CHL1  H16A 8718   6.513   0.665   7.444  0.9945  2.7253 -1.4008
   85CHL1  H16B 8719   6.382   0.774   7.494 -1.9901  1.5907 -1.4926
   85CHL1   C17 8720   6.338   0.552   7.463  0.4838  0.0704 -0.3737
   85CHL1   H17 8721   6.244   0.590   7.508 -0.1525 -1.8478 -0.0342
   85CHL1   C13 8722   6.306   0.487   7.326 -0.1674 -0.0514  0.7165
   85CHL1   C18 8723   6.447   0.428   7.284 -0.5165  0.6344  0.2012
   85CHL1  H18A 8724   6.473   0.340   7.346 -3.5519 -0.0748  0.5258
   85CHL1  H18B 8725   6.458   0.395   7.179  1.0797  1.0654  0.2195
   85CHL1  H18C 8726   6.529   0.502   7.298  1.0206 -0.7961 -1.0424
   85CHL1   C12 8727   6.186   0.392   7.310  0.7183 -0.8531 -0.3265
   85CHL1  H12A 8728   6.196   0.294   7.361 -1.0065 -0.4921  0.7229
   85CHL1  H12B 8729   6.086   0.435   7.332 -0.6787 -3.2908 -1.7598
   85CHL1   C11 8730   6.182   0.354   7.160  0.3458 -1.1245  0.2258
   85CHL1  H11A 8731   6.272   0.292   7.139  0.6778 -1.3952  2.3792
   85CHL1  H11B 8732   6.091   0.295   7.136  0.9221 -0.7631 -3.0844
   85CHL1    C9 8733   6.182   0.472   7.057 -0.0182 -0.9453 -0.3271
   85CHL1    H9 8734   6.081   0.513   7.076 -0.4072 -1.1737 -1.8313
   85CHL1   C10 8735   6.204   0.438   6.904 -0.2963 -0.0306  0.3947
   85CHL1   C19 8736   6.345   0.371   6.887 -0.4548 -0.0079  0.5122
   85CHL1  H19A 8737   6.424   0.441   6.920  1.8635 -2.2111 -0.1705
   85CHL1  H19B 8738   6.354   0.283   6.953 -0.4704 -0.4365 -0.0522
   85CHL1  H19C 8739   6.361   0.328   6.786  2.1486 -1.0100  1.3337
   85CHL1    C1 8740   6.089   0.346   6.856  0.8054  0.0264  0.5732
   85CHL1   H1A 8741   6.109   0.252   6.912 -1.4129  0.1944  1.6899
   85CHL1   H1B 8742   5.993   0.396   6.881 -0.2185 -2.2367  1.3927
   85CHL1    C2 8743   6.095   0.327   6.701 -0.5972  0.1553 -0.3227
   85CHL1   H2A 8744   6.004   0.271   6.670 -2.6759  2.6731  1.0694
   85CHL1   H2B 8745   6.179   0.262   6.669 -0.5166  0.1941 -0.1883
   85CHL1   C20 8746   6.405   0.478   7.581  0.5189  0.3125  0.1467
   85CHL1   H20 8747   6.515   0.473   7.569  0.7607  0.8998  1.9815
   85CHL1   C21 8748   6.341   0.339   7.605 -0.3641  0.2618  0.2112
   85CHL1  H21A 8749   6.230   0.337   7.602 -0.3800  2.0784 -1.8433
   85CHL1  H21B 8750   6.368   0.288   7.700  0.9609  0.3139 -0.1282
   85CHL1  H21C 8751   6.373   0.266   7.527 -0.8478 -0.5276  0.7415
   85CHL1   C22 8752   6.377   0.563   7.711 -0.4059 -0.5467 -0.2562
   85CHL1  H22A 8753   6.391   0.671   7.691 -0.3588 -0.7280 -1.2350
   85CHL1  H22B 8754   6.267   0.555   7.730 -0.3921 -0.8397 -0.2934
   85CHL1   C23 8755   6.450   0.521   7.840 -0.7650 -1.1360 -0.4411
   85CHL1  H23A 8756   6.417   0.417   7.859  0.6573 -1.7527 -1.2278
   85CHL1  H23B 8757   6.558   0.521   7.815 -1.0587  0.5620 -1.7927
   85CHL1   C24 8758   6.416   0.601   7.968  0.0120 -0.2646  0.8233
   85CHL1  H24A 8759   6.434   0.708   7.943 -1.0127  0.0552  1.4109
   85CHL1  H24B 8760   6.305   0.603   7.976 -0.1728 -2.4424 -0.7468
   85CHL1   C25 8761   6.499   0.541   8.087 -0.1457  0.2963 -0.7448
   85CHL1   H25 8762   6.519   0.436   8.056  0.2121  0.3269 -0.6296
   85CHL1   C26 8763   6.639   0.604   8.104  0.2896  0.3055  0.6984
   85CHL1  H26A 8764   6.630   0.714   8.121  0.8173  0.1452  2.0726
   85CHL1  H26B 8765   6.696   0.554   8.185  0.8729  1.1464  0.8177
   85CHL1  H26C 8766   6.682   0.580   8.004 -1.8062 -0.3432 -0.0765
   85CHL1   C27 8767   6.418   0.534   8.226 -0.7537  1.1419 -0.0892
   85CHL1  H27A 8768   6.442   0.442   8.284 -0.2627 -0.2368 -2.4111
   85CHL1  H27B 8769   6.432   0.628   8.283 -1.3343  1.1349  0.0651
   85CHL1  H27C 8770   6.314   0.524   8.187 -0.3902  1.0613 -1.0586
   86CHL1    C3 8771   1.609   5.574   6.972 -0.1452 -0.0106  0.6400
   86CHL1    H3 8772   1.712   5.603   6.942 -0.6801  2.8773  1.4354
   86CHL1    O3 8773   1.536   5.563   6.854 -0.0014  0.2680 -1.0677
   86CHL1   H3' 8774   1.516   5.649   6.818 -0.2007 -0.7179 -3.4159
   86CHL1    C4 8775   1.608   5.439   7.044  0.3277 -0.1807 -1.1698
   86CHL1   H4A 8776   1.500   5.419   7.062  0.2678  0.9755 -0.2437
   86CHL1   H4B 8777   1.641   5.354   6.981  3.6326 -1.5080  2.1932
   86CHL1    C5 8778   1.687   5.446   7.176  0.3947 -0.1944 -0.1313
   86CHL1    C6 8779   1.795   5.371   7.190 -0.0735 -0.1984  0.0309
   86CHL1    H6 8780   1.820   5.316   7.099 -2.4219  2.0458 -2.0532
   86CHL1    C7 8781   1.875   5.379   7.322  0.5970  0.1987 -0.0314
   86CHL1   H7A 8782   1.902   5.278   7.359 -0.4011  0.1697  0.6416
   86CHL1   H7B 8783   1.974   5.426   7.303  0.4244  1.2419  1.4837
   86CHL1    C8 8784   1.803   5.450   7.435  0.2057 -0.1554  0.2502
   86CHL1    H8 8785   1.720   5.382   7.460  0.8365 -0.2778  2.1287
   86CHL1   C14 8786   1.899   5.460   7.549 -0.1010  0.4066 -0.0858
   86CHL1   H14 8787   1.977   5.527   7.507  0.2040 -0.5816 -1.1221
   86CHL1   C15 8788   1.959   5.331   7.605 -0.3542  0.2827 -0.3380
   86CHL1  H15A 8789   1.873   5.263   7.625  0.3795 -0.6490 -0.3406
   86CHL1  H15B 8790   2.025   5.276   7.535 -0.7253 -0.9776  0.2876
   86CHL1   C16 8791   2.010   5.376   7.744 -0.9992 -0.4062 -0.0621
   86CHL1  H16A 8792   1.965   5.314   7.824 -1.1894 -1.1786 -0.7507
   86CHL1  H16B 8793   2.119   5.356   7.753 -0.7204  0.7583 -0.8079
   86CHL1   C17 8794   1.968   5.525   7.762  0.1708 -0.4518  0.6998
   86CHL1   H17 8795   2.051   5.585   7.721  0.3096 -1.5299 -0.6386
   86CHL1   C13 8796   1.845   5.537   7.668 -0.2631  0.4385  0.0578
   86CHL1   C18 8797   1.727   5.464   7.730 -0.1178  0.3622 -0.0067
   86CHL1  H18A 8798   1.646   5.539   7.736 -0.5536 -0.2280  1.8429
   86CHL1  H18B 8799   1.687   5.388   7.659  0.4631  0.8604 -0.8763
   86CHL1  H18C 8800   1.740   5.423   7.832  3.1038  0.7252 -0.1920
   86CHL1   C12 8801   1.811   5.680   7.610  0.5276  0.1360 -0.0817
   86CHL1  H12A 8802   1.783   5.746   7.695  0.3828  0.6441 -0.5259
   86CHL1  H12B 8803   1.900   5.722   7.560  0.5056  1.0873  0.6696
   86CHL1   C11 8804   1.703   5.674   7.512  0.6665 -0.7731  0.1661
   86CHL1  H11A 8805   1.610   5.639   7.563  1.6195 -0.0810  2.4044
   86CHL1  H11B 8806   1.685   5.775   7.469  1.2729 -0.1386  1.3867
   86CHL1    C9 8807   1.748   5.583   7.388 -0.1362 -0.1316  0.2678
   86CHL1    H9 8808   1.832   5.639   7.343  1.4693 -1.2204  1.8525
   86CHL1   C10 8809   1.651   5.562   7.276  0.3484  0.0612  0.1708
   86CHL1   C19 8810   1.510   5.522   7.323 -0.2129  0.1283  0.5948
   86CHL1  H19A 8811   1.474   5.600   7.394  2.1065  1.5009  0.3294
   86CHL1  H19B 8812   1.437   5.527   7.240 -0.0975 -0.5120  0.4572
   86CHL1  H19C 8813   1.511   5.421   7.368 -1.4512  0.8434  2.2881
   86CHL1    C1 8814   1.636   5.695   7.194  0.1658 -1.0090 -0.3553
   86CHL1   H1A 8815   1.597   5.777   7.258  0.1923 -2.0495  1.0336
   86CHL1   H1B 8816   1.737   5.725   7.157  0.2345 -1.7346 -0.7760
   86CHL1    C2 8817   1.553   5.686   7.061 -0.7101 -0.2131 -0.0459
   86CHL1   H2A 8818   1.567   5.780   7.004  0.4442  0.3103  1.0968
   86CHL1   H2B 8819   1.447   5.659   7.080 -0.1180 -1.7770  1.1157
   86CHL1   C20 8820   1.946   5.562   7.907 -0.8439 -0.5036  0.5482
   86CHL1   H20 8821   1.883   5.490   7.965 -1.6920  0.6367  1.0566
   86CHL1   C21 8822   1.880   5.700   7.922 -0.1598  0.3578  0.2436
   86CHL1  H21A 8823   1.771   5.684   7.905 -0.9093  3.8675  1.4477
   86CHL1  H21B 8824   1.927   5.778   7.859  1.6999 -0.7100  0.2640
   86CHL1  H21C 8825   1.882   5.734   8.028 -0.2310 -1.5891  0.9058
   86CHL1   C22 8826   2.082   5.547   7.986 -0.5254  0.2596 -0.2947
   86CHL1  H22A 8827   2.048   5.541   8.092 -1.9007 -0.8450 -0.7905
   86CHL1  H22B 8828   2.135   5.454   7.957  0.5681 -0.1014  2.6498
   86CHL1   C23 8829   2.189   5.654   7.981 -0.3246 -0.5039  0.6464
   86CHL1  H23A 8830   2.201   5.687   7.876  1.2745  0.3723  1.0757
   86CHL1  H23B 8831   2.148   5.740   8.038  0.5922  1.3981 -1.4911
   86CHL1   C24 8832   2.319   5.612   8.054 -0.2370 -0.2744  0.5416
   86CHL1  H24A 8833   2.279   5.565   8.147  1.2726 -0.4721  1.1143
   86CHL1  H24B 8834   2.358   5.527   7.994 -1.7206 -0.1718 -0.5790
   86CHL1   C25 8835   2.422   5.728   8.066  0.2126 -0.0247  0.2690
   86CHL1   H25 8836   2.517   5.695   8.113  0.3035 -0.7241 -0.3824
   86CHL1   C26 8837   2.445   5.800   7.934 -0.0494 -0.2639 -0.4120
   86CHL1  H26A 8838   2.550   5.834   7.922 -0.1157 -0.7907 -2.9004
   86CHL1  H26B 8839   2.426   5.739   7.843 -3.9060  1.7118 -1.0772
   86CHL1  H26C 8840   2.382   5.891   7.922  0.4849 -0.1462 -2.6155
   86CHL1   C27 8841   2.359   5.830   8.168 -0.1468 -0.2173  0.1829
   86CHL1  H27A 8842   2.347   5.778   8.266  2.5944  0.1614  0.7525
   86CHL1  H27B 8843   2.427   5.918   8.162 -2.2451  1.3497 -1.3036
   86CHL1  H27C 8844   2.258   5.858   8.131  0.4855 -0.3665 -1.6677
   87CHL1    C3 8845   2.556   4.015   6.953  0.6098  0.3653 -0.7056
   87CHL1    H3 8846   2.527   4.119   6.976 -0.7571 -0.2210  0.2727
   87CHL1    O3 8847   2.553   3.999   6.817  0.1733 -0.3244  0.4838
   87CHL1   H3' 8848   2.640   4.023   6.785  0.0999  1.4440  1.5173
   87CHL1    C4 8849   2.693   3.976   7.016  0.0207 -0.1328  0.4754
   87CHL1   H4A 8850   2.709   3.872   6.980  1.6719  1.0365 -2.3250
   87CHL1   H4B 8851   2.776   4.033   6.969  1.1369 -1.3484  0.9320
   87CHL1    C5 8852   2.691   3.981   7.167 -0.5162  0.0196  0.5233
   87CHL1    C6 8853   2.777   4.065   7.229  0.3452 -0.3104  0.2450
   87CHL1    H6 8854   2.840   4.125   7.162  0.8528 -0.9118  0.1842
   87CHL1    C7 8855   2.796   4.069   7.383  0.0297  0.4338 -0.1608
   87CHL1   H7A 8856   2.904   4.054   7.401  0.1094 -1.9375 -2.3589
   87CHL1   H7B 8857   2.766   4.168   7.423 -0.9367 -0.4629  1.3999
   87CHL1    C8 8858   2.726   3.951   7.452 -0.8749  0.1238 -0.7049
   87CHL1    H8 8859   2.807   3.875   7.445  1.0929  2.0265  0.8271
   87CHL1   C14 8860   2.694   3.976   7.594  1.5344  0.4732  0.0165
   87CHL1   H14 8861   2.623   4.061   7.598 -0.9739 -1.6311  1.4085
   87CHL1   C15 8862   2.805   4.025   7.684 -0.6032  0.3018  0.1547
   87CHL1  H15A 8863   2.897   3.977   7.644 -0.2110  0.5522  0.7451
   87CHL1  H15B 8864   2.809   4.134   7.663  0.3670  0.3820  0.7301
   87CHL1   C16 8865   2.765   3.989   7.831  0.1091 -0.7410  0.6112
   87CHL1  H16A 8866   2.852   3.924   7.855  0.3257 -0.8637 -0.4796
   87CHL1  H16B 8867   2.758   4.074   7.903 -1.4411 -0.4332  0.1179
   87CHL1   C17 8868   2.635   3.902   7.822  0.6388 -0.4754  0.4156
   87CHL1   H17 8869   2.550   3.973   7.830  1.6700  0.6398  1.9697
   87CHL1   C13 8870   2.635   3.861   7.674 -0.3035  0.6478  0.6240
   87CHL1   C18 8871   2.735   3.739   7.665 -0.4143 -0.0588 -0.1976
   87CHL1  H18A 8872   2.752   3.703   7.562  0.0719 -1.8819  0.4964
   87CHL1  H18B 8873   2.834   3.777   7.697  0.8307 -0.8546 -2.9746
   87CHL1  H18C 8874   2.695   3.659   7.732 -0.6817  1.2420  1.2295
   87CHL1   C12 8875   2.493   3.831   7.614  0.1110  0.5197 -0.3552
   87CHL1  H12A 8876   2.438   3.744   7.656  0.9436  0.4523  0.6120
   87CHL1  H12B 8877   2.434   3.924   7.621  0.8803  0.9867  0.0210
   87CHL1   C11 8878   2.495   3.812   7.465  0.7114 -0.2846 -0.0594
   87CHL1  H11A 8879   2.553   3.719   7.447  2.0422  0.6826 -0.8149
   87CHL1  H11B 8880   2.394   3.799   7.421  0.5129 -1.7510  0.8012
   87CHL1    C9 8881   2.589   3.916   7.388 -0.2424 -1.0349  0.4602
   87CHL1    H9 8882   2.533   4.011   7.404  1.1842  0.0948 -1.1215
   87CHL1   C10 8883   2.595   3.892   7.235  0.0893  0.3379  0.3586
   87CHL1   C19 8884   2.642   3.745   7.222 -0.4551 -0.6251  0.5461
   87CHL1  H19A 8885   2.648   3.722   7.114  1.7572  2.2821 -0.0223
   87CHL1  H19B 8886   2.744   3.729   7.264  0.1113 -0.5315 -0.7730
   87CHL1  H19C 8887   2.583   3.665   7.271  0.9362  0.1052  3.5717
   87CHL1    C1 8888   2.456   3.908   7.171  0.0825  0.0629 -1.0287
   87CHL1   H1A 8889   2.390   3.824   7.201 -1.4299  0.9651 -1.7913
   87CHL1   H1B 8890   2.406   3.998   7.214 -1.1270 -0.7440 -0.7312
   87CHL1    C2 8891   2.448   3.919   7.016 -0.5236 -0.6400  0.2366
   87CHL1   H2A 8892   2.345   3.944   6.981 -0.3932 -2.2805 -1.4133
   87CHL1   H2B 8893   2.470   3.817   6.977  0.8489 -0.2879  0.0579
   87CHL1   C20 8894   2.612   3.808   7.942  0.0351  1.0436 -0.1630
   87CHL1   H20 8895   2.685   3.724   7.941 -2.8636 -1.5724  0.8057
   87CHL1   C21 8896   2.473   3.736   7.939  0.2424  0.2570 -0.5582
   87CHL1  H21A 8897   2.472   3.668   8.027  0.1339 -0.3359 -1.0151
   87CHL1  H21B 8898   2.448   3.680   7.846 -1.3189  0.9524 -0.5937
   87CHL1  H21C 8899   2.394   3.813   7.958  0.8214  0.0494  3.0089
   87CHL1   C22 8900   2.630   3.878   8.079 -0.9875  0.1520  0.9421
   87CHL1  H22A 8901   2.727   3.932   8.075 -2.7963  3.4760 -1.2266
   87CHL1  H22B 8902   2.555   3.952   8.114  0.5897  2.3450 -0.1587
   87CHL1   C23 8903   2.658   3.777   8.194 -0.2213 -0.1307 -0.6699
   87CHL1  H23A 8904   2.562   3.723   8.209  0.3692 -1.0943 -0.2726
   87CHL1  H23B 8905   2.743   3.709   8.171 -0.5977 -0.8689  0.1230
   87CHL1   C24 8906   2.691   3.852   8.330 -0.2772 -0.2439  0.1225
   87CHL1  H24A 8907   2.785   3.908   8.314 -1.2952  1.0683 -1.3079
   87CHL1  H24B 8908   2.615   3.931   8.349  0.5403 -0.0026  2.6130
   87CHL1   C25 8909   2.706   3.754   8.453  0.4263 -0.5268 -0.5926
   87CHL1   H25 8910   2.621   3.684   8.466  0.6591 -1.2209 -2.7403
   87CHL1   C26 8911   2.821   3.664   8.423  0.6675  0.3783 -0.4684
   87CHL1  H26A 8912   2.912   3.724   8.401  2.4429 -1.9062  0.3832
   87CHL1  H26B 8913   2.847   3.609   8.516  1.4727  0.8761 -0.3926
   87CHL1  H26C 8914   2.788   3.590   8.347 -1.6910  0.2600  0.6379
   87CHL1   C27 8915   2.735   3.839   8.580 -0.4098 -0.2410  0.7967
   87CHL1  H27A 8916   2.650   3.906   8.604  0.4847  0.6385  1.5101
   87CHL1  H27B 8917   2.757   3.782   8.673 -0.9266  2.2344  2.4692
   87CHL1  H27C 8918   2.827   3.898   8.559 -1.2744  1.1426  0.8252
   88CHL1    C3 8919   5.867   2.352   7.031 -0.0444  0.8161  1.1197
   88CHL1    H3 8920   5.976   2.357   7.009  0.3317  0.0408  2.7244
   88CHL1    O3 8921   5.792   2.349   6.911  0.2069  0.2926 -0.2960
   88CHL1   H3' 8922   5.818   2.275   6.856 -1.9249 -2.0012  1.6238
   88CHL1    C4 8923   5.840   2.216   7.101 -0.1957 -0.1516  0.4490
   88CHL1   H4A 8924   5.733   2.189   7.093 -0.2108 -0.0333  0.2633
   88CHL1   H4B 8925   5.881   2.131   7.041  2.7769 -0.3817  2.6801
   88CHL1    C5 8926   5.883   2.204   7.252  0.4844 -0.9744  0.0545
   88CHL1    C6 8927   5.955   2.098   7.304  0.5442  0.2525  0.2682
   88CHL1    H6 8928   5.990   2.020   7.236  2.8613  2.0346 -0.6473
   88CHL1    C7 8929   5.978   2.083   7.452 -0.3035  0.3458  0.0984
   88CHL1   H7A 8930   5.961   1.978   7.485  1.9216 -0.3207 -0.7548
   88CHL1   H7B 8931   6.084   2.102   7.478 -0.1052  0.4218 -0.7347
   88CHL1    C8 8932   5.893   2.179   7.544  0.6490  0.3452  0.6432
   88CHL1    H8 8933   5.793   2.137   7.566  1.0326  0.3788  2.5569
   88CHL1   C14 8934   5.965   2.190   7.683 -0.3714  0.9710 -0.4790
   88CHL1   H14 8935   6.072   2.214   7.664  0.5661 -2.6213 -0.1280
   88CHL1   C15 8936   5.982   2.067   7.776  0.2125 -0.3357 -0.8577
   88CHL1  H15A 8937   5.888   2.008   7.768 -0.1805  0.2162 -0.3376
   88CHL1  H15B 8938   6.069   1.999   7.763  0.5062  0.0797 -1.0648
   88CHL1   C16 8939   6.000   2.141   7.917 -0.7908  0.0862  1.1404
   88CHL1  H16A 8940   5.908   2.104   7.967 -1.3067  1.3118  1.1193
   88CHL1  H16B 8941   6.085   2.106   7.979 -1.3845 -0.3202  1.7264
   88CHL1   C17 8942   5.988   2.290   7.893  0.2467  0.4032  0.0917
   88CHL1   H17 8943   6.085   2.331   7.858  0.1114 -0.0166 -0.7783
   88CHL1   C13 8944   5.904   2.301   7.770  0.5910  0.5208  0.2083
   88CHL1   C18 8945   5.754   2.279   7.810  0.7964 -0.0949  0.1268
   88CHL1  H18A 8946   5.733   2.365   7.877  2.1290 -0.2251  0.7389
   88CHL1  H18B 8947   5.685   2.271   7.724 -1.0122  1.3173  1.3965
   88CHL1  H18C 8948   5.735   2.187   7.871  0.3066 -1.3727 -1.9046
   88CHL1   C12 8949   5.924   2.438   7.703  0.5185 -0.1824  0.1773
   88CHL1  H12A 8950   5.885   2.515   7.772  0.0800  1.0882 -1.4373
   88CHL1  H12B 8951   6.031   2.462   7.683  0.6752 -2.6237 -2.3296
   88CHL1   C11 8952   5.854   2.442   7.562  0.4917  0.1032  0.1290
   88CHL1  H11A 8953   5.746   2.439   7.586  0.7611 -0.9876  1.3008
   88CHL1  H11B 8954   5.868   2.544   7.522 -2.1607 -0.6987 -3.0110
   88CHL1    C9 8955   5.888   2.323   7.471  0.2840  0.0708  0.0670
   88CHL1    H9 8956   5.994   2.346   7.445 -0.4281  0.3795 -2.6897
   88CHL1   C10 8957   5.828   2.316   7.334  0.5311  0.3041  0.0481
   88CHL1   C19 8958   5.678   2.329   7.344 -0.1521 -0.1909  0.6791
   88CHL1  H19A 8959   5.656   2.438   7.343  1.0806  0.0678 -0.8479
   88CHL1  H19B 8960   5.632   2.274   7.260 -2.3787  2.0412  0.3865
   88CHL1  H19C 8961   5.642   2.289   7.441 -3.1958  2.1220  0.5620
   88CHL1    C1 8962   5.873   2.446   7.257 -0.0357  0.0244  0.2442
   88CHL1   H1A 8963   5.852   2.539   7.314  0.1342  1.0161 -1.2765
   88CHL1   H1B 8964   5.983   2.454   7.250 -0.0359  0.6423  0.8511
   88CHL1    C2 8965   5.815   2.461   7.122 -1.0189  0.2869 -0.1781
   88CHL1   H2A 8966   5.847   2.561   7.084 -1.3836  0.5652  0.2460
   88CHL1   H2B 8967   5.704   2.463   7.114 -1.0079 -1.4554 -0.8834
   88CHL1   C20 8968   5.955   2.374   8.022  0.9546 -0.2880 -0.4757
   88CHL1   H20 8969   5.915   2.473   7.991  1.2677 -0.2614 -0.8002
   88CHL1   C21 8970   6.092   2.405   8.091  0.8254  0.0366 -0.9070
   88CHL1  H21A 8971   6.136   2.306   8.115  1.1793  0.7232  1.4850
   88CHL1  H21B 8972   6.092   2.480   8.173  2.0934  0.7938 -1.5966
   88CHL1  H21C 8973   6.147   2.466   8.017  0.7568  2.0713  0.6567
   88CHL1   C22 8974   5.851   2.323   8.129 -0.2468  0.0419  0.4947
   88CHL1  H22A 8975   5.762   2.276   8.082 -1.2795  2.1756  0.2390
   88CHL1  H22B 8976   5.902   2.246   8.192  0.5220  1.0739  1.1582
   88CHL1   C23 8977   5.800   2.441   8.215  0.3558 -0.0681 -0.1385
   88CHL1  H23A 8978   5.882   2.496   8.265 -0.1072  0.6598 -0.1771
   88CHL1  H23B 8979   5.741   2.512   8.152 -0.6495  2.4465  3.5051
   88CHL1   C24 8980   5.698   2.382   8.312 -0.2204  0.0627 -0.0439
   88CHL1  H24A 8981   5.608   2.337   8.264 -1.0337 -0.1779  1.6849
   88CHL1  H24B 8982   5.755   2.305   8.368 -0.4853 -1.1097 -1.3550
   88CHL1   C25 8983   5.665   2.479   8.426  0.5248 -0.1482 -0.6570
   88CHL1   H25 8984   5.763   2.502   8.473  0.0980 -1.7616  1.0854
   88CHL1   C26 8985   5.608   2.617   8.383 -0.4770 -0.3793  0.2620
   88CHL1  H26A 8986   5.504   2.600   8.348 -0.1174  0.2984 -1.1670
   88CHL1  H26B 8987   5.612   2.694   8.464  1.9241 -0.4322  0.2381
   88CHL1  H26C 8988   5.656   2.657   8.292 -2.3559 -2.1035 -1.5221
   88CHL1   C27 8989   5.568   2.420   8.535  1.7631  0.4873 -0.0183
   88CHL1  H27A 8990   5.536   2.491   8.615  1.8059 -1.8486  2.1481
   88CHL1  H27B 8991   5.473   2.385   8.490  0.7875 -0.1371  2.4284
   88CHL1  H27C 8992   5.622   2.335   8.583 -1.4297 -2.2588 -1.0626
   89CHL1    C3 8993   2.474   4.673   6.913 -0.1019  0.0409  0.2050
   89CHL1    H3 8994   2.496   4.566   6.936  1.0361 -0.2737 -2.1108
   89CHL1    O3 8995   2.495   4.697   6.775  0.1665  0.0136 -0.5430
   89CHL1   H3' 8996   2.578   4.654   6.752  0.5403 -0.2753  1.2873
   89CHL1    C4 8997   2.328   4.690   6.943  0.2280 -0.4184  0.5141
   89CHL1   H4A 8998   2.298   4.789   6.902 -1.7957 -1.1324  0.2309
   89CHL1   H4B 8999   2.270   4.614   6.889  0.3630 -0.2859  0.1823
   89CHL1    C5 9000   2.302   4.685   7.093 -0.0960  0.0924  0.3087
   89CHL1    C6 9001   2.218   4.602   7.152 -0.1464  0.1800 -0.4312
   89CHL1    H6 9002   2.163   4.524   7.096 -0.2587 -1.9157  2.4816
   89CHL1    C7 9003   2.163   4.612   7.287  0.4046 -0.3780  0.1028
   89CHL1   H7A 9004   2.053   4.627   7.290  0.4376 -0.3988  2.1019
   89CHL1   H7B 9005   2.186   4.520   7.345 -2.1610 -0.7207  0.6387
   89CHL1    C8 9006   2.237   4.725   7.369  0.0449  0.0840  0.1565
   89CHL1    H8 9007   2.179   4.819   7.357 -0.9153 -0.3561  1.3009
   89CHL1   C14 9008   2.233   4.695   7.515  0.7090 -0.6303  0.3121
   89CHL1   H14 9009   2.289   4.602   7.537  0.2775 -0.6237  1.4645
   89CHL1   C15 9010   2.089   4.685   7.572  0.1996  0.1206 -0.8042
   89CHL1  H15A 9011   2.020   4.771   7.559 -0.3812 -0.1176  0.5772
   89CHL1  H15B 9012   2.042   4.595   7.527 -0.5277  1.3353 -2.5271
   89CHL1   C16 9013   2.112   4.690   7.724 -0.5035 -0.9473  0.2704
   89CHL1  H16A 9014   2.027   4.743   7.771  0.0289 -0.8101  1.0837
   89CHL1  H16B 9015   2.120   4.581   7.744  0.8701 -0.8939  0.0980
   89CHL1   C17 9016   2.255   4.750   7.740 -0.4245 -0.9681 -0.0223
   89CHL1   H17 9017   2.324   4.663   7.742  1.3995  0.4091 -1.0540
   89CHL1   C13 9018   2.299   4.799   7.605 -0.9890 -0.5945 -0.3674
   89CHL1   C18 9019   2.235   4.946   7.587  0.1465  0.0548 -0.7898
   89CHL1  H18A 9020   2.125   4.945   7.605  0.1416  2.1094 -0.5827
   89CHL1  H18B 9021   2.285   5.011   7.662  0.7743 -0.2686 -0.9310
   89CHL1  H18C 9022   2.250   4.987   7.485  2.7466  2.4314  0.4907
   89CHL1   C12 9023   2.453   4.798   7.568 -0.0871 -0.5359 -0.9872
   89CHL1  H12A 9024   2.510   4.866   7.634 -2.3065  1.4240 -1.0068
   89CHL1  H12B 9025   2.485   4.692   7.583 -0.4104 -0.7946 -2.0401
   89CHL1   C11 9026   2.468   4.830   7.422  0.0666 -0.7017 -0.4201
   89CHL1  H11A 9027   2.448   4.939   7.416  0.0404 -0.7527 -1.2672
   89CHL1  H11B 9028   2.577   4.811   7.408 -0.2218 -0.9666 -2.4538
   89CHL1    C9 9029   2.387   4.742   7.328  0.9965 -0.4632 -0.8609
   89CHL1    H9 9030   2.439   4.644   7.330  1.1784 -0.3775 -1.3074
   89CHL1   C10 9031   2.391   4.780   7.176  1.0538  0.4960  0.0254
   89CHL1   C19 9032   2.348   4.926   7.154 -0.4556 -0.2433 -0.0164
   89CHL1  H19A 9033   2.255   4.945   7.211 -1.9839 -1.2610 -2.0971
   89CHL1  H19B 9034   2.425   4.984   7.210  1.0671 -1.1564 -1.0991
   89CHL1  H19C 9035   2.340   4.953   7.047  0.4769  3.5551  0.7922
   89CHL1    C1 9036   2.537   4.761   7.135 -0.1355 -0.6817 -0.4705
   89CHL1   H1A 9037   2.598   4.839   7.186 -1.1944  0.5312 -1.0259
   89CHL1   H1B 9038   2.582   4.666   7.170  1.2973 -0.5575 -1.9243
   89CHL1    C2 9039   2.568   4.768   6.983 -0.1734 -0.6331 -0.6379
   89CHL1   H2A 9040   2.674   4.749   6.956 -0.3358 -1.2674 -0.8479
   89CHL1   H2B 9041   2.536   4.869   6.950 -2.3217 -0.2449  2.3863
   89CHL1   C20 9042   2.285   4.834   7.859  0.2034 -0.3202  0.2948
   89CHL1   H20 9043   2.377   4.896   7.850  1.8548 -2.5312  1.6358
   89CHL1   C21 9044   2.307   4.727   7.969  0.0961  0.4899 -0.7131
   89CHL1  H21A 9045   2.387   4.660   7.932  0.3277  1.7631 -2.6084
   89CHL1  H21B 9046   2.213   4.673   7.996  0.4753 -0.3309 -1.0279
   89CHL1  H21C 9047   2.348   4.776   8.060  2.1659 -1.0604 -0.7945
   89CHL1   C22 9048   2.176   4.938   7.908 -0.8052  0.3269 -0.3806
   89CHL1  H22A 9049   2.147   5.004   7.823  0.4654  0.3789 -0.7888
   89CHL1  H22B 9050   2.085   4.880   7.935  0.5029 -1.9150 -0.6183
   89CHL1   C23 9051   2.207   5.017   8.036 -0.3533  0.5875 -0.2091
   89CHL1  H23A 9052   2.129   5.096   8.040 -1.7108 -0.7704  1.2710
   89CHL1  H23B 9053   2.210   4.952   8.126  0.7483 -0.6406 -1.1125
   89CHL1   C24 9054   2.345   5.091   8.027  0.1668  0.0139 -0.5489
   89CHL1  H24A 9055   2.422   5.014   8.012 -0.5446 -0.7578 -0.2729
   89CHL1  H24B 9056   2.328   5.145   7.931  2.7537  0.4174 -0.8003
   89CHL1   C25 9057   2.381   5.188   8.146  0.4859 -0.5746 -0.4410
   89CHL1   H25 9058   2.298   5.260   8.157  0.9124 -0.2549  0.7668
   89CHL1   C26 9059   2.385   5.110   8.281  0.1384 -0.1656  0.2800
   89CHL1  H26A 9060   2.419   5.171   8.368  1.7724 -1.6339  0.7204
   89CHL1  H26B 9061   2.287   5.073   8.318 -0.3083  0.0944 -0.6488
   89CHL1  H26C 9062   2.457   5.026   8.272  0.5958  0.2819 -0.2709
   89CHL1   C27 9063   2.508   5.271   8.121  0.0535 -0.1763  0.2985
   89CHL1  H27A 9064   2.504   5.304   8.015 -2.3387 -1.8522 -0.1811
   89CHL1  H27B 9065   2.498   5.353   8.195  1.0636  1.2836 -1.1661
   89CHL1  H27C 9066   2.590   5.197   8.135  0.1254 -0.1039  0.2596
   90CHL1    C3 9067   2.639   6.346   6.846  0.1090  0.2585 -0.2099
   90CHL1    H3 9068   2.606   6.244   6.873  1.3656  0.2741  1.4330
   90CHL1    O3 9069   2.700   6.345   6.713  0.5239  0.1986 -0.2794
   90CHL1   H3' 9070   2.727   6.434   6.692  0.9137 -0.1310 -1.2158
   90CHL1    C4 9071   2.521   6.445   6.852 -0.1141 -0.6140 -0.0175
   90CHL1   H4A 9072   2.555   6.541   6.807 -2.7187  1.3343  2.0328
   90CHL1   H4B 9073   2.443   6.407   6.783 -2.3754  3.0315  0.4029
   90CHL1    C5 9074   2.467   6.464   6.992  0.1960 -0.0313  0.5633
   90CHL1    C6 9075   2.336   6.445   7.021 -0.3498  0.3990  0.8297
   90CHL1    H6 9076   2.267   6.422   6.939  1.6973  0.5771 -0.9783
   90CHL1    C7 9077   2.278   6.453   7.159  0.3515 -0.3648 -1.0191
   90CHL1   H7A 9078   2.176   6.497   7.169  0.4700 -0.2100 -0.4942
   90CHL1   H7B 9079   2.257   6.349   7.190  0.4769 -0.3125 -0.7526
   90CHL1    C8 9080   2.372   6.520   7.263 -0.4041 -0.0904 -0.0772
   90CHL1    H8 9081   2.353   6.625   7.235  1.2050  0.2566  0.1097
   90CHL1   C14 9082   2.329   6.492   7.404  0.5226 -0.3790 -0.7946
   90CHL1   H14 9083   2.350   6.384   7.419 -0.2444 -0.5248 -0.7457
   90CHL1   C15 9084   2.181   6.503   7.440  0.0350  0.0006  0.0125
   90CHL1  H15A 9085   2.139   6.597   7.398 -2.8311 -0.8442  0.9303
   90CHL1  H15B 9086   2.117   6.420   7.404 -0.6203  0.8601 -0.8337
   90CHL1   C16 9087   2.185   6.499   7.596 -0.3858 -0.3425 -0.6088
   90CHL1  H16A 9088   2.110   6.574   7.628  0.7774 -0.1756  1.8723
   90CHL1  H16B 9089   2.144   6.403   7.633  1.0198 -0.5958  0.3377
   90CHL1   C17 9090   2.327   6.516   7.639 -0.3859 -0.5537 -0.4610
   90CHL1   H17 9091   2.365   6.413   7.659  0.6341  0.1922  1.5048
   90CHL1   C13 9092   2.407   6.560   7.516 -0.7712  0.0655 -0.1216
   90CHL1   C18 9093   2.396   6.717   7.497  0.0025  0.1061 -0.0233
   90CHL1  H18A 9094   2.300   6.743   7.448 -0.2059 -0.0409  0.3058
   90CHL1  H18B 9095   2.419   6.778   7.587 -1.1983  0.5723 -0.0196
   90CHL1  H18C 9096   2.476   6.748   7.426  0.5906 -0.8194  0.2266
   90CHL1   C12 9097   2.554   6.503   7.503 -0.1613 -0.4509 -0.0216
   90CHL1  H12A 9098   2.620   6.566   7.567  1.6541 -0.2270 -2.0566
   90CHL1  H12B 9099   2.556   6.394   7.523  0.0150 -0.3120  0.7306
   90CHL1   C11 9100   2.608   6.522   7.361  0.2090 -0.0942 -0.0837
   90CHL1  H11A 9101   2.628   6.629   7.340 -1.6138  0.6749  1.9708
   90CHL1  H11B 9102   2.710   6.477   7.360  0.7881  1.1001  2.6603
   90CHL1    C9 9103   2.518   6.472   7.243  0.4059 -0.4456 -0.2992
   90CHL1    H9 9104   2.511   6.362   7.255 -0.3333 -0.3154  0.5113
   90CHL1   C10 9105   2.570   6.497   7.100 -0.3667 -1.0416  0.3487
   90CHL1   C19 9106   2.608   6.647   7.087 -0.1349  0.2123  0.1011
   90CHL1  H19A 9107   2.523   6.707   7.127 -1.6292 -1.1329 -0.9910
   90CHL1  H19B 9108   2.699   6.667   7.148  0.3164  0.3884 -0.6368
   90CHL1  H19C 9109   2.634   6.669   6.982  0.1062  0.1064  0.1389
   90CHL1    C1 9110   2.693   6.408   7.086  0.2332  0.3109 -0.3483
   90CHL1   H1A 9111   2.777   6.452   7.144  0.5422  1.6482 -1.7783
   90CHL1   H1B 9112   2.670   6.307   7.127 -0.8336  0.5774 -0.2856
   90CHL1    C2 9113   2.745   6.396   6.946  0.4599  0.1512 -0.4052
   90CHL1   H2A 9114   2.825   6.319   6.957  1.2234  1.2414  2.0346
   90CHL1   H2B 9115   2.795   6.488   6.909  2.2685 -0.6088  0.0637
   90CHL1   C20 9116   2.349   6.590   7.782  0.3659  0.1752 -0.4449
   90CHL1   H20 9117   2.307   6.693   7.778  2.3035  1.1099  2.2444
   90CHL1   C21 9118   2.496   6.588   7.811  0.6366  0.2317 -0.4626
   90CHL1  H21A 9119   2.535   6.489   7.779 -0.6660 -1.0333  1.7067
   90CHL1  H21B 9120   2.507   6.595   7.922  0.6375  2.0621 -0.5621
   90CHL1  H21C 9121   2.551   6.670   7.760  0.3673  0.8472  0.2216
   90CHL1   C22 9122   2.259   6.529   7.897  0.6603 -0.4452 -0.1289
   90CHL1  H22A 9123   2.151   6.528   7.870  0.5194 -0.8960  0.4317
   90CHL1  H22B 9124   2.281   6.422   7.918 -0.0989 -0.3261  1.3306
   90CHL1   C23 9125   2.263   6.605   8.028  0.4177  0.0239 -0.3888
   90CHL1  H23A 9126   2.362   6.594   8.077  0.2496  0.3930  0.0313
   90CHL1  H23B 9127   2.263   6.709   7.991  1.2592  0.4340  0.7462
   90CHL1   C24 9128   2.137   6.590   8.115 -0.0385 -0.1326  0.4010
   90CHL1  H24A 9129   2.044   6.595   8.052 -1.3558  0.2339  2.3347
   90CHL1  H24B 9130   2.142   6.487   8.156  0.0942 -0.7812 -1.1929
   90CHL1   C25 9131   2.114   6.688   8.230 -0.4975 -0.0376 -0.0355
   90CHL1   H25 9132   2.202   6.675   8.297 -0.6394 -1.0763 -0.0449
   90CHL1   C26 9133   2.128   6.832   8.182 -0.4790  0.2477  0.1438
   90CHL1  H26A 9134   2.222   6.847   8.125 -0.4873  1.1120  0.3401
   90CHL1  H26B 9135   2.039   6.863   8.122  0.8553  0.6492 -1.7119
   90CHL1  H26C 9136   2.128   6.906   8.265  3.4258  0.2469  0.2359
   90CHL1   C27 9137   1.990   6.659   8.312 -0.1931 -0.1991 -0.9417
   90CHL1  H27A 9138   2.010   6.559   8.355  1.1220  0.2194 -0.5406
   90CHL1  H27B 9139   1.964   6.727   8.396 -0.4120 -0.1534 -1.0454
   90CHL1  H27C 9140   1.897   6.647   8.252 -0.2371  1.0440 -1.1458
   91CHL1    C3 9141   3.653   1.061   7.390  0.2638 -0.0801 -0.0565
   91CHL1    H3 9142   3.700   0.961   7.410 -1.3776 -0.7805  0.3745
   91CHL1    O3 9143   3.636   1.074   7.254 -0.7033 -0.6295  0.2201
   91CHL1   H3' 9144   3.546   1.045   7.237 -1.1794  0.4597  0.8827
   91CHL1    C4 9145   3.513   1.063   7.453 -0.9041 -0.0860  0.7008
   91CHL1   H4A 9146   3.457   1.152   7.419 -0.3205 -0.2806 -0.8199
   91CHL1   H4B 9147   3.459   0.972   7.420  0.7597 -0.0466 -2.2554
   91CHL1    C5 9148   3.530   1.050   7.607  0.0492 -0.0673  0.0359
   91CHL1    C6 9149   3.473   0.953   7.673  0.4513 -0.6168  0.5827
   91CHL1    H6 9150   3.412   0.880   7.616  1.0585 -0.2782 -0.5223
   91CHL1    C7 9151   3.479   0.926   7.827 -0.1661 -0.2679  0.1663
   91CHL1   H7A 9152   3.379   0.905   7.871 -0.7821  1.6635 -0.2612
   91CHL1   H7B 9153   3.543   0.839   7.853 -1.0510 -0.8828  0.2978
   91CHL1    C8 9154   3.532   1.047   7.902  0.3816 -0.0774 -0.5698
   91CHL1    H8 9155   3.449   1.121   7.908 -0.8780 -1.5571  0.8324
   91CHL1   C14 9156   3.575   1.012   8.041 -0.1076  0.1125 -0.0680
   91CHL1   H14 9157   3.662   0.946   8.023 -1.5929 -2.8644  3.0929
   91CHL1   C15 9158   3.481   0.936   8.135  0.8896 -0.1918 -0.1193
   91CHL1  H15A 9159   3.377   0.975   8.144  1.5721  1.6175  0.0820
   91CHL1  H15B 9160   3.459   0.835   8.092 -0.5475 -0.1763  0.5490
   91CHL1   C16 9161   3.539   0.955   8.277 -0.6632  1.0910 -0.0916
   91CHL1  H16A 9162   3.462   1.011   8.333 -3.0432 -1.8247 -0.2919
   91CHL1  H16B 9163   3.557   0.857   8.327  0.5654  0.9278 -0.8228
   91CHL1   C17 9164   3.663   1.033   8.262 -0.4366 -0.0192  0.2019
   91CHL1   H17 9165   3.748   0.969   8.232 -1.1865 -0.9825  0.1184
   91CHL1   C13 9166   3.640   1.119   8.132  0.0231  0.5185  1.0112
   91CHL1   C18 9167   3.532   1.228   8.158  0.4447  0.1692  0.2955
   91CHL1  H18A 9168   3.466   1.244   8.070  0.5686 -1.1319 -0.0392
   91CHL1  H18B 9169   3.467   1.198   8.243  2.1975 -2.8374  0.6470
   91CHL1  H18C 9170   3.582   1.324   8.183  0.5229  0.2552 -0.1888
   91CHL1   C12 9171   3.759   1.174   8.063  0.7880  0.0957 -0.7612
   91CHL1  H12A 9172   3.801   1.266   8.108 -0.9850  1.1917 -1.2640
   91CHL1  H12B 9173   3.842   1.103   8.044 -0.5578 -1.4663 -0.9194
   91CHL1   C11 9174   3.720   1.217   7.915  0.5058 -0.0449 -0.3158
   91CHL1  H11A 9175   3.640   1.293   7.928  0.0840 -0.4402 -0.6058
   91CHL1  H11B 9176   3.808   1.271   7.873  2.0211 -1.9195  0.3515
   91CHL1    C9 9177   3.655   1.109   7.829  0.1475  1.1358  0.0284
   91CHL1    H9 9178   3.737   1.035   7.822  0.9783  2.0106  0.2875
   91CHL1   C10 9179   3.621   1.141   7.686  0.0390  0.2308 -0.6176
   91CHL1   C19 9180   3.535   1.279   7.682  0.4888 -0.1943  0.7752
   91CHL1  H19A 9181   3.593   1.355   7.739  1.1707  0.3760 -0.6660
   91CHL1  H19B 9182   3.499   1.312   7.583 -0.6855 -1.4954  0.7490
   91CHL1  H19C 9183   3.444   1.269   7.744  0.3515 -0.3632  0.5434
   91CHL1    C1 9184   3.749   1.161   7.604  0.0891  0.2531 -0.0295
   91CHL1   H1A 9185   3.820   1.239   7.640 -0.6661  0.1883  1.6239
   91CHL1   H1B 9186   3.818   1.074   7.612  0.2798  0.4695  0.7211
   91CHL1    C2 9187   3.732   1.176   7.451 -0.4069  0.9451  0.0966
   91CHL1   H2A 9188   3.834   1.173   7.406 -1.2978 -2.3567 -1.8663
   91CHL1   H2B 9189   3.677   1.271   7.435 -2.1986 -0.1619 -0.3913
   91CHL1   C20 9190   3.713   1.112   8.390  0.5227  0.4401  0.2509
   91CHL1   H20 9191   3.707   1.222   8.375 -2.3686  0.0220 -2.0637
   91CHL1   C21 9192   3.868   1.077   8.405 -0.0184 -0.1817 -0.5770
   91CHL1  H21A 9193   3.894   0.972   8.429  1.3955  0.1597 -0.5801
   91CHL1  H21B 9194   3.920   1.139   8.481  0.8748 -0.0759 -1.2576
   91CHL1  H21C 9195   3.923   1.097   8.310  0.2430 -1.5541 -0.7171
   91CHL1   C22 9196   3.639   1.093   8.523  0.3442  0.4973 -0.4059
   91CHL1  H22A 9197   3.534   1.130   8.521  0.6456  1.4287  0.9348
   91CHL1  H22B 9198   3.641   0.985   8.550  0.2812  0.5384 -0.2375
   91CHL1   C23 9199   3.707   1.172   8.644 -0.0531 -0.8531  0.7749
   91CHL1  H23A 9200   3.815   1.148   8.655 -0.2893 -0.7428  3.5149
   91CHL1  H23B 9201   3.717   1.276   8.606  2.9575 -1.8012 -1.3012
   91CHL1   C24 9202   3.625   1.162   8.771 -0.3241  0.4488  0.4883
   91CHL1  H24A 9203   3.533   1.223   8.766  0.1664  1.3759  2.2851
   91CHL1  H24B 9204   3.607   1.053   8.780  2.2019 -0.0454 -0.1487
   91CHL1   C25 9205   3.690   1.218   8.899 -0.0175  0.6671 -0.0100
   91CHL1   H25 9206   3.788   1.168   8.909 -0.3776  0.2856  1.7732
   91CHL1   C26 9207   3.712   1.370   8.877  0.4398 -0.3558 -0.1137
   91CHL1  H26A 9208   3.626   1.429   8.837  0.1702 -0.8220 -0.2233
   91CHL1  H26B 9209   3.761   1.418   8.964 -0.9459 -0.0027  0.4901
   91CHL1  H26C 9210   3.797   1.379   8.806  0.1387 -0.4516 -0.4862
   91CHL1   C27 9211   3.606   1.177   9.022  0.0487  0.0071 -0.3840
   91CHL1  H27A 9212   3.648   1.233   9.108  2.0197  0.4176 -1.5813
   91CHL1  H27B 9213   3.499   1.206   9.023  0.0565  0.0402  2.9975
   91CHL1  H27C 9214   3.620   1.069   9.043  0.4612 -0.2026 -1.6940
   92CHL1    C3 9215   6.528   3.069   6.698 -0.9913 -0.3579 -0.4033
   92CHL1    H3 9216   6.480   2.973   6.728 -0.5718 -0.9817 -1.6736
   92CHL1    O3 9217   6.545   3.071   6.559 -0.7710  0.2621  0.2668
   92CHL1   H3' 9218   6.606   3.143   6.540 -0.0505 -0.1646  0.9238
   92CHL1    C4 9219   6.418   3.173   6.726 -0.0619 -0.0858  0.0977
   92CHL1   H4A 9220   6.454   3.272   6.689  0.4129 -1.2037 -2.5671
   92CHL1   H4B 9221   6.329   3.146   6.666  1.0796 -3.5247 -0.1590
   92CHL1    C5 9222   6.384   3.186   6.870 -0.1780 -0.0498 -0.3763
   92CHL1    C6 9223   6.259   3.171   6.916  0.4038 -0.7518 -0.5739
   92CHL1    H6 9224   6.181   3.145   6.843  1.2831 -0.6757 -1.5543
   92CHL1    C7 9225   6.236   3.170   7.071 -0.4962  0.4257 -0.2450
   92CHL1   H7A 9226   6.147   3.232   7.094 -0.2895 -0.0189  1.8336
   92CHL1   H7B 9227   6.211   3.066   7.098 -0.5554  0.7186  0.8417
   92CHL1    C8 9228   6.353   3.219   7.165 -0.2241 -0.4605 -0.5458
   92CHL1    H8 9229   6.371   3.328   7.152 -0.6849 -0.5201 -1.7613
   92CHL1   C14 9230   6.332   3.182   7.311 -0.5712 -0.4879  0.0772
   92CHL1   H14 9231   6.323   3.071   7.319  0.8809 -0.4974  1.9308
   92CHL1   C15 9232   6.197   3.225   7.377 -0.2616 -0.6699  0.2309
   92CHL1  H15A 9233   6.174   3.332   7.361 -0.6430 -0.8961 -0.7684
   92CHL1  H15B 9234   6.110   3.159   7.355 -0.4349  0.7465 -3.6899
   92CHL1   C16 9235   6.239   3.205   7.524  0.5616 -0.8525  0.4155
   92CHL1  H16A 9236   6.231   3.304   7.575 -0.6581  0.2836 -1.9019
   92CHL1  H16B 9237   6.171   3.132   7.573 -0.6691 -1.7503 -2.5359
   92CHL1   C17 9238   6.394   3.174   7.540 -0.3584 -0.2561 -0.8127
   92CHL1   H17 9239   6.394   3.064   7.549  2.9759 -0.1691  0.6933
   92CHL1   C13 9240   6.447   3.217   7.398 -0.3676 -0.0955 -0.7369
   92CHL1   C18 9241   6.473   3.366   7.399  0.1080 -0.3763 -0.6446
   92CHL1  H18A 9242   6.565   3.382   7.460 -0.5059  0.2996  0.1201
   92CHL1  H18B 9243   6.492   3.404   7.296  0.1814  0.6898 -0.2444
   92CHL1  H18C 9244   6.387   3.417   7.447 -0.1233  0.5982 -2.0434
   92CHL1   C12 9245   6.573   3.138   7.355 -0.3169  0.4867 -0.4336
   92CHL1  H12A 9246   6.654   3.181   7.417 -1.2251  0.1440  0.9994
   92CHL1  H12B 9247   6.570   3.027   7.360  0.0912  0.3903 -1.8858
   92CHL1   C11 9248   6.608   3.163   7.207 -0.8514 -0.9871 -0.1978
   92CHL1  H11A 9249   6.640   3.269   7.209  0.0500 -1.2773  1.1790
   92CHL1  H11B 9250   6.698   3.108   7.172  0.3536  0.8904 -0.1342
   92CHL1    C9 9251   6.484   3.150   7.110  0.8133  0.3535 -0.1291
   92CHL1    H9 9252   6.458   3.042   7.110  0.6514  0.3897  1.1144
   92CHL1   C10 9253   6.512   3.198   6.964  0.1312 -0.7441  0.7562
   92CHL1   C19 9254   6.553   3.343   6.939  0.0695  0.1032  0.5748
   92CHL1  H19A 9255   6.479   3.422   6.966 -1.4676 -1.1838  0.2163
   92CHL1  H19B 9256   6.643   3.372   6.997  0.0364 -0.0641  0.7084
   92CHL1  H19C 9257   6.591   3.362   6.836 -0.3292 -0.4077  0.3349
   92CHL1    C1 9258   6.629   3.106   6.915  0.0603 -0.1706  0.0461
   92CHL1   H1A 9259   6.722   3.136   6.967  0.4094  0.3721 -0.8740
   92CHL1   H1B 9260   6.615   3.002   6.952  0.2917 -0.3224 -0.2856
   92CHL1    C2 9261   6.658   3.106   6.768 -0.4675  0.5107 -0.2310
   92CHL1   H2A 9262   6.744   3.042   6.740 -1.1715 -0.5147 -0.0827
   92CHL1   H2B 9263   6.687   3.206   6.730  0.4720  0.9286  1.5447
   92CHL1   C20 9264   6.452   3.234   7.671 -0.3827 -0.7763 -0.4916
   92CHL1   H20 9265   6.428   3.343   7.679 -0.5762 -0.7574 -1.3059
   92CHL1   C21 9266   6.604   3.234   7.677 -0.1645  0.5622 -0.2877
   92CHL1  H21A 9267   6.642   3.138   7.635 -1.6551  0.0028 -0.4046
   92CHL1  H21B 9268   6.656   3.250   7.773 -0.6646 -2.9270  0.6340
   92CHL1  H21C 9269   6.646   3.305   7.602  0.0717  1.0624  0.3176
   92CHL1   C22 9270   6.399   3.155   7.797 -0.2802 -0.7420 -0.3548
   92CHL1  H22A 9271   6.298   3.113   7.781 -0.6251 -0.2439  0.4361
   92CHL1  H22B 9272   6.465   3.066   7.808 -1.7683 -1.9687 -1.2640
   92CHL1   C23 9273   6.405   3.241   7.927 -0.1668  0.7556 -0.1725
   92CHL1  H23A 9274   6.498   3.299   7.943 -1.9222  3.0341  2.2827
   92CHL1  H23B 9275   6.331   3.324   7.916 -1.6608 -0.4303  0.6693
   92CHL1   C24 9276   6.377   3.169   8.062 -0.2387 -0.4303  0.8476
   92CHL1  H24A 9277   6.267   3.154   8.070 -0.5958  0.6477 -1.6636
   92CHL1  H24B 9278   6.443   3.080   8.064 -0.8273 -0.8587  3.2571
   92CHL1   C25 9279   6.414   3.261   8.182  0.3181  0.0334  0.5920
   92CHL1   H25 9280   6.513   3.310   8.172  0.1793  0.5931  1.9050
   92CHL1   C26 9281   6.300   3.368   8.208 -0.9446  0.4142 -0.7425
   92CHL1  H26A 9282   6.312   3.405   8.312  0.6689 -0.3608 -0.6384
   92CHL1  H26B 9283   6.278   3.442   8.127 -2.6141  1.0703  0.2965
   92CHL1  H26C 9284   6.208   3.308   8.224  1.4719 -2.4226  3.1932
   92CHL1   C27 9285   6.425   3.172   8.301 -0.2079 -0.2799  0.3043
   92CHL1  H27A 9286   6.338   3.108   8.326 -0.7469 -0.7881 -2.7442
   92CHL1  H27B 9287   6.511   3.104   8.283 -0.7275 -0.7408 -0.4269
   92CHL1  H27C 9288   6.454   3.227   8.394  0.5344 -0.5302  0.2206
   93CHL1    C3 9289   5.023   0.535   6.843  0.4553  0.1695 -0.3599
   93CHL1    H3 9290   5.026   0.645   6.828  1.1323  0.5524  2.3213
   93CHL1    O3 9291   4.971   0.479   6.723  0.2123  0.0849 -0.1329
   93CHL1   H3' 9292   4.906   0.545   6.699 -0.7934 -0.9699 -0.3436
   93CHL1    C4 9293   5.171   0.492   6.862  0.4303 -0.1464 -0.8800
   93CHL1   H4A 9294   5.175   0.388   6.825  2.3118 -0.1055 -0.8356
   93CHL1   H4B 9295   5.232   0.549   6.789  0.8587  2.5922  1.5141
   93CHL1    C5 9296   5.214   0.528   7.007  0.3986 -0.8413 -0.2092
   93CHL1    C6 9297   5.330   0.598   7.025 -0.8326  0.1613 -0.6070
   93CHL1    H6 9298   5.387   0.629   6.936  0.3542 -0.5700 -0.1202
   93CHL1    C7 9299   5.391   0.638   7.157 -0.1566 -0.7026 -0.1198
   93CHL1   H7A 9300   5.499   0.609   7.158 -0.2920 -1.1991  1.3451
   93CHL1   H7B 9301   5.376   0.745   7.180  0.2221  0.1777 -3.7874
   93CHL1    C8 9302   5.328   0.554   7.268 -0.0986 -0.0677  0.0821
   93CHL1    H8 9303   5.378   0.455   7.260  1.6609  0.6306  2.0251
   93CHL1   C14 9304   5.359   0.609   7.410  0.4782 -0.1802  0.3261
   93CHL1   H14 9305   5.312   0.709   7.412  0.8895 -0.0095  1.7373
   93CHL1   C15 9306   5.507   0.633   7.438  0.1934 -0.0882  0.0130
   93CHL1  H15A 9307   5.572   0.553   7.395  2.1520 -0.2029  3.0624
   93CHL1  H15B 9308   5.537   0.733   7.400 -1.4578  0.2929 -0.3248
   93CHL1   C16 9309   5.521   0.631   7.593 -0.1282 -0.3937 -0.0393
   93CHL1  H16A 9310   5.606   0.566   7.626  0.4102 -0.3187 -1.2559
   93CHL1  H16B 9311   5.547   0.732   7.631 -1.8650 -0.5679  1.6870
   93CHL1   C17 9312   5.380   0.595   7.644  0.7134  0.2084 -0.1414
   93CHL1   H17 9313   5.322   0.689   7.654  0.9630  0.2639  0.8135
   93CHL1   C13 9314   5.309   0.523   7.522 -0.9847  0.0115 -0.1153
   93CHL1   C18 9315   5.369   0.378   7.516  0.4619 -0.4568  0.8051
   93CHL1  H18A 9316   5.480   0.379   7.508  0.4732 -0.6381  0.9440
   93CHL1  H18B 9317   5.333   0.321   7.604 -1.7552  0.5721  0.6054
   93CHL1  H18C 9318   5.332   0.330   7.423  1.2936  3.0904 -1.4863
   93CHL1   C12 9319   5.155   0.526   7.510 -0.1762  0.6798  0.0432
   93CHL1  H12A 9320   5.098   0.473   7.590  0.3208 -0.6487 -0.4701
   93CHL1  H12B 9321   5.128   0.633   7.525  0.2977  0.5684  1.8509
   93CHL1   C11 9322   5.113   0.464   7.380  0.1981  0.6125  0.3530
   93CHL1  H11A 9323   5.121   0.354   7.393  3.7492  0.4999 -2.1475
   93CHL1  H11B 9324   5.003   0.484   7.379  0.2805  1.0873  0.7831
   93CHL1    C9 9325   5.173   0.536   7.261 -0.4906 -0.7070  0.1938
   93CHL1    H9 9326   5.132   0.638   7.275 -1.1114 -0.6685 -1.8524
   93CHL1   C10 9327   5.128   0.478   7.125 -0.2109 -0.8948 -0.0574
   93CHL1   C19 9328   5.140   0.325   7.132 -0.3182 -0.9326 -0.0780
   93CHL1  H19A 9329   5.094   0.265   7.214 -1.3862 -1.1989 -0.8501
   93CHL1  H19B 9330   5.107   0.272   7.040  1.0450 -2.1468  0.1092
   93CHL1  H19C 9331   5.246   0.297   7.147 -0.5544 -0.8074  1.9580
   93CHL1    C1 9332   4.977   0.511   7.096  1.3708 -0.4474 -0.1747
   93CHL1   H1A 9333   4.913   0.466   7.175  0.2878  1.1760 -0.0961
   93CHL1   H1B 9334   4.964   0.620   7.116  1.4891 -0.5564  0.5324
   93CHL1    C2 9335   4.928   0.491   6.954 -0.2108  0.1790  0.4935
   93CHL1   H2A 9336   4.835   0.548   6.933  0.6084  1.5344  0.5304
   93CHL1   H2B 9337   4.897   0.385   6.939  0.4905 -0.1987  1.6473
   93CHL1   C20 9338   5.379   0.539   7.790  0.0066 -0.2369 -0.2587
   93CHL1   H20 9339   5.426   0.438   7.789  0.9537  0.1593  1.4174
   93CHL1   C21 9340   5.234   0.522   7.830  0.3879 -0.4813 -0.5621
   93CHL1  H21A 9341   5.210   0.502   7.937 -0.7571 -1.0155 -0.9002
   93CHL1  H21B 9342   5.187   0.439   7.774 -0.1370 -0.2458 -0.4740
   93CHL1  H21C 9343   5.192   0.621   7.802  1.0685  0.8476  2.9154
   93CHL1   C22 9344   5.458   0.624   7.887  0.1042  0.3121 -0.2636
   93CHL1  H22A 9345   5.563   0.631   7.852 -0.2132  0.8568 -1.1061
   93CHL1  H22B 9346   5.428   0.731   7.890  0.8304  0.4761  2.9624
   93CHL1   C23 9347   5.464   0.582   8.035 -0.3693  0.0213  0.4283
   93CHL1  H23A 9348   5.360   0.591   8.075 -0.3402 -2.0395  1.0437
   93CHL1  H23B 9349   5.498   0.477   8.050 -2.5780 -0.7547  0.2536
   93CHL1   C24 9350   5.544   0.676   8.124  0.1282  0.5026  0.1539
   93CHL1  H24A 9351   5.648   0.677   8.086  0.5439 -0.9521  1.2140
   93CHL1  H24B 9352   5.505   0.779   8.110  3.6458  1.7428 -1.0473
   93CHL1   C25 9353   5.553   0.637   8.278 -0.5567 -0.0073 -0.0610
   93CHL1   H25 9354   5.449   0.626   8.317 -0.7739 -1.1407 -0.9131
   93CHL1   C26 9355   5.622   0.503   8.297 -0.5785  0.7601 -0.2034
   93CHL1  H26A 9356   5.577   0.423   8.234 -0.9355  2.4697 -2.2042
   93CHL1  H26B 9357   5.730   0.496   8.273 -1.0473  1.1491 -2.5733
   93CHL1  H26C 9358   5.609   0.478   8.404 -3.6105  1.4431 -0.3655
   93CHL1   C27 9359   5.624   0.753   8.359  0.9040 -0.4167  0.2953
   93CHL1  H27A 9360   5.708   0.797   8.302  3.1740 -2.5827  1.8767
   93CHL1  H27B 9361   5.552   0.837   8.370  0.6608 -0.5662 -0.1633
   93CHL1  H27C 9362   5.649   0.722   8.462  0.2932  0.1660  0.6265
   94CHL1    C3 9363   0.647   3.745   6.793 -0.2201  0.2107  0.3755
   94CHL1    H3 9364   0.752   3.779   6.804  0.8843 -2.1711 -2.3223
   94CHL1    O3 9365   0.621   3.767   6.657 -0.6248 -0.2170 -0.4480
   94CHL1   H3' 9366   0.546   3.711   6.636 -2.2724  2.5095 -2.1606
   94CHL1    C4 9367   0.642   3.597   6.839  0.2063  0.1994 -0.0778
   94CHL1   H4A 9368   0.546   3.546   6.817  0.0908  0.9716 -1.4290
   94CHL1   H4B 9369   0.724   3.555   6.776  1.1684  2.0897 -0.1128
   94CHL1    C5 9370   0.665   3.583   6.986  1.0572  0.8002  0.0602
   94CHL1    C6 9371   0.762   3.502   7.039  1.0144 -0.6172 -0.4270
   94CHL1    H6 9372   0.806   3.430   6.968 -2.0260 -1.1468 -1.8583
   94CHL1    C7 9373   0.786   3.479   7.182  0.5297  0.4646 -0.1629
   94CHL1   H7A 9374   0.779   3.369   7.198 -2.1723  0.5350 -0.5919
   94CHL1   H7B 9375   0.880   3.519   7.226  1.3553 -0.5953 -0.9397
   94CHL1    C8 9376   0.661   3.528   7.263 -0.2515 -0.6862 -0.1155
   94CHL1    H8 9377   0.582   3.454   7.237 -0.7503 -0.4971  0.8179
   94CHL1   C14 9378   0.689   3.520   7.412 -0.2468 -0.5772 -0.2274
   94CHL1   H14 9379   0.772   3.592   7.431 -1.6335  0.7555  0.9080
   94CHL1   C15 9380   0.737   3.390   7.460  0.2318  0.2207 -0.4913
   94CHL1  H15A 9381   0.667   3.308   7.433  0.9642 -0.6489  0.2221
   94CHL1  H15B 9382   0.841   3.358   7.440  0.1681 -0.7484  0.6376
   94CHL1   C16 9383   0.711   3.398   7.617  0.3772  0.1463 -0.4041
   94CHL1  H16A 9384   0.636   3.325   7.655  0.4413  0.7111  0.8072
   94CHL1  H16B 9385   0.803   3.393   7.678 -2.1365  1.6297  3.6929
   94CHL1   C17 9386   0.652   3.541   7.647  0.1560  0.0150  0.0087
   94CHL1   H17 9387   0.736   3.613   7.662  0.2914 -0.2696  0.6614
   94CHL1   C13 9388   0.584   3.572   7.510  0.1106  0.3343  0.9199
   94CHL1   C18 9389   0.451   3.500   7.498  0.0327 -0.9838 -0.4294
   94CHL1  H18A 9390   0.444   3.395   7.536  3.7888 -0.6246  1.4882
   94CHL1  H18B 9391   0.385   3.559   7.565 -1.4062 -1.2617 -1.5552
   94CHL1  H18C 9392   0.413   3.505   7.394 -0.4149 -1.4259 -0.2937
   94CHL1   C12 9393   0.554   3.720   7.474  0.1395 -0.2828  0.0549
   94CHL1  H12A 9394   0.474   3.766   7.535  2.1261  1.1148  1.6621
   94CHL1  H12B 9395   0.649   3.771   7.501  1.4167 -0.9441 -2.8881
   94CHL1   C11 9396   0.525   3.742   7.329  0.2958 -0.2032 -0.6929
   94CHL1  H11A 9397   0.424   3.699   7.313 -0.8975  1.6653  1.5504
   94CHL1  H11B 9398   0.521   3.848   7.295 -0.7082 -0.4014 -1.1915
   94CHL1    C9 9399   0.623   3.675   7.223 -1.4213  0.1505  0.8461
   94CHL1    H9 9400   0.718   3.732   7.221 -1.3715  0.0984  1.4828
   94CHL1   C10 9401   0.575   3.678   7.075 -0.2027  0.0802  0.0875
   94CHL1   C19 9402   0.432   3.631   7.061 -0.2713 -0.0879 -0.5077
   94CHL1  H19A 9403   0.399   3.612   6.957 -1.1419  2.2475 -0.6938
   94CHL1  H19B 9404   0.422   3.532   7.110 -1.7718  0.9629  1.4282
   94CHL1  H19C 9405   0.367   3.708   7.109 -1.2206 -0.3141 -1.4191
   94CHL1    C1 9406   0.581   3.824   7.025 -0.4946  0.5810 -0.0540
   94CHL1   H1A 9407   0.496   3.879   7.071  1.4218  1.5927  2.3960
   94CHL1   H1B 9408   0.679   3.860   7.063  0.5125 -0.5645 -1.5086
   94CHL1    C2 9409   0.559   3.838   6.878 -1.0231  0.0618  0.0773
   94CHL1   H2A 9410   0.569   3.945   6.851 -0.7202  0.1752  0.6412
   94CHL1   H2B 9411   0.454   3.809   6.856 -0.6740 -0.9244 -0.3556
   94CHL1   C20 9412   0.573   3.536   7.778  0.0006  0.4318  0.1474
   94CHL1   H20 9413   0.488   3.468   7.759 -0.3632  0.4444  1.6109
   94CHL1   C21 9414   0.511   3.669   7.823  0.1653 -0.5096  0.4213
   94CHL1  H21A 9415   0.436   3.722   7.760 -0.2736 -0.0146  1.3552
   94CHL1  H21B 9416   0.597   3.736   7.842  1.6278 -2.2876  0.2046
   94CHL1  H21C 9417   0.453   3.647   7.915 -0.6715 -1.0125 -0.2184
   94CHL1   C22 9418   0.652   3.466   7.904 -0.5867  0.0128 -0.1728
   94CHL1  H22A 9419   0.702   3.369   7.884  1.2282  0.5735  1.4981
   94CHL1  H22B 9420   0.738   3.531   7.932 -1.0606  0.3826  0.4362
   94CHL1   C23 9421   0.559   3.426   8.021  0.4200 -0.0852  0.4836
   94CHL1  H23A 9422   0.496   3.511   8.052 -1.0830 -1.5306  1.4757
   94CHL1  H23B 9423   0.480   3.353   7.990  1.7050 -1.3967  0.2449
   94CHL1   C24 9424   0.638   3.365   8.136  0.0284 -0.2286 -0.3288
   94CHL1  H24A 9425   0.684   3.269   8.107 -2.4312 -1.5647  0.0697
   94CHL1  H24B 9426   0.731   3.424   8.154 -0.5551 -0.4586  3.9565
   94CHL1   C25 9427   0.566   3.349   8.272  0.4083  0.5809  0.0026
   94CHL1   H25 9428   0.646   3.298   8.330 -0.9624 -0.2019  1.2164
   94CHL1   C26 9429   0.543   3.479   8.352 -0.1571 -0.4894 -0.0095
   94CHL1  H26A 9430   0.490   3.554   8.290 -0.7211  0.0562  1.1102
   94CHL1  H26B 9431   0.484   3.453   8.442 -1.1273  1.0653 -0.1761
   94CHL1  H26C 9432   0.643   3.519   8.380 -0.7022  1.5351 -0.8660
   94CHL1   C27 9433   0.437   3.258   8.278 -0.4420  0.6289 -0.0514
   94CHL1  H27A 9434   0.368   3.323   8.221  0.2507  0.6625 -0.8531
   94CHL1  H27B 9435   0.449   3.164   8.219  2.6198  0.2044  1.1592
   94CHL1  H27C 9436   0.392   3.234   8.377 -0.7661  1.4518  0.0016
   95CHL1    C3 9437   6.739   2.579   6.775  0.2580  0.2071 -0.7279
   95CHL1    H3 9438   6.668   2.501   6.809  1.6717 -0.1564  1.5091
   95CHL1    O3 9439   6.761   2.567   6.632 -0.4208 -0.6780  0.0768
   95CHL1   H3' 9440   6.854   2.543   6.623 -0.7122 -1.2162 -1.6583
   95CHL1    C4 9441   6.665   2.711   6.812  0.3622 -0.4379 -0.6057
   95CHL1   H4A 9442   6.725   2.798   6.777  1.5231 -1.7449 -1.9243
   95CHL1   H4B 9443   6.572   2.711   6.752 -0.0328  0.1802 -0.0053
   95CHL1    C5 9444   6.645   2.715   6.965  0.2795 -0.1604 -0.1307
   95CHL1    C6 9445   6.527   2.711   7.029 -0.0483 -0.2787  0.4697
   95CHL1    H6 9446   6.439   2.727   6.964 -0.2409  1.5471  1.1306
   95CHL1    C7 9447   6.502   2.706   7.176  0.2044  0.4678  0.4871
   95CHL1   H7A 9448   6.421   2.777   7.199  0.0629  0.3099  0.4775
   95CHL1   H7B 9449   6.470   2.601   7.193  2.6685 -0.5562 -0.8364
   95CHL1    C8 9450   6.628   2.736   7.262  0.7688  0.5571  0.6793
   95CHL1    H8 9451   6.646   2.846   7.254 -0.2323  0.6915  0.1999
   95CHL1   C14 9452   6.612   2.685   7.402  0.4724  0.7514 -0.3494
   95CHL1   H14 9453   6.616   2.574   7.398 -0.8008  0.6260  1.1882
   95CHL1   C15 9454   6.489   2.729   7.484  0.0180  0.0411 -0.6846
   95CHL1  H15A 9455   6.461   2.836   7.476  0.3643  0.0776 -1.4370
   95CHL1  H15B 9456   6.397   2.674   7.452  0.2301 -1.2487  0.8729
   95CHL1   C16 9457   6.529   2.709   7.626  0.4364 -0.1075 -0.6102
   95CHL1  H16A 9458   6.517   2.804   7.683 -1.3774 -1.6912  1.7434
   95CHL1  H16B 9459   6.458   2.633   7.664  2.4583 -0.7686  2.0192
   95CHL1   C17 9460   6.678   2.649   7.629  0.4171 -0.2816 -0.1570
   95CHL1   H17 9461   6.661   2.540   7.623  0.7813 -0.4283  1.2418
   95CHL1   C13 9462   6.724   2.707   7.497  0.4501  0.5532  1.0377
   95CHL1   C18 9463   6.754   2.859   7.516  0.4589 -0.4490 -0.5350
   95CHL1  H18A 9464   6.804   2.904   7.429  0.6334 -0.5432 -0.4842
   95CHL1  H18B 9465   6.664   2.916   7.547  2.3954  1.7220  1.2845
   95CHL1  H18C 9466   6.835   2.867   7.592  0.6206 -2.8641 -0.3830
   95CHL1   C12 9467   6.842   2.633   7.441  0.0442  0.5241 -0.3404
   95CHL1  H12A 9468   6.936   2.668   7.488 -0.8487  0.3259  1.6550
   95CHL1  H12B 9469   6.838   2.523   7.457 -1.2710  0.5759 -0.2526
   95CHL1   C11 9470   6.870   2.662   7.291 -0.5189 -0.5515 -0.6954
   95CHL1  H11A 9471   6.925   2.759   7.294  2.3721 -2.1482 -0.9350
   95CHL1  H11B 9472   6.940   2.589   7.247 -0.0146 -0.9341  0.7158
   95CHL1    C9 9473   6.746   2.667   7.200  0.3819 -0.0485 -1.0453
   95CHL1    H9 9474   6.719   2.559   7.200 -0.4627  0.1399 -2.7331
   95CHL1   C10 9475   6.775   2.696   7.048 -0.2542  0.1822  0.6983
   95CHL1   C19 9476   6.853   2.829   7.030 -0.1617  0.4689  0.6403
   95CHL1  H19A 9477   6.861   2.848   6.921  2.6881  0.3182  0.7939
   95CHL1  H19B 9478   6.797   2.914   7.074  1.3650  0.5419  2.4820
   95CHL1  H19C 9479   6.956   2.822   7.072 -0.1055  0.4653  0.5012
   95CHL1    C1 9480   6.854   2.577   6.993 -0.4411 -0.6939  0.2229
   95CHL1   H1A 9481   6.956   2.565   7.037  0.6180  0.5314 -1.8124
   95CHL1   H1B 9482   6.804   2.481   7.017  0.8035 -2.1047 -2.6460
   95CHL1    C2 9483   6.870   2.575   6.841 -0.3672 -0.6113  0.1150
   95CHL1   H2A 9484   6.923   2.481   6.815  2.6617  0.8956  0.6476
   95CHL1   H2B 9485   6.931   2.658   6.800  0.3310 -1.8758 -1.4696
   95CHL1   C20 9486   6.757   2.681   7.766  0.3706 -0.2169  0.3390
   95CHL1   H20 9487   6.758   2.792   7.772 -1.4549 -0.1813  0.2543
   95CHL1   C21 9488   6.894   2.617   7.767 -0.1918 -0.1821  0.1386
   95CHL1  H21A 9489   6.933   2.634   7.870  3.0715 -0.6629 -0.9715
   95CHL1  H21B 9490   6.963   2.674   7.701  0.1276  0.4112  0.9766
   95CHL1  H21C 9491   6.891   2.510   7.737 -1.2554  0.4030 -1.9240
   95CHL1   C22 9492   6.675   2.620   7.884 -0.0898  0.4504  0.5432
   95CHL1  H22A 9493   6.571   2.657   7.866  0.5876  2.1048 -0.0565
   95CHL1  H22B 9494   6.675   2.509   7.879  2.6007  0.4048  0.8912
   95CHL1   C23 9495   6.714   2.669   8.024  0.6708  0.7325  0.0687
   95CHL1  H23A 9496   6.811   2.623   8.053  0.9987  0.4086 -1.4995
   95CHL1  H23B 9497   6.724   2.778   8.008 -0.0213  0.8164  0.1736
   95CHL1   C24 9498   6.616   2.614   8.130 -0.0781 -0.4032 -0.8387
   95CHL1  H24A 9499   6.521   2.671   8.123  0.8554  1.1816 -0.9067
   95CHL1  H24B 9500   6.598   2.510   8.097  0.1075 -0.5723 -0.4095
   95CHL1   C25 9501   6.666   2.615   8.276 -0.4842  0.1809  0.2396
   95CHL1   H25 9502   6.758   2.554   8.281  0.0102  0.9982  1.4090
   95CHL1   C26 9503   6.711   2.761   8.310  0.2961 -0.0463  0.2981
   95CHL1  H26A 9504   6.644   2.830   8.254 -0.7697 -0.8326  0.5816
   95CHL1  H26B 9505   6.690   2.786   8.416 -1.9410  1.6727 -0.4883
   95CHL1  H26C 9506   6.818   2.778   8.287  0.2476 -0.4673 -0.2590
   95CHL1   C27 9507   6.569   2.555   8.378  0.0630  0.2290  0.4601
   95CHL1  H27A 9508   6.567   2.614   8.472 -0.2241 -0.8623  1.1510
   95CHL1  H27B 9509   6.465   2.551   8.338  0.8758  1.5650 -1.8818
   95CHL1  H27C 9510   6.603   2.452   8.400  0.4973  0.0854 -0.8340
   96CHL1    C3 9511   0.054   2.140   6.588  0.0715  0.2365  0.6769
   96CHL1    H3 9512   0.030   2.248   6.589  3.7689  1.1640 -2.0453
   96CHL1    O3 9513   0.060   2.075   6.460 -0.5074  0.0345 -0.0960
   96CHL1   H3' 9514   0.023   1.987   6.462  4.9303 -2.4622  0.6204
   96CHL1    C4 9515   0.186   2.129   6.661 -0.5092 -0.1210 -0.3894
   96CHL1   H4A 9516   0.216   2.024   6.641 -2.1587 -1.1606  2.4115
   96CHL1   H4B 9517   0.258   2.196   6.608 -1.5714  1.4256  0.0760
   96CHL1    C5 9518   0.189   2.160   6.814  0.3947  0.1486  0.3712
   96CHL1    C6 9519   0.280   2.235   6.885 -0.0273  0.0152  0.3154
   96CHL1    H6 9520   0.363   2.278   6.827  1.4088 -0.5445  1.9245
   96CHL1    C7 9521   0.287   2.264   7.029 -0.0048 -0.1369 -0.4505
   96CHL1   H7A 9522   0.390   2.237   7.058 -0.6838 -0.8279  1.4075
   96CHL1   H7B 9523   0.270   2.371   7.055 -1.4909 -0.2767 -0.7824
   96CHL1    C8 9524   0.187   2.176   7.110 -0.3004 -0.6114 -0.1238
   96CHL1    H8 9525   0.235   2.078   7.128 -1.3585 -0.6258  2.9027
   96CHL1   C14 9526   0.166   2.228   7.249 -0.6845 -0.0030  0.2287
   96CHL1   H14 9527   0.101   2.318   7.239  0.4202  0.9588  1.5327
   96CHL1   C15 9528   0.298   2.265   7.328  0.2007 -0.3875  0.2022
   96CHL1  H15A 9529   0.378   2.189   7.315 -0.0885 -0.7203  0.3574
   96CHL1  H15B 9530   0.339   2.364   7.300 -0.2919 -0.0740  0.5604
   96CHL1   C16 9531   0.251   2.267   7.468 -0.4155  0.6431 -0.1489
   96CHL1  H16A 9532   0.318   2.203   7.530  0.0131 -1.4132 -2.6609
   96CHL1  H16B 9533   0.253   2.369   7.513 -1.0307  0.7707 -0.4100
   96CHL1   C17 9534   0.107   2.204   7.474  0.5474 -0.2959 -0.1572
   96CHL1   H17 9535   0.033   2.287   7.469  1.5171  0.6236  0.5566
   96CHL1   C13 9536   0.088   2.129   7.338  0.0183  0.1889  0.3256
   96CHL1   C18 9537   0.157   1.996   7.348 -0.6685  0.2959  0.7263
   96CHL1  H18A 9538   0.164   1.953   7.246  0.6906  1.5121  0.2773
   96CHL1  H18B 9539   0.266   1.999   7.370  0.0904 -1.1023 -2.5564
   96CHL1  H18C 9540   0.115   1.921   7.417  0.7069 -0.3514  0.8638
   96CHL1   C12 9541  -0.055   2.131   7.285 -0.4852  0.5174  0.2288
   96CHL1  H12A 9542  -0.123   2.070   7.348 -2.1886  1.3459 -0.7949
   96CHL1  H12B 9543  -0.097   2.233   7.296 -1.2630  0.2178  0.0840
   96CHL1   C11 9544  -0.050   2.087   7.134 -0.0572 -0.4098 -0.2822
   96CHL1  H11A 9545  -0.033   1.978   7.127 -1.2366 -0.7045  1.1424
   96CHL1  H11B 9546  -0.153   2.112   7.102 -0.6750 -0.6851  1.4305
   96CHL1    C9 9547   0.052   2.159   7.041 -0.0974  0.8510  0.1336
   96CHL1    H9 9548   0.006   2.260   7.041  1.9685  1.8462  1.9530
   96CHL1   C10 9549   0.062   2.104   6.896  0.2140 -0.2815  0.0802
   96CHL1   C19 9550   0.059   1.950   6.900 -0.2443  0.0887  0.4746
   96CHL1  H19A 9551   0.114   1.901   6.984 -0.1129 -0.7567 -0.0946
   96CHL1  H19B 9552  -0.046   1.914   6.913 -0.7273  1.7916  1.3750
   96CHL1  H19C 9553   0.101   1.906   6.807  0.1287 -0.4529  0.8949
   96CHL1    C1 9554  -0.061   2.147   6.816 -1.1806  0.1501 -0.5748
   96CHL1   H1A 9555  -0.154   2.109   6.862  0.4453 -0.0561  2.6809
   96CHL1   H1B 9556  -0.059   2.254   6.786  1.3030 -0.1136 -1.4844
   96CHL1    C2 9557  -0.062   2.087   6.672  0.1631  0.3785 -0.4518
   96CHL1   H2A 9558  -0.155   2.118   6.620 -1.4882  0.5205  2.5389
   96CHL1   H2B 9559  -0.074   1.976   6.676  0.4784  0.2286 -2.5989
   96CHL1   C20 9560   0.077   2.134   7.617  0.0409 -0.0081  0.0634
   96CHL1   H20 9561   0.144   2.047   7.634 -1.2339 -0.4577  3.2121
   96CHL1   C21 9562  -0.062   2.058   7.615 -0.2220 -0.0265 -0.4624
   96CHL1  H21A 9563  -0.069   1.988   7.528  2.9670  1.4562 -2.0339
   96CHL1  H21B 9564  -0.138   2.138   7.622 -2.6722 -2.2099 -1.4287
   96CHL1  H21C 9565  -0.072   2.001   7.710 -1.4421  1.6611  0.4441
   96CHL1   C22 9566   0.086   2.216   7.745 -0.5903 -0.1342 -0.6698
   96CHL1  H22A 9567   0.158   2.298   7.724 -0.2035 -0.4426 -0.5726
   96CHL1  H22B 9568  -0.012   2.267   7.760 -0.2299  0.3556  0.0481
   96CHL1   C23 9569   0.138   2.142   7.867  0.1279  0.1437 -0.2582
   96CHL1  H23A 9570   0.063   2.067   7.899 -1.5074  2.6302  2.0118
   96CHL1  H23B 9571   0.232   2.091   7.840  0.4151  0.4225  0.1909
   96CHL1   C24 9572   0.143   2.227   7.995 -0.8742 -0.0200  0.3879
   96CHL1  H24A 9573   0.211   2.312   7.973 -0.0498 -0.9818 -0.7789
   96CHL1  H24B 9574   0.048   2.281   8.016  0.6015  2.5554  0.6364
   96CHL1   C25 9575   0.189   2.158   8.123 -0.2871 -0.4372 -0.5715
   96CHL1   H25 9576   0.145   2.056   8.132 -2.8263  0.6860  0.3685
   96CHL1   C26 9577   0.341   2.138   8.134  0.0963 -0.0987  0.2457
   96CHL1  H26A 9578   0.358   2.081   8.228 -0.9890  2.6239  2.1417
   96CHL1  H26B 9579   0.385   2.084   8.048 -1.9762 -0.0766 -0.8700
   96CHL1  H26C 9580   0.393   2.235   8.146 -1.5922  1.1338 -2.0438
   96CHL1   C27 9581   0.155   2.236   8.248  0.2959 -0.2350  0.2368
   96CHL1  H27A 9582   0.211   2.330   8.266 -0.4121 -0.1948  2.4613
   96CHL1  H27B 9583   0.050   2.273   8.249  0.3526 -0.0939  1.6493
   96CHL1  H27C 9584   0.169   2.174   8.339 -0.4151  0.2261  0.6712
   97OSM      N 9585   5.983   4.045  11.165 -0.4075  0.5655  0.4397
   97OSM    C15 9586   5.944   4.161  11.074 -0.0873 -0.1714  0.7643
   97OSM   H15A 9587   6.041   4.205  11.056 -0.3231 -0.9455 -2.6780
   97OSM   H15B 9588   5.892   4.240  11.126  0.1111  0.5445 -0.1181
   97OSM   H15C 9589   5.890   4.130  10.986 -0.2703  3.2722 -0.4214
   97OSM    C14 9590   6.031   4.101  11.299 -0.0550  0.2647 -0.5205
   97OSM   H14A 9591   5.945   4.152  11.342 -0.7043  0.2304 -1.7672
   97OSM   H14B 9592   6.105   4.176  11.277  4.4953 -4.0991 -1.0762
   97OSM   H14C 9593   6.064   4.019  11.360  1.0627  1.4013  0.4261
   97OSM    C13 9594   5.865   3.964  11.210  0.2278 -0.6090 -0.3413
   97OSM   H13A 9595   5.783   4.030  11.232  0.9043  0.4522 -0.9414
   97OSM   H13B 9596   5.885   3.896  11.292  0.1529 -0.3203 -0.0810
   97OSM   H13C 9597   5.823   3.912  11.125  0.8556 -0.6069 -0.6553
   97OSM    C12 9598   6.094   3.961  11.103 -0.5180 -0.3924 -0.2991
   97OSM   H12A 9599   6.117   3.889  11.180 -1.3747  1.2170  1.4926
   97OSM   H12B 9600   6.180   4.019  11.073  0.0206 -2.1597 -2.3291
   97OSM    C11 9601   6.053   3.874  10.977  0.1286 -0.1770  0.0653
   97OSM   H11A 9602   6.146   3.838  10.927 -1.0176 -3.5633  0.2835
   97OSM   H11B 9603   6.013   3.943  10.898  2.4806 -1.0242 -1.9539
   97OSM      P 9604   6.035   3.637  11.055  0.0847 -0.0875 -0.6931
   97OSM    O13 9605   6.167   3.676  11.112 -0.1082 -0.3977  0.3560
   97OSM    O14 9606   5.944   3.550  11.132 -0.1736 -0.6172  0.1397
   97OSM    O11 9607   6.062   3.565  10.915 -0.3038 -0.1261 -0.4103
   97OSM    O12 9608   5.967   3.770  11.009  0.0451 -0.0943  0.3826
   97OSM    C1S 9609   5.974   3.594  10.806  0.6386  0.1131 -0.5255
   97OSM    H1S 9610   5.978   3.703  10.782  1.4251  0.8965  2.9400
   97OSM    H1T 9611   5.869   3.568  10.831  0.7968 -2.8789 -2.7337
   97OSM     NF 9612   5.925   3.563  10.573 -0.3189 -0.7550  0.2332
   97OSM    HNF 9613   5.832   3.529  10.563 -0.8417  0.3017  1.4528
   97OSM    C2S 9614   6.012   3.515  10.679 -0.6146  0.4096 -0.0712
   97OSM    H2S 9615   6.116   3.545  10.656 -0.0399 -0.3559  1.4902
   97OSM    C3S 9616   6.006   3.365  10.697  0.4426  0.1676  0.4321
   97OSM    H3S 9617   5.904   3.331  10.725  0.2975 -2.2480 -2.7605
   97OSM     O3 9618   6.074   3.320  10.816  0.2647 -0.1560 -0.2807
   97OSM    HO3 9619   6.087   3.405  10.857 -0.0074  0.7689 -2.0826
   97OSM    C4S 9620   6.044   3.295  10.567 -0.3094  0.9489  0.3009
   97OSM    H4S 9621   5.955   3.289  10.501 -0.2387  2.9094 -0.0200
   97OSM    C5S 9622   6.169   3.252  10.530  0.4659  0.1382 -0.6629
   97OSM    H5S 9623   6.256   3.284  10.589 -0.4416  1.1239  0.1629
   97OSM    C6S 9624   6.200   3.205  10.395 -0.3369  0.4125  0.7974
   97OSM    H6S 9625   6.223   3.097  10.392  2.0169  0.8969  0.0072
   97OSM    H6T 9626   6.291   3.261  10.364 -0.1816  0.2397  0.9470
   97OSM    C7S 9627   6.099   3.239  10.295  0.3531 -0.1555  0.2241
   97OSM    H7S 9628   6.071   3.346  10.296  0.3029 -0.1202 -1.6412
   97OSM    H7T 9629   6.012   3.174  10.316  1.8275 -2.2169  0.1931
   97OSM    C8S 9630   6.150   3.204  10.151  0.2251  0.0734 -0.1103
   97OSM    H8S 9631   6.189   3.100  10.155 -1.5011 -0.5595  0.6153
   97OSM    H8T 9632   6.237   3.272  10.136 -0.3186  1.1301  1.4118
   97OSM    C9S 9633   6.033   3.196  10.052 -0.3597  0.0132 -1.0832
   97OSM    H9S 9634   6.000   3.300  10.033  1.8388  0.4689 -2.6575
   97OSM    H9T 9635   5.959   3.132  10.105 -1.0032  1.1402 -0.6158
   97OSM   C10S 9636   6.077   3.123   9.923 -0.2023 -0.6955 -0.0310
   97OSM   H10S 9637   6.130   3.028   9.948 -1.9431 -1.1350  2.1524
   97OSM   H10T 9638   6.141   3.182   9.854  0.1297 -0.0821  0.7980
   97OSM   C11S 9639   5.963   3.082   9.825 -0.3372  0.1214 -1.0243
   97OSM   H11S 9640   5.884   3.160   9.821 -1.4696 -0.8748  1.1340
   97OSM   H11T 9641   5.909   2.992   9.861 -2.4860  1.7055 -0.1848
   97OSM   C12S 9642   6.008   3.074   9.669 -0.3231 -0.3104 -0.1093
   97OSM   H12S 9643   6.094   3.004   9.660  1.3315  1.8181 -1.1650
   97OSM   H12T 9644   6.038   3.176   9.637 -1.4452  0.6929  1.9055
   97OSM   C13S 9645   5.894   3.034   9.575 -0.4212  0.0675  0.3398
   97OSM   H13S 9646   5.806   3.098   9.597 -1.1697  0.4994 -3.6214
   97OSM   H13T 9647   5.865   2.928   9.590  0.1572 -0.1285  0.0868
   97OSM   C14S 9648   5.928   3.046   9.431 -0.0055  0.6040 -0.4633
   97OSM   H14S 9649   5.992   3.134   9.408  0.1548  0.4008 -0.8029
   97OSM   H14T 9650   5.835   3.045   9.369 -0.6746  0.1532  0.5381
   97OSM   C15S 9651   6.007   2.922   9.385  0.3295  0.1642 -0.9534
   97OSM   H15S 9652   5.973   2.846   9.458  1.8826  0.2040 -0.1644
   97OSM   H15T 9653   6.117   2.936   9.379  0.2695  1.4847  0.4966
   97OSM   C16S 9654   5.949   2.869   9.249 -0.4440 -0.0823  0.3425
   97OSM   H16S 9655   5.845   2.830   9.257 -0.1294 -0.9247  0.3672
   97OSM   H16T 9656   6.011   2.781   9.222  0.4960  0.7000 -0.0657
   97OSM   C17S 9657   5.970   2.973   9.138  0.3101  0.6394 -0.6573
   97OSM   H17S 9658   5.991   2.913   9.048 -0.4081  1.3131 -1.2835
   97OSM   H17T 9659   6.059   3.036   9.161  1.2919 -0.4197 -1.5513
   97OSM   C18S 9660   5.854   3.066   9.105  0.0068  0.3218 -0.6493
   97OSM   H18S 9661   5.772   3.005   9.062  1.6767 -4.1081  2.2278
   97OSM   H18T 9662   5.897   3.128   9.023 -0.2468 -0.6660 -1.5396
   97OSM   H18U 9663   5.817   3.125   9.191 -2.3371  0.7190 -1.8882
   97OSM    C1F 9664   5.955   3.675  10.514  0.7714  0.7081 -0.3917
   97OSM     OF 9665   6.058   3.734  10.533 -0.2575 -0.1331  0.1304
   97OSM    C2F 9666   5.859   3.732  10.406  0.0126  0.2965  0.7042
   97OSM    H2F 9667   5.832   3.832  10.447  0.3138  0.3573  0.7584
   97OSM    H2G 9668   5.763   3.677  10.394 -0.6965  1.6710  0.0052
   97OSM    C3F 9669   5.920   3.743  10.261 -0.1202  0.0020 -0.5650
   97OSM    H3F 9670   5.989   3.829  10.248  1.0136 -0.5601  1.5217
   97OSM    H3G 9671   5.838   3.772  10.193 -0.5089  1.1561  0.3830
   97OSM    C4F 9672   5.985   3.608  10.209  0.5327  0.2010 -0.2736
   97OSM    H4F 9673   5.910   3.529  10.234 -1.1235  1.3571 -1.4863
   97OSM    H4G 9674   6.074   3.579  10.270 -0.5011  0.4713  1.4047
   97OSM    C5F 9675   6.025   3.611  10.061  0.2928 -0.1539 -0.1177
   97OSM    H5F 9676   6.042   3.504  10.036  1.5855  0.1662 -0.6779
   97OSM    H5G 9677   6.115   3.672  10.037  0.9906  0.3412  3.4935
   97OSM    C6F 9678   5.913   3.648   9.961 -0.2152  0.1158  0.2444
   97OSM    H6F 9679   5.898   3.754   9.990 -0.6117 -0.2569  1.4046
   97OSM    H6G 9680   5.817   3.596   9.981 -0.5074  0.4966 -0.1719
   97OSM    C7F 9681   5.948   3.642   9.809 -0.2621 -0.5725 -1.1377
   97OSM    H7F 9682   6.042   3.700   9.799  0.3549 -0.8899  2.0477
   97OSM    H7G 9683   5.864   3.687   9.752 -1.7693 -0.7663  0.8627
   97OSM    C8F 9684   5.960   3.492   9.760  0.4369 -0.7737 -0.2209
   97OSM    H8F 9685   5.868   3.431   9.775 -1.3002  1.3965 -1.6951
   97OSM    H8G 9686   6.034   3.442   9.826  1.4973  0.6197 -0.3296
   97OSM    C9F 9687   6.003   3.474   9.616  0.5318 -0.7772 -0.4661
   97OSM    H9F 9688   6.109   3.499   9.596  0.1585  0.8976 -0.4145
   97OSM   C10F 9689   5.919   3.439   9.520  0.6924  0.4982  0.2402
   97OSM   H10F 9690   5.961   3.439   9.418  1.3307 -0.1528  0.5026
   97OSM   C11F 9691   5.775   3.406   9.526  0.0698 -0.2367  0.4675
   97OSM   H11F 9692   5.713   3.482   9.579 -1.4840 -0.9457 -0.2927
   97OSM   H11G 9693   5.759   3.311   9.581  1.1127  0.1182  1.4003
   97OSM   C12F 9694   5.715   3.385   9.387  0.3260  0.3796  0.4059
   97OSM   H12F 9695   5.633   3.312   9.398 -0.5954  1.3166 -0.1849
   97OSM   H12G 9696   5.789   3.337   9.319 -1.6273 -0.3117 -1.2787
   97OSM   C13F 9697   5.658   3.520   9.331  0.5821 -0.3655 -0.6310
   97OSM   H13F 9698   5.748   3.581   9.310  1.4673 -1.2733  0.4387
   97OSM   H13G 9699   5.588   3.565   9.404 -0.4030 -0.4715 -1.4966
   97OSM   C14F 9700   5.587   3.498   9.197  0.1986  0.0908 -0.4546
   97OSM   H14F 9701   5.487   3.453   9.215  0.4190 -1.0833 -2.0153
   97OSM   H14G 9702   5.655   3.432   9.138 -0.5606  0.6609 -1.9830
   97OSM   C15F 9703   5.559   3.625   9.116  0.2789  0.1456  0.0719
   97OSM   H15F 9704   5.656   3.671   9.087 -0.0883  1.0047  0.1654
   97OSM   H15G 9705   5.498   3.694   9.179  0.4723  1.1681 -0.8407
   97OSM   C16F 9706   5.480   3.600   8.992 -1.1853 -0.3342  0.1327
   97OSM   H16F 9707   5.375   3.583   9.024 -1.0631 -1.0801  0.1352
   97OSM   H16G 9708   5.516   3.507   8.943  2.1201  0.5174  0.8111
   97OSM   C17F 9709   5.489   3.726   8.904  0.1677  0.1747  0.9234
   97OSM   H17F 9710   5.471   3.816   8.967 -0.3427 -0.4572  1.6750
   97OSM   H17G 9711   5.400   3.724   8.838  0.4051  0.3647  0.5911
   97OSM   C18F 9712   5.606   3.717   8.813 -0.5449 -0.1497 -0.5445
   97OSM   H18F 9713   5.617   3.790   8.730  1.0355 -0.5906 -0.7434
   97OSM   H18G 9714   5.615   3.613   8.774  3.0949  0.2601 -0.9657
   97OSM   H18H 9715   5.702   3.719   8.869  0.1660 -0.8076 -1.7268
   98OSM      N 9716   5.532   3.566  11.158  0.5427 -0.8200  0.3503
   98OSM    C15 9717   5.535   3.605  11.299  0.0726 -0.7046 -0.3812
   98OSM   H15A 9718   5.635   3.634  11.325 -0.0019  2.4279 -3.1549
   98OSM   H15B 9719   5.500   3.521  11.357  0.3743 -1.6583 -1.5551
   98OSM   H15C 9720   5.466   3.685  11.323 -1.0984 -2.1963  1.3888
   98OSM    C14 9721   5.397   3.525  11.141  0.2414 -0.0307 -0.4119
   98OSM   H14A 9722   5.388   3.477  11.044  2.7561  0.6549 -1.0271
   98OSM   H14B 9723   5.323   3.603  11.139  1.3406  1.0753  1.0761
   98OSM   H14C 9724   5.377   3.448  11.214  2.0618 -1.1700 -1.0761
   98OSM    C13 9725   5.547   3.686  11.079 -0.2799  0.2370 -0.0464
   98OSM   H13A 9726   5.455   3.741  11.071  0.1335  1.0968  1.0455
   98OSM   H13B 9727   5.586   3.670  10.980 -0.7383  0.9515 -0.3450
   98OSM   H13C 9728   5.617   3.752  11.126  0.8365 -0.3724 -0.8331
   98OSM    C12 9729   5.627   3.455  11.118  0.6065  0.0815 -0.3133
   98OSM   H12A 9730   5.618   3.382  11.197 -0.2450  0.2854 -0.2163
   98OSM   H12B 9731   5.728   3.494  11.123  0.0221  1.5196  0.6265
   98OSM    C11 9732   5.620   3.419  10.968 -0.7338  1.0005 -0.2027
   98OSM   H11A 9733   5.707   3.357  10.938 -1.0995  0.0835  0.6030
   98OSM   H11B 9734   5.622   3.503  10.895 -1.4961 -0.4894 -1.9929
   98OSM      P 9735   5.478   3.194  10.962 -0.1878 -0.0899 -0.5257
   98OSM    O13 9736   5.538   3.158  11.093 -0.4052  0.0780  0.1159
   98OSM    O14 9737   5.335   3.165  10.941  0.1712  0.2921 -0.2207
   98OSM    O11 9738   5.564   3.124  10.853 -0.4824 -0.4461 -0.1404
   98OSM    O12 9739   5.499   3.348  10.933 -0.2870  0.3154 -0.5293
   98OSM    C1S 9740   5.565   3.170  10.717 -0.2487 -0.4121  0.3116
   98OSM    H1S 9741   5.663   3.217  10.691 -0.0405 -0.2808  1.3269
   98OSM    H1T 9742   5.489   3.247  10.692  0.1303  0.4632  1.8084
   98OSM     NF 9743   5.537   3.128  10.479 -0.3179 -0.4569  0.5164
   98OSM    HNF 9744   5.450   3.108  10.435 -0.7148  0.4277  0.8959
   98OSM    C2S 9745   5.558   3.057  10.604 -0.3067  0.6346  0.2449
   98OSM    H2S 9746   5.652   2.998  10.608 -1.1460 -0.7653 -0.4677
   98OSM    C3S 9747   5.439   2.966  10.636  0.8168  0.5705  0.3287
   98OSM    H3S 9748   5.345   3.026  10.638  0.5034  0.1459 -0.9355
   98OSM     O3 9749   5.446   2.903  10.765  0.4950 -0.6707 -0.2449
   98OSM    HO3 9750   5.505   2.963  10.811  0.1579 -2.6521  2.9278
   98OSM    C4S 9751   5.418   2.858  10.533 -0.7846 -0.6577  0.6665
   98OSM    H4S 9752   5.502   2.788  10.515 -1.6078 -1.2887 -0.8161
   98OSM    C5S 9753   5.302   2.833  10.478 -0.0600  0.0710 -0.5289
   98OSM    H5S 9754   5.210   2.882  10.512 -0.2878  2.1960 -4.0045
   98OSM    C6S 9755   5.271   2.713  10.385 -0.2741  0.3211  0.1472
   98OSM    H6S 9756   5.193   2.729  10.309  1.2851 -2.1338 -2.0627
   98OSM    H6T 9757   5.242   2.626  10.448  1.7793 -1.2197 -0.9382
   98OSM    C7S 9758   5.392   2.644  10.322  0.4572  0.3264 -0.5933
   98OSM    H7S 9759   5.450   2.601  10.407 -0.7100 -0.2935 -0.0930
   98OSM    H7T 9760   5.455   2.715  10.264  3.3480 -2.1719 -0.6462
   98OSM    C8S 9761   5.359   2.516  10.246  0.6797 -0.2765 -0.3967
   98OSM    H8S 9762   5.312   2.538  10.148 -0.8178 -2.7836 -0.2889
   98OSM    H8T 9763   5.298   2.452  10.313  1.7662 -0.9847 -0.0732
   98OSM    C9S 9764   5.494   2.443  10.208 -0.4522 -0.4578  0.7163
   98OSM    H9S 9765   5.532   2.384  10.293  1.1610 -0.7569 -0.1927
   98OSM    H9T 9766   5.572   2.506  10.159 -0.4487 -0.4183  0.7726
   98OSM   C10S 9767   5.467   2.338  10.095 -1.4226 -0.2149 -0.3070
   98OSM   H10S 9768   5.395   2.262  10.133  0.1848 -0.5509  2.1772
   98OSM   H10T 9769   5.565   2.289  10.082 -1.1312  0.4267 -0.5350
   98OSM   C11S 9770   5.421   2.406   9.965  0.0990 -0.1366  0.3570
   98OSM   H11S 9771   5.489   2.493   9.951 -0.6446  0.0295 -2.4147
   98OSM   H11T 9772   5.317   2.443   9.973 -0.1085 -0.2430 -1.6189
   98OSM   C12S 9773   5.421   2.316   9.841  0.6503 -0.3667 -0.1686
   98OSM   H12S 9774   5.346   2.234   9.853  1.8590 -1.4205  0.3039
   98OSM   H12T 9775   5.521   2.266   9.842  0.2244 -1.2307  0.1633
   98OSM   C13S 9776   5.399   2.383   9.701 -0.0078 -0.0514 -1.4651
   98OSM   H13S 9777   5.475   2.463   9.691  0.9659 -0.5193  1.7162
   98OSM   H13T 9778   5.300   2.432   9.688 -0.3183 -0.4748 -0.7135
   98OSM   C14S 9779   5.410   2.279   9.592  0.1044 -1.0035  0.3549
   98OSM   H14S 9780   5.325   2.209   9.606  0.0297 -0.9229  0.3071
   98OSM   H14T 9781   5.509   2.231   9.609  0.3563 -0.0366  1.6327
   98OSM   C15S 9782   5.420   2.344   9.450 -0.0818 -0.0240  0.4100
   98OSM   H15S 9783   5.517   2.400   9.449  0.3603 -0.7885 -0.0657
   98OSM   H15T 9784   5.327   2.402   9.436 -0.0522 -0.6136 -2.3747
   98OSM   C16S 9785   5.428   2.235   9.335  0.8423  0.0011  0.2233
   98OSM   H16S 9786   5.330   2.187   9.318 -1.2659  4.1215  0.1424
   98OSM   H16T 9787   5.506   2.163   9.370  0.0249  0.0714  2.2529
   98OSM   C17S 9788   5.474   2.299   9.203  0.1487  0.0608 -0.3038
   98OSM   H17S 9789   5.564   2.359   9.228 -0.0509  0.1031  0.3297
   98OSM   H17T 9790   5.395   2.362   9.157  0.5314 -0.9596 -2.3931
   98OSM   C18S 9791   5.505   2.194   9.104  0.0648 -0.3682 -0.1730
   98OSM   H18S 9792   5.412   2.149   9.065 -1.2826  1.9708  0.2305
   98OSM   H18T 9793   5.560   2.105   9.142  0.8938  0.2210  0.0286
   98OSM   H18U 9794   5.570   2.235   9.023 -2.6222 -2.1364 -3.3317
   98OSM    C1F 9795   5.629   3.213  10.415  0.5382  0.0743 -0.6402
   98OSM     OF 9796   5.736   3.237  10.472  0.0477 -1.0697 -0.5614
   98OSM    C2F 9797   5.583   3.268  10.284  0.2606 -0.4665 -0.3577
   98OSM    H2F 9798   5.509   3.350  10.296  3.2845  2.5716 -1.5124
   98OSM    H2G 9799   5.532   3.196  10.217 -0.9405 -0.6606  0.7554
   98OSM    C3F 9800   5.701   3.320  10.201 -0.6437 -0.1962  0.2178
   98OSM    H3F 9801   5.786   3.248  10.197 -0.2184  0.2854  0.6087
   98OSM    H3G 9802   5.741   3.406  10.259 -1.3550 -0.8946  1.7909
   98OSM    C4F 9803   5.680   3.367  10.060  0.0211 -0.2248  0.0830
   98OSM    H4F 9804   5.779   3.379  10.010 -0.7114 -2.1737 -1.9364
   98OSM    H4G 9805   5.625   3.463  10.065 -0.7462 -0.5937 -1.0278
   98OSM    C5F 9806   5.597   3.260   9.978  0.2603 -0.2724 -0.5010
   98OSM    H5F 9807   5.491   3.245  10.010  1.0584 -1.4222  1.7352
   98OSM    H5G 9808   5.648   3.165  10.003  0.2989  0.1680  1.2052
   98OSM    C6F 9809   5.589   3.279   9.824 -0.4299  0.5877 -0.2938
   98OSM    H6F 9810   5.692   3.262   9.786 -1.0763 -2.2741 -0.8749
   98OSM    H6G 9811   5.557   3.377   9.782 -1.2543  0.0076 -1.0735
   98OSM    C7F 9812   5.485   3.177   9.762  0.2627  0.3090 -0.0989
   98OSM    H7F 9813   5.384   3.203   9.800 -0.5248 -1.0182 -1.2059
   98OSM    H7G 9814   5.509   3.074   9.798 -1.2470 -0.5089 -1.3531
   98OSM    C8F 9815   5.470   3.198   9.611  0.4719  0.3270 -0.5024
   98OSM    H8F 9816   5.561   3.161   9.558  1.6659 -0.4461  1.9993
   98OSM    H8G 9817   5.476   3.307   9.587 -1.4467  0.2289 -1.5212
   98OSM    C9F 9818   5.352   3.138   9.543  0.0149  0.4625  0.0976
   98OSM    H9F 9819   5.305   3.075   9.620  0.5140 -0.7699 -0.5910
   98OSM   C10F 9820   5.304   3.150   9.420 -0.3791  0.1635 -0.6971
   98OSM   H10F 9821   5.219   3.084   9.398 -0.8689  1.0695 -1.5809
   98OSM   C11F 9822   5.357   3.240   9.313 -0.4750  0.1765 -0.5744
   98OSM   H11F 9823   5.423   3.307   9.371 -1.1530 -0.2301  0.6867
   98OSM   H11G 9824   5.277   3.306   9.272 -0.0726  0.1151 -1.4699
   98OSM   C12F 9825   5.436   3.161   9.212 -0.2766  0.1745  0.6545
   98OSM   H12F 9826   5.500   3.092   9.271 -1.3194 -1.3595  0.0128
   98OSM   H12G 9827   5.505   3.232   9.161  0.0953  1.0689  2.3625
   98OSM   C13F 9828   5.349   3.088   9.111 -0.1821 -0.1920  0.1488
   98OSM   H13F 9829   5.254   3.145   9.094  0.1342  0.4947  0.6470
   98OSM   H13G 9830   5.322   2.992   9.159 -0.4462 -0.9040 -1.4164
   98OSM   C14F 9831   5.431   3.080   8.981 -0.0610 -0.2854 -0.2595
   98OSM   H14F 9832   5.536   3.064   9.016 -0.0006 -1.7123 -1.0680
   98OSM   H14G 9833   5.439   3.182   8.938  0.8514  0.6130  1.9604
   98OSM   C15F 9834   5.366   2.990   8.880  0.4112  0.1914 -0.7771
   98OSM   H15F 9835   5.259   3.018   8.880 -0.2687 -2.0127  3.6737
   98OSM   H15G 9836   5.376   2.882   8.903  2.6025  0.3015 -1.1464
   98OSM   C16F 9837   5.415   3.007   8.741 -0.5573  0.2736 -0.4001
   98OSM   H16F 9838   5.526   3.010   8.750 -0.5502 -1.0094  0.0319
   98OSM   H16G 9839   5.393   3.107   8.699 -0.7199  1.0595  1.5229
   98OSM   C17F 9840   5.388   2.896   8.642  0.3865 -0.3214  0.0859
   98OSM   H17F 9841   5.280   2.886   8.616  0.6068 -1.1094 -0.5157
   98OSM   H17G 9842   5.411   2.798   8.688 -3.0866 -1.4215 -0.3432
   98OSM   C18F 9843   5.467   2.922   8.511  0.2103  0.3721  0.3373
   98OSM   H18F 9844   5.574   2.912   8.542  0.5566 -1.3439 -1.3113
   98OSM   H18G 9845   5.458   3.027   8.476  0.5462  1.3710  3.1284
   98OSM   H18H 9846   5.431   2.851   8.434 -1.9496  2.6503 -0.8088
   99OSM      N 9847   0.995   3.913  11.263 -0.1064 -0.3221 -0.1160
   99OSM    C15 9848   1.119   3.884  11.188  0.1405 -0.1551 -0.0961
   99OSM   H15A 9849   1.196   3.854  11.257  1.9402  3.0393 -0.6506
   99OSM   H15B 9850   1.162   3.973  11.146  2.1786 -0.4604  1.2649
   99OSM   H15C 9851   1.098   3.810  11.112  1.7103  0.3743 -1.0641
   99OSM    C14 9852   0.954   3.793  11.344 -0.3866 -0.0534 -0.4802
   99OSM   H14A 9853   1.012   3.769  11.432 -0.4645  0.1571 -0.3698
   99OSM   H14B 9854   0.947   3.701  11.288 -0.9129 -0.6112  0.4951
   99OSM   H14C 9855   0.852   3.799  11.381 -0.4934  0.0091 -0.7805
   99OSM    C13 9856   1.024   4.022  11.353  0.0195  1.1907 -0.5361
   99OSM   H13A 9857   1.063   4.113  11.308  1.7633  0.2541 -0.9454
   99OSM   H13B 9858   1.083   3.981  11.434 -0.3857 -0.8902 -1.2710
   99OSM   H13C 9859   0.936   4.047  11.411 -0.4778 -0.6772 -0.4792
   99OSM    C12 9860   0.880   3.948  11.176  0.6415  0.1819  0.3438
   99OSM   H12A 9861   0.911   4.021  11.101  2.0204  0.0111  0.7370
   99OSM   H12B 9862   0.806   3.999  11.236  1.6275  0.6143  1.1915
   99OSM    C11 9863   0.823   3.834  11.082 -0.2738  0.9807 -0.0800
   99OSM   H11A 9864   0.731   3.876  11.038  0.3425  0.4614 -1.8978
   99OSM   H11B 9865   0.789   3.749  11.146 -1.5373  1.4867 -0.0620
   99OSM      P 9866   0.946   3.641  10.957  0.0254 -0.0213 -0.7380
   99OSM    O13 9867   1.085   3.613  10.918 -0.1942 -0.7223 -0.2345
   99OSM    O14 9868   0.898   3.551  11.066 -0.8481  0.9245 -0.0287
   99OSM    O11 9869   0.862   3.613  10.828 -0.5896 -0.0069 -0.0858
   99OSM    O12 9870   0.929   3.798  10.985  0.0907  0.0838  0.1994
   99OSM    C1S 9871   0.800   3.729  10.762  0.0702  0.1586  0.6198
   99OSM    H1S 9872   0.876   3.805  10.730 -0.9471  1.3385  0.9861
   99OSM    H1T 9873   0.732   3.775  10.837 -0.6484 -0.8209  0.5673
   99OSM     NF 9874   0.691   3.808  10.545 -0.3518  0.6495  0.4577
   99OSM    HNF 9875   0.596   3.837  10.550  0.0471  2.0576 -0.0862
   99OSM    C2S 9876   0.725   3.692  10.626 -0.8016 -0.4795  0.0223
   99OSM    H2S 9877   0.787   3.619  10.570  1.8662  1.7427 -0.0303
   99OSM    C3S 9878   0.593   3.602  10.653  0.8205 -0.0190  0.1312
   99OSM    H3S 9879   0.518   3.667  10.701 -0.2272 -3.0351  2.7709
   99OSM     O3 9880   0.619   3.489  10.741 -0.4021  0.2581  0.1637
   99OSM    HO3 9881   0.709   3.501  10.773  0.2253 -0.2536 -1.3484
   99OSM    C4S 9882   0.543   3.554  10.517  0.4266  0.3779 -0.0296
   99OSM    H4S 9883   0.442   3.592  10.497  0.2346  1.0698  2.1255
   99OSM    C5S 9884   0.601   3.462  10.435  0.6356  0.0451 -0.2192
   99OSM    H5S 9885   0.692   3.412  10.468 -0.7602 -2.0942  0.5002
   99OSM    C6S 9886   0.556   3.411  10.307 -0.0122  0.1566 -0.0388
   99OSM    H6S 9887   0.456   3.458  10.292 -0.3147 -0.7836 -0.9447
   99OSM    H6T 9888   0.539   3.302  10.311  0.1095  0.1914  2.8575
   99OSM    C7S 9889   0.647   3.432  10.181  0.8586 -0.1125 -0.2465
   99OSM    H7S 9890   0.751   3.397  10.199  0.4881 -0.6677  0.8689
   99OSM    H7T 9891   0.663   3.540  10.162  0.9866  0.0333  0.6767
   99OSM    C8S 9892   0.589   3.371  10.052  0.4493  1.0574 -0.7990
   99OSM    H8S 9893   0.486   3.411  10.039 -0.7457 -1.8986 -0.6435
   99OSM    H8T 9894   0.562   3.267  10.077  0.0102  1.8610  2.2381
   99OSM    C9S 9895   0.680   3.378   9.933 -0.4928 -0.3060  0.2217
   99OSM    H9S 9896   0.632   3.318   9.853  1.1771  0.9085 -1.7344
   99OSM    H9T 9897   0.767   3.319   9.969  0.2358  0.6215 -0.0085
   99OSM   C10S 9898   0.735   3.512   9.885 -0.0296 -0.4220  0.2619
   99OSM   H10S 9899   0.826   3.543   9.940  0.6669 -0.4265 -0.8777
   99OSM   H10T 9900   0.661   3.589   9.915  1.2225 -0.1597  2.8076
   99OSM   C11S 9901   0.767   3.529   9.735 -0.1452 -0.0544  0.2837
   99OSM   H11S 9902   0.789   3.637   9.720  0.2909 -0.0417  0.9974
   99OSM   H11T 9903   0.670   3.520   9.681 -0.1025  0.9382  0.0335
   99OSM   C12S 9904   0.874   3.433   9.684  0.3781  0.3193  0.2224
   99OSM   H12S 9905   0.965   3.451   9.746 -0.2390  3.2605  0.3371
   99OSM   H12T 9906   0.841   3.329   9.705 -1.9906  1.2631  1.2929
   99OSM   C13S 9907   0.922   3.460   9.541 -0.7087  0.8120 -0.1184
   99OSM   H13S 9908   0.965   3.563   9.538  0.2415  0.5050  1.9615
   99OSM   H13T 9909   0.842   3.444   9.466  0.3706 -0.3950 -1.0405
   99OSM   C14S 9910   1.036   3.363   9.511 -0.3310  0.1456 -0.0424
   99OSM   H14S 9911   1.012   3.259   9.541  2.2970  0.5112  3.6294
   99OSM   H14T 9912   1.125   3.388   9.573 -1.4770  0.5666  1.4902
   99OSM   C15S 9913   1.076   3.358   9.368 -0.1012 -0.4187  0.5576
   99OSM   H15S 9914   0.991   3.322   9.307  0.8857 -0.2261 -0.9651
   99OSM   H15T 9915   1.162   3.288   9.356 -0.7524 -0.7619 -2.6490
   99OSM   C16S 9916   1.126   3.492   9.304 -0.5276  0.5392  0.1792
   99OSM   H16S 9917   1.179   3.540   9.390  0.9516  1.9243 -1.4598
   99OSM   H16T 9918   1.038   3.554   9.280  0.1352  1.2357 -0.5006
   99OSM   C17S 9919   1.205   3.470   9.174  0.2849 -0.6547  0.2539
   99OSM   H17S 9920   1.297   3.413   9.198 -0.7075 -1.4974  2.1345
   99OSM   H17T 9921   1.233   3.570   9.133  1.2552 -0.8669  0.3886
   99OSM   C18S 9922   1.133   3.378   9.071 -0.4673 -0.6592 -0.6894
   99OSM   H18S 9923   1.207   3.358   8.990  0.1456  2.4695 -0.9701
   99OSM   H18T 9924   1.046   3.426   9.020 -1.0317 -1.6755 -0.7085
   99OSM   H18U 9925   1.091   3.285   9.115 -0.9668  0.4871  1.2978
   99OSM    C1F 9926   0.780   3.870  10.472  0.2898 -0.7931  0.8637
   99OSM     OF 9927   0.894   3.824  10.456 -0.4785  0.1102  0.1659
   99OSM    C2F 9928   0.730   3.991  10.391 -0.2250 -0.4247 -0.4524
   99OSM    H2F 9929   0.748   4.078  10.457 -2.3035 -1.5338  1.6932
   99OSM    H2G 9930   0.620   3.977  10.376 -0.4367  0.4190  0.2806
   99OSM    C3F 9931   0.818   4.022  10.268 -0.3620 -0.2128 -0.0957
   99OSM    H3F 9932   0.844   4.130  10.278 -1.6543  0.1730 -0.8235
   99OSM    H3G 9933   0.919   3.975  10.268  0.5359  1.6129 -2.2443
   99OSM    C4F 9934   0.745   3.991  10.134 -0.1639  0.3506 -0.3349
   99OSM    H4F 9935   0.677   4.073  10.102 -0.6807  0.7423  1.6977
   99OSM    H4G 9936   0.691   3.896  10.158 -2.0800  0.9673 -2.0521
   99OSM    C5F 9937   0.833   3.959  10.012  0.3496 -0.4058  0.1018
   99OSM    H5F 9938   0.900   3.871  10.025 -1.1042 -1.4799  0.4667
   99OSM    H5G 9939   0.901   4.046  10.002 -0.0244  0.1238  1.9330
   99OSM    C6F 9940   0.758   3.961   9.885 -0.9379  0.2453  1.1694
   99OSM    H6F 9941   0.703   4.057   9.878 -1.4364 -0.1326 -0.2266
   99OSM    H6G 9942   0.679   3.884   9.872  0.0045 -0.6881  0.8301
   99OSM    C7F 9943   0.854   3.929   9.763 -0.3014 -0.6881  0.0070
   99OSM    H7F 9944   0.901   3.835   9.797  2.1550  1.2091  2.0504
   99OSM    H7G 9945   0.923   4.017   9.768 -1.6279  0.3142  1.0022
   99OSM    C8F 9946   0.778   3.921   9.630  0.3552  0.2314 -0.4392
   99OSM    H8F 9947   0.721   4.017   9.625 -0.7574 -0.4611 -1.3093
   99OSM    H8G 9948   0.703   3.839   9.630  1.9271 -1.2865  2.8574
   99OSM    C9F 9949   0.866   3.898   9.506  0.0487 -1.0615  0.6233
   99OSM    H9F 9950   0.965   3.946   9.510  0.0781 -1.0130 -0.4944
   99OSM   C10F 9951   0.832   3.818   9.400  0.3137 -0.1481 -0.0874
   99OSM   H10F 9952   0.914   3.780   9.337  1.1062  0.9990  0.2185
   99OSM   C11F 9953   0.701   3.750   9.367 -0.7914  0.1020 -0.3361
   99OSM   H11F 9954   0.622   3.788   9.434 -0.6134  0.4063 -0.2995
   99OSM   H11G 9955   0.720   3.640   9.375 -0.8659  0.1270  0.1495
   99OSM   C12F 9956   0.661   3.773   9.215 -0.3167 -0.6758  0.6541
   99OSM   H12F 9957   0.568   3.713   9.209  0.2631 -1.4899 -0.3981
   99OSM   H12G 9958   0.733   3.717   9.151 -1.3557  0.2043 -1.3487
   99OSM   C13F 9959   0.646   3.923   9.170 -0.1916  0.3861 -0.7943
   99OSM   H13F 9960   0.744   3.975   9.165 -0.6815  1.4079  0.0103
   99OSM   H13G 9961   0.574   3.967   9.243  0.1836  0.7778 -0.6574
   99OSM   C14F 9962   0.584   3.933   9.030 -0.1470 -0.6313  0.6086
   99OSM   H14F 9963   0.492   3.872   9.024 -0.0200 -0.6608 -1.5010
   99OSM   H14G 9964   0.658   3.901   8.953  0.0660  2.8134 -0.7023
   99OSM   C15F 9965   0.536   4.075   9.001  0.6002 -0.5549 -0.4037
   99OSM   H15F 9966   0.597   4.154   9.050 -1.4163  1.1199 -0.4923
   99OSM   H15G 9967   0.446   4.090   9.066  0.8713  1.7608 -0.5313
   99OSM   C16F 9968   0.504   4.111   8.861 -0.5249 -0.6519  0.0898
   99OSM   H16F 9969   0.432   4.196   8.858  0.9556  0.6367  0.3131
   99OSM   H16G 9970   0.451   4.028   8.809  0.4603 -1.1972 -0.0518
   99OSM   C17F 9971   0.631   4.145   8.781 -0.4437 -0.2712  0.0588
   99OSM   H17F 9972   0.711   4.069   8.794 -0.5512 -0.3769  0.1006
   99OSM   H17G 9973   0.670   4.241   8.823  3.2306 -0.2630 -3.1248
   99OSM   C18F 9974   0.593   4.143   8.638  0.6661 -0.7352  0.2658
   99OSM   H18F 9975   0.673   4.182   8.571 -0.4938 -1.6410 -1.7066
   99OSM   H18G 9976   0.500   4.205   8.637  1.7981  1.0100  1.2744
   99OSM   H18H 9977   0.568   4.037   8.617  1.2665 -0.7826 -0.2094
  100OSM      N 9978   2.410   4.806  10.569 -0.3648 -0.3760 -0.2675
  100OSM    C15 9979   2.352   4.673  10.600 -0.0521  0.5060  0.2872
  100OSM   H15A 9980   2.274   4.657  10.526  0.8171 -0.4343 -0.4383
  100OSM   H15B 9981   2.315   4.667  10.701  0.5631 -1.7054  0.4146
  100OSM   H15C 9982   2.420   4.590  10.588 -0.6761  0.1965 -1.2309
  100OSM    C14 9983   2.485   4.801  10.444  1.0890  0.3628 -0.2341
  100OSM   H14A 9984   2.563   4.727  10.454  0.6057 -0.0742  0.3627
  100OSM   H14B 9985   2.520   4.901  10.426  1.2091 -0.1708 -3.1780
  100OSM   H14C 9986   2.411   4.773  10.370  0.4700  1.0621  0.1146
  100OSM    C13 9987   2.303   4.917  10.560  0.0914  0.3858 -0.2872
  100OSM   H13A 9988   2.339   5.018  10.549 -1.8517  1.3111  1.4615
  100OSM   H13B 9989   2.237   4.910  10.646 -0.0950 -0.8025 -0.5193
  100OSM   H13C 9990   2.250   4.894  10.469 -0.3580 -0.1537  0.1032
  100OSM    C12 9991   2.515   4.832  10.676 -0.2940 -0.0402 -0.1666
  100OSM   H12A 9992   2.463   4.857  10.767 -1.1371  0.4147 -0.7598
  100OSM   H12B 9993   2.568   4.922  10.650  1.9944 -1.7001 -1.4167
  100OSM    C11 9994   2.618   4.722  10.695  0.0163 -0.3210  0.4969
  100OSM   H11A 9995   2.699   4.766  10.757 -2.2998  3.2968  1.1104
  100OSM   H11B 9996   2.666   4.698  10.598  2.3488  0.9367  1.2897
  100OSM      P 9997   2.669   4.497  10.808 -0.5728 -0.1380  0.3545
  100OSM    O13 9998   2.720   4.556  10.936  0.2427  0.0517  0.2019
  100OSM    O14 9999   2.605   4.362  10.805 -0.0372  0.7465  0.1344
  100OSM    O1110000   2.788   4.496  10.704 -0.4123  0.9556 -0.4107
  100OSM    O1210001   2.561   4.605  10.751  0.0565 -0.3902 -0.7178
  100OSM    C1S10002   2.769   4.431  10.580 -0.4664  0.2936  0.3927
  100OSM    H1S10003   2.663   4.431  10.546  0.3136 -0.2187 -2.0856
  100OSM    H1T10004   2.805   4.326  10.582  0.4884  0.6195  0.4969
  100OSM     NF10005   2.810   4.427  10.335 -0.0787 -0.5156 -0.1246
  100OSM    HNF10006   2.892   4.378  10.307 -0.2269  0.9894 -3.3692
  100OSM    C2S10007   2.836   4.506  10.452 -0.3169  0.2415 -0.1760
  100OSM    H2S10008   2.786   4.604  10.439  0.0574  0.7284  1.8720
  100OSM    C3S10009   2.983   4.537  10.483  0.0619  0.0856  0.3182
  100OSM    H3S10010   3.046   4.451  10.513  1.3377  1.0176  0.3380
  100OSM     O310011   2.992   4.626  10.591 -0.2468 -0.3148  0.2789
  100OSM    HO310012   2.931   4.589  10.656 -0.0949 -2.7899 -0.9220
  100OSM    C4S10013   3.049   4.610  10.377 -0.3496  0.0452 -0.3184
  100OSM    H4S10014   3.030   4.718  10.384  0.6721  0.1780  0.6051
  100OSM    C5S10015   3.148   4.563  10.290  0.2429  0.2742 -0.3053
  100OSM    H5S10016   3.157   4.454  10.283 -1.9832  0.1047 -0.6715
  100OSM    C6S10017   3.224   4.637  10.183  0.0746  0.9646  0.2989
  100OSM    H6S10018   3.325   4.672  10.216  0.3289  0.4377  0.0818
  100OSM    H6T10019   3.180   4.738  10.165  3.0864  1.6457 -4.1347
  100OSM    C7S10020   3.231   4.565  10.049  0.4628 -0.0526 -0.0124
  100OSM    H7S10021   3.130   4.560  10.003 -0.1463 -0.0522  1.2985
  100OSM    H7T10022   3.268   4.460  10.053 -0.2791 -0.3892 -1.4889
  100OSM    C8S10023   3.322   4.643   9.957  0.6804 -0.0858  0.0583
  100OSM    H8S10024   3.428   4.641   9.992  0.5383  0.2636  0.5087
  100OSM    H8T10025   3.282   4.746   9.949 -1.2198 -0.9009 -1.0717
  100OSM    C9S10026   3.315   4.586   9.818 -0.4116  0.6679 -0.2709
  100OSM    H9S10027   3.211   4.582   9.778 -0.6133 -0.5558  0.3695
  100OSM    H9T10028   3.355   4.483   9.808 -0.8064  0.5552 -0.7675
  100OSM   C10S10029   3.410   4.662   9.717  0.0149 -0.1068 -0.2854
  100OSM   H10S10030   3.514   4.621   9.721  0.4512  0.8514 -1.6770
  100OSM   H10T10031   3.404   4.764   9.761  1.5416  1.1155 -2.8390
  100OSM   C11S10032   3.356   4.660   9.578  0.1591 -0.3402  0.4457
  100OSM   H11S10033   3.361   4.555   9.542  2.4896  0.5230 -1.8796
  100OSM   H11T10034   3.424   4.704   9.503  1.6476 -2.1917  0.6717
  100OSM   C12S10035   3.221   4.722   9.562 -0.6857 -0.4263 -0.5358
  100OSM   H12S10036   3.216   4.809   9.632  3.0762 -1.3783  1.0770
  100OSM   H12T10037   3.135   4.660   9.594 -2.3507  0.9269 -2.2939
  100OSM   C13S10038   3.177   4.767   9.418  1.3784  0.2813 -0.2131
  100OSM   H13S10039   3.176   4.675   9.356 -1.2387 -1.7237  2.6395
  100OSM   H13T10040   3.240   4.844   9.369  1.4932 -0.3867 -1.1144
  100OSM   C14S10041   3.034   4.824   9.424 -0.0941  0.3428  0.7977
  100OSM   H14S10042   3.030   4.889   9.515  0.4011  2.3413 -0.5723
  100OSM   H14T10043   2.970   4.736   9.444  0.7625 -0.0833  1.7320
  100OSM   C15S10044   2.964   4.886   9.300  0.5318 -0.0977  0.2333
  100OSM   H15S10045   3.028   4.976   9.283  0.3583  0.2215  1.1883
  100OSM   H15T10046   2.861   4.918   9.325  0.7998  0.2590  0.9231
  100OSM   C16S10047   2.972   4.797   9.178  0.0627 -0.0030  0.0105
  100OSM   H16S10048   2.923   4.699   9.196  1.6382 -0.5985  1.1782
  100OSM   H16T10049   3.078   4.773   9.155  0.7183  2.9135 -0.1214
  100OSM   C17S10050   2.915   4.874   9.059 -0.0787 -0.3422  0.2523
  100OSM   H17S10051   2.989   4.943   9.014 -0.7066  0.2949  0.1786
  100OSM   H17T10052   2.838   4.944   9.099 -2.5564 -1.6830 -2.0101
  100OSM   C18S10053   2.858   4.796   8.944  0.7405  0.2154 -0.6591
  100OSM   H18S10054   2.796   4.718   8.992 -2.7355  2.0009 -2.0407
  100OSM   H18T10055   2.942   4.743   8.894 -2.4064 -1.9314 -3.9101
  100OSM   H18U10056   2.795   4.849   8.868 -0.4534  1.8955  1.4308
  100OSM    C1F10057   2.691   4.397  10.286 -0.5757 -0.4462 -0.3981
  100OSM     OF10058   2.599   4.458  10.340 -0.1061  0.9496 -0.3798
  100OSM    C2F10059   2.681   4.293  10.177  0.3166  0.5492 -0.4053
  100OSM    H2F10060   2.672   4.196  10.232 -0.7389  1.8888  1.8574
  100OSM    H2G10061   2.780   4.290  10.127 -0.3607  1.1348 -1.7917
  100OSM    C3F10062   2.573   4.308  10.074  0.5478  0.0981  0.0678
  100OSM    H3F10063   2.583   4.407  10.024  1.5885 -0.0040  0.0612
  100OSM    H3G10064   2.476   4.306  10.127  0.3773 -2.2241 -0.2821
  100OSM    C4F10065   2.584   4.204   9.953  0.2902 -0.2574 -0.0308
  100OSM    H4F10066   2.589   4.099   9.990 -1.3531 -0.6929 -0.9776
  100OSM    H4G10067   2.683   4.216   9.904 -0.0801 -0.6163 -0.8733
  100OSM    C5F10068   2.473   4.225   9.846 -0.3948  0.5491 -0.0111
  100OSM    H5F10069   2.507   4.320   9.799 -0.4560  0.8442  0.5320
  100OSM    H5G10070   2.371   4.241   9.890  0.2882 -0.4578  1.9964
  100OSM    C6F10071   2.485   4.117   9.738 -0.6731  0.3447  0.1112
  100OSM    H6F10072   2.444   4.021   9.777  2.2244 -0.1192  2.2369
  100OSM    H6G10073   2.594   4.104   9.724 -0.8494 -3.3307  1.6099
  100OSM    C7F10074   2.414   4.157   9.607 -0.4389  0.0090  0.8563
  100OSM    H7F10075   2.468   4.239   9.556  2.5513 -1.1646  2.0300
  100OSM    H7G10076   2.312   4.189   9.639 -0.8574  2.3054 -2.5942
  100OSM    C8F10077   2.403   4.035   9.516 -0.1172  0.3607  0.3082
  100OSM    H8F10078   2.338   3.957   9.562 -0.9390 -0.8213 -2.6732
  100OSM    H8G10079   2.495   3.980   9.485 -0.0431  1.1819 -1.0062
  100OSM    C9F10080   2.333   4.077   9.394 -0.5774 -0.2931  0.3214
  100OSM    H9F10081   2.233   4.121   9.407  0.1840  1.3268  0.8794
  100OSM   C10F10082   2.377   4.077   9.266  0.3226 -0.0943 -0.3879
  100OSM   H10F10083   2.306   4.114   9.191  2.9775  1.0968 -2.4339
  100OSM   C11F10084   2.512   4.032   9.218 -0.2795 -0.6176  0.3719
  100OSM   H11F10085   2.543   3.943   9.276  1.9652  0.4527  0.8691
  100OSM   H11G10086   2.583   4.117   9.227 -0.9032  0.0816 -0.9957
  100OSM   C12F10087   2.514   4.005   9.066  0.4025 -0.2529  0.0397
  100OSM   H12F10088   2.618   3.992   9.030  1.0240 -0.9264  1.9805
  100OSM   H12G10089   2.467   4.089   9.010  2.1128  2.3210  2.3415
  100OSM   C13F10090   2.436   3.878   9.028 -0.1537 -0.0311 -0.1957
  100OSM   H13F10091   2.330   3.890   9.059  0.4263  2.2315  0.9862
  100OSM   H13G10092   2.481   3.796   9.088 -0.4727 -0.2646 -0.2768
  100OSM   C14F10093   2.444   3.833   8.881  0.0123  0.2506 -0.1839
  100OSM   H14F10094   2.550   3.820   8.851 -0.2247  1.8360 -1.8109
  100OSM   H14G10095   2.405   3.912   8.814  1.4565 -1.1306 -2.7432
  100OSM   C15F10096   2.375   3.701   8.862 -0.1558  0.1955 -0.1011
  100OSM   H15F10097   2.326   3.672   8.958  0.7240  0.6104  0.4829
  100OSM   H15G10098   2.447   3.620   8.840  1.2184  1.5850 -0.7911
  100OSM   C16F10099   2.272   3.695   8.748 -0.4886 -0.6937  0.3156
  100OSM   H16F10100   2.315   3.720   8.649 -2.8863  1.3145 -0.2645
  100OSM   H16G10101   2.194   3.769   8.777 -0.4752 -0.9279  0.9625
  100OSM   C17F10102   2.191   3.567   8.735 -0.7324 -0.2472 -0.2539
  100OSM   H17F10103   2.261   3.481   8.730  0.5136  0.7491 -0.2534
  100OSM   H17G10104   2.127   3.572   8.644 -0.1532 -1.8709 -0.7581
  100OSM   C18F10105   2.090   3.550   8.851 -0.7808 -0.2883 -0.4776
  100OSM   H18F10106   2.026   3.640   8.848 -0.3225 -0.0070 -1.8348
  100OSM   H18G10107   2.149   3.542   8.945 -0.5234 -1.5139 -0.7371
  100OSM   H18H10108   2.039   3.454   8.829 -0.1992 -0.6732 -0.1619
  101OSM      N10109   5.460   4.588  10.746  0.4031  0.0179 -0.2293
  101OSM    C1510110   5.363   4.644  10.849 -1.2387  0.1264 -0.6138
  101OSM   H15A10111   5.349   4.751  10.852 -1.6391  0.0487  0.5206
  101OSM   H15B10112   5.390   4.615  10.950 -0.8125  2.1339 -0.1328
  101OSM   H15C10113   5.262   4.612  10.829 -0.4675 -1.9592 -1.2555
  101OSM    C1410114   5.435   4.434  10.752 -0.2711 -0.8107  0.4853
  101OSM   H14A10115   5.472   4.416  10.852 -0.4201 -2.2968  0.2829
  101OSM   H14B10116   5.484   4.371  10.679 -1.3224 -1.8954  0.6994
  101OSM   H14C10117   5.329   4.413  10.755 -0.2205 -0.9402  1.3984
  101OSM    C1310118   5.423   4.633  10.613 -0.6690 -0.3869  0.5027
  101OSM   H13A10119   5.449   4.737  10.598 -0.5793 -0.8186 -2.7025
  101OSM   H13B10120   5.317   4.622  10.596 -0.6600 -0.6099  0.5833
  101OSM   H13C10121   5.482   4.585  10.536  0.3999  1.0057  0.4281
  101OSM    C1210122   5.602   4.631  10.766  0.5339 -0.1582 -0.2415
  101OSM   H12A10123   5.613   4.736  10.743 -1.7100  0.0082 -0.7400
  101OSM   H12B10124   5.658   4.569  10.697  0.7174  0.9904 -1.1528
  101OSM    C1110125   5.666   4.601  10.911 -0.6341 -0.2043  0.0996
  101OSM   H11A10126   5.657   4.494  10.941 -0.3807  0.5564  3.0387
  101OSM   H11B10127   5.625   4.675  10.983  3.2933  2.4979 -0.2816
  101OSM      P10128   5.923   4.547  10.898  0.4416 -0.1142 -0.0257
  101OSM    O1310129   6.047   4.625  10.903 -0.3239  0.0694 -0.3928
  101OSM    O1410130   5.903   4.447  11.009 -0.5278 -0.1220  0.3366
  101OSM    O1110131   5.907   4.473  10.761 -0.3130  0.1401 -0.0598
  101OSM    O1210132   5.800   4.644  10.884 -0.2231 -0.6226  0.1623
  101OSM    C1S10133   5.931   4.542  10.639 -0.0649  0.3148  0.5047
  101OSM    H1S10134   6.036   4.577  10.638 -0.2186  0.7708 -1.3113
  101OSM    H1T10135   5.854   4.621  10.631 -0.8058 -0.5791 -1.7214
  101OSM     NF10136   5.950   4.533  10.390 -0.0159 -0.0454 -0.5347
  101OSM    HNF10137   5.878   4.589  10.351  0.4886  0.6254 -0.5094
  101OSM    C2S10138   5.907   4.453  10.506 -0.0387  0.6577 -0.4160
  101OSM    H2S10139   5.975   4.366  10.522  0.2804  0.6258 -1.8906
  101OSM    C3S10140   5.764   4.407  10.491  0.8183  0.3604  0.7288
  101OSM    H3S10141   5.708   4.501  10.468 -2.5262 -1.8900 -0.7133
  101OSM     O310142   5.691   4.364  10.608 -0.6192 -0.0983 -0.5070
  101OSM    HO310143   5.731   4.396  10.689 -1.3113 -1.0243  0.2075
  101OSM    C4S10144   5.748   4.311  10.377  0.0408  0.0771 -0.3430
  101OSM    H4S10145   5.739   4.353  10.276  0.2332  1.6015  0.2668
  101OSM    C5S10146   5.762   4.176  10.392  1.0050 -0.0473 -0.5677
  101OSM    H5S10147   5.797   4.136  10.488 -0.7767  0.9253  0.5306
  101OSM    C6S10148   5.746   4.085  10.279 -1.2185 -0.0804 -0.7549
  101OSM    H6S10149   5.686   3.999  10.315  1.1878 -0.5901  2.2760
  101OSM    H6T10150   5.849   4.049  10.258 -0.8953  0.4391 -0.0690
  101OSM    C7S10151   5.685   4.125  10.136  0.1193 -0.5232 -0.8685
  101OSM    H7S10152   5.734   4.220  10.106  2.8840 -2.1785 -1.6991
  101OSM    H7T10153   5.575   4.143  10.144  0.4377  2.0172 -1.8664
  101OSM    C8S10154   5.705   4.010  10.036  0.4599  0.1192 -0.6562
  101OSM    H8S10155   5.667   3.922  10.092  0.4926  1.2210  1.1678
  101OSM    H8T10156   5.813   3.990  10.020  1.2113  1.6984  1.9608
  101OSM    C9S10157   5.633   4.029   9.904  0.4935 -0.2329  0.2435
  101OSM    H9S10158   5.634   4.135   9.870 -1.6275 -0.1291  0.4093
  101OSM    H9T10159   5.525   4.011   9.925  0.4371  2.2888  2.3453
  101OSM   C10S10160   5.686   3.925   9.799  0.4145  0.3230  0.3072
  101OSM   H10S10161   5.684   3.821   9.840  0.9969  0.3781  0.4788
  101OSM   H10T10162   5.793   3.953   9.786 -0.4217  2.9782 -1.0888
  101OSM   C11S10163   5.613   3.930   9.667  0.1517  0.1256 -0.7246
  101OSM   H11S10164   5.591   4.039   9.663 -1.8657 -0.3390 -3.6030
  101OSM   H11T10165   5.523   3.864   9.671  1.8614 -2.3468 -1.5367
  101OSM   C12S10166   5.693   3.867   9.551  0.8109  0.3616 -0.4273
  101OSM   H12S10167   5.622   3.862   9.466  0.3044  2.1209 -0.1250
  101OSM   H12T10168   5.712   3.760   9.573 -1.7081  0.0539  0.4988
  101OSM   C13S10169   5.809   3.959   9.517 -0.1512 -0.0547  0.1074
  101OSM   H13S10170   5.885   3.966   9.598  0.8975  1.3079 -0.9613
  101OSM   H13T10171   5.784   4.067   9.511  0.4019  0.1436  1.2348
  101OSM   C14S10172   5.891   3.920   9.401 -0.2871  0.6363  0.0933
  101OSM   H14S10173   5.901   3.810   9.389  0.7240  0.7479 -0.1210
  101OSM   H14T10174   5.991   3.967   9.418 -1.2788  2.4224  1.1699
  101OSM   C15S10175   5.826   3.974   9.267  0.5952 -0.4638 -0.2082
  101OSM   H15S10176   5.829   4.085   9.261  2.4038 -0.4910 -0.0242
  101OSM   H15T10177   5.719   3.945   9.256  0.5398 -0.2993 -0.1051
  101OSM   C16S10178   5.913   3.906   9.162 -0.1862 -0.3615 -0.8213
  101OSM   H16S10179   5.907   3.797   9.183 -2.7490 -0.3168 -1.0924
  101OSM   H16T10180   6.018   3.942   9.167 -0.3853  0.2324 -0.9432
  101OSM   C17S10181   5.856   3.917   9.023 -0.5346 -1.0613 -0.4590
  101OSM   H17S10182   5.846   4.025   9.000  0.8923 -1.3403 -2.5657
  101OSM   H17T10183   5.754   3.874   9.014 -1.3244  0.9156 -1.3889
  101OSM   C18S10184   5.944   3.862   8.913  0.2965  0.0759 -0.1498
  101OSM   H18S10185   5.972   3.758   8.939  0.3515  0.6814  2.2946
  101OSM   H18T10186   6.038   3.922   8.904 -1.2557  3.0320  2.6697
  101OSM   H18U10187   5.904   3.857   8.809  1.1034  2.3663 -0.6000
  101OSM    C1F10188   6.078   4.539  10.351  1.1132  0.3272 -0.8756
  101OSM     OF10189   6.163   4.482  10.418 -0.3626 -0.0084 -0.6293
  101OSM    C2F10190   6.106   4.608  10.220 -0.2689 -0.2494  0.4430
  101OSM    H2F10191   6.207   4.648  10.241  0.2576 -0.8089 -0.9638
  101OSM    H2G10192   6.034   4.692  10.213  0.2212  0.2605  1.4923
  101OSM    C3F10193   6.111   4.505  10.094 -0.4866 -0.4568  0.6753
  101OSM    H3F10194   6.205   4.446  10.104 -0.3871 -0.0998  1.9841
  101OSM    H3G10195   6.115   4.568  10.003  2.7327 -0.4295  0.7809
  101OSM    C4F10196   5.989   4.414  10.075 -0.3581 -0.5217 -0.3866
  101OSM    H4F10197   5.888   4.461  10.077 -1.4137 -2.7746  0.8352
  101OSM    H4G10198   5.985   4.338  10.155 -0.8132 -1.5495 -1.3818
  101OSM    C5F10199   5.992   4.325   9.954  0.8405 -0.6662  0.1207
  101OSM    H5F10200   5.897   4.267   9.952  0.0176  0.6715 -0.0633
  101OSM    H5G10201   6.079   4.256   9.962  1.8022  0.4482 -0.6793
  101OSM    C6F10202   6.002   4.389   9.816 -0.4474 -0.0449 -0.1692
  101OSM    H6F10203   5.937   4.478   9.817 -0.3615  0.0083  0.7566
  101OSM    H6G10204   6.111   4.407   9.802 -0.1482 -1.1581  0.6363
  101OSM    C7F10205   5.945   4.288   9.716 -0.5208 -0.2439  0.3208
  101OSM    H7F10206   5.849   4.253   9.761 -0.5111  0.0755  0.5957
  101OSM    H7G10207   6.007   4.198   9.697  1.8122  1.0944  1.3453
  101OSM    C8F10208   5.913   4.344   9.573  0.3312  0.5723  0.0793
  101OSM    H8F10209   5.819   4.403   9.577 -0.5727 -0.9226  0.8348
  101OSM    H8G10210   5.887   4.256   9.510 -0.3147  0.1598  0.9328
  101OSM    C9F10211   6.025   4.414   9.499 -0.0063  0.4745  0.3183
  101OSM    H9F10212   6.045   4.509   9.550 -0.0885  2.6451 -3.5658
  101OSM   C10F10213   6.103   4.387   9.396 -0.4824  0.2681 -0.4574
  101OSM   H10F10214   6.185   4.457   9.372  1.1623 -1.0489  1.1262
  101OSM   C11F10215   6.096   4.260   9.315 -0.4655 -0.1920 -0.2074
  101OSM   H11F10216   6.006   4.196   9.330 -1.2795  0.8145 -0.8044
  101OSM   H11G10217   6.190   4.205   9.337 -0.9224 -1.2133 -0.7738
  101OSM   C12F10218   6.086   4.290   9.156 -0.0802  0.7385 -0.2611
  101OSM   H12F10219   6.113   4.194   9.107 -2.6802 -1.1471  1.8572
  101OSM   H12G10220   6.170   4.361   9.139  0.9448 -0.7977 -1.7657
  101OSM   C13F10221   5.950   4.330   9.114 -0.4383  0.6523  0.2707
  101OSM   H13F10222   5.889   4.393   9.182 -1.1997  0.5729 -0.3263
  101OSM   H13G10223   5.895   4.233   9.111  3.1547 -1.4246 -1.2441
  101OSM   C14F10224   5.942   4.405   8.983 -0.1537  0.5290 -0.5976
  101OSM   H14F10225   6.016   4.360   8.913  0.9036  1.4469 -0.0977
  101OSM   H14G10226   5.991   4.504   8.996  2.5972 -1.0164  1.2881
  101OSM   C15F10227   5.803   4.421   8.917  0.1807  0.1038  0.1765
  101OSM   H15F10228   5.751   4.468   9.003 -1.0870 -0.1624 -0.4377
  101OSM   H15G10229   5.762   4.321   8.894 -1.5597  0.1703  2.7870
  101OSM   C16F10230   5.803   4.503   8.790 -0.3540  0.4076  0.2244
  101OSM   H16F10231   5.697   4.522   8.761 -0.6407 -1.1667  0.1699
  101OSM   H16G10232   5.852   4.439   8.714 -1.8204 -0.6862  0.1832
  101OSM   C17F10233   5.884   4.632   8.788  0.3011  0.8457 -0.4448
  101OSM   H17F10234   5.990   4.614   8.816  0.2951 -0.1357 -1.0302
  101OSM   H17G10235   5.837   4.698   8.864 -0.8286  0.3386 -0.7027
  101OSM   C18F10236   5.889   4.697   8.645  0.1298 -0.1753 -0.6209
  101OSM   H18F10237   5.793   4.725   8.597  0.2598  0.4055 -0.5470
  101OSM   H18G10238   5.932   4.613   8.586  1.6954  1.1003 -1.3401
  101OSM   H18H10239   5.962   4.780   8.639  0.4010 -0.3081  0.6348
  102OSM      N10240   0.860   6.458  11.037 -1.2185  0.6698  0.0614
  102OSM    C1510241   0.969   6.376  11.096  0.4202  0.4004  0.0750
  102OSM   H15A10242   1.023   6.326  11.016 -0.9556 -0.1005 -0.5492
  102OSM   H15B10243   0.942   6.302  11.170  0.2710 -0.2280 -0.5960
  102OSM   H15C10244   1.049   6.431  11.144  1.0533 -0.9259  0.5863
  102OSM    C1410245   0.755   6.373  10.983  0.8142  1.0267  0.5424
  102OSM   H14A10246   0.793   6.287  10.929  0.7933 -0.8918  3.4276
  102OSM   H14B10247   0.689   6.425  10.916  0.8878  0.2328 -0.1649
  102OSM   H14C10248   0.684   6.337  11.057 -0.5026 -0.9061 -1.5819
  102OSM    C1310249   0.796   6.544  11.144  0.3201 -0.1389  0.1390
  102OSM   H13A10250   0.861   6.603  11.206  1.1546  0.6954 -1.4834
  102OSM   H13B10251   0.723   6.488  11.199 -1.9582  2.3733 -0.2558
  102OSM   H13C10252   0.735   6.617  11.093  2.1553  1.6018  0.3735
  102OSM    C1210253   0.918   6.551  10.929  0.0213 -0.2436  0.8021
  102OSM   H12A10254   1.003   6.601  10.974 -0.2598 -0.4828  1.6099
  102OSM   H12B10255   0.834   6.616  10.909 -0.1382 -0.5766  0.3916
  102OSM    C1110256   0.963   6.489  10.790  0.0330  0.6816 -0.1680
  102OSM   H11A10257   0.978   6.575  10.721  2.5550  0.0081 -0.4808
  102OSM   H11B10258   0.871   6.436  10.756  1.2045 -0.9250 -0.8772
  102OSM      P10259   1.212   6.477  10.834  0.2867  0.4751 -0.0642
  102OSM    O1310260   1.198   6.592  10.929 -0.6719  0.4865 -0.3980
  102OSM    O1410261   1.315   6.383  10.868  0.3853  0.1577  0.9421
  102OSM    O1110262   1.230   6.540  10.690  0.1679 -0.1340 -0.0311
  102OSM    O1210263   1.074   6.399  10.817  0.2050  0.4060 -0.2560
  102OSM    C1S10264   1.347   6.560  10.616 -0.6306 -0.0854 -0.3590
  102OSM    H1S10265   1.400   6.464  10.595 -2.2192 -0.7678 -1.3255
  102OSM    H1T10266   1.410   6.634  10.670 -1.4108  1.0678 -1.0100
  102OSM     NF10267   1.437   6.647  10.403  0.3270 -0.8607  0.7242
  102OSM    HNF10268   1.468   6.742  10.401  1.6375 -1.2315  2.0028
  102OSM    C2S10269   1.314   6.624  10.476  0.1365  0.0247  0.0758
  102OSM    H2S10270   1.265   6.546  10.413 -0.6930  0.5048  0.1225
  102OSM    C3S10271   1.229   6.752  10.487 -0.3523  0.1485  0.8698
  102OSM    H3S10272   1.288   6.827  10.542  2.7327 -1.2258 -0.4392
  102OSM     O310273   1.110   6.722  10.557  0.1213  0.3424  0.0881
  102OSM    HO310274   1.140   6.651  10.615  0.2752  1.1348  0.9777
  102OSM    C4S10275   1.187   6.799  10.349  0.1344 -0.0980  0.8837
  102OSM    H4S10276   1.092   6.757  10.312  2.0845 -2.3925 -1.7507
  102OSM    C5S10277   1.238   6.899  10.283  0.5078 -0.1978 -0.0912
  102OSM    H5S10278   1.319   6.957  10.328  0.8811  2.4389 -3.9475
  102OSM    C6S10279   1.183   6.933  10.146  0.7711 -0.5121 -0.3459
  102OSM    H6S10280   1.179   7.043  10.139 -0.8165 -0.6242 -1.3415
  102OSM    H6T10281   1.081   6.890  10.136 -0.6573  2.7059 -0.0288
  102OSM    C7S10282   1.271   6.874  10.038 -0.2516  0.8232 -0.5268
  102OSM    H7S10283   1.285   6.764  10.047 -0.2645  1.0310  2.2829
  102OSM    H7T10284   1.368   6.927  10.048 -0.8321  1.6291  1.0319
  102OSM    C8S10285   1.224   6.899   9.891 -1.2746  0.6263  0.2443
  102OSM    H8S10286   1.178   7.000   9.884 -1.1151  0.8081  1.6773
  102OSM    H8T10287   1.139   6.830   9.875 -0.2545 -0.4814 -0.4818
  102OSM    C9S10288   1.336   6.886   9.788 -0.4728 -0.6242 -0.1309
  102OSM    H9S10289   1.381   6.784   9.784 -0.7589 -0.8275  1.5863
  102OSM    H9T10290   1.428   6.939   9.820 -0.3075 -0.6130 -0.6124
  102OSM   C10S10291   1.309   6.932   9.646  1.1695 -0.1098  0.0872
  102OSM   H10S10292   1.280   7.039   9.648  1.4483 -0.0332  0.0553
  102OSM   H10T10293   1.230   6.873   9.594 -2.1083  2.5825  1.8254
  102OSM   C11S10294   1.426   6.916   9.551  0.1750 -0.7183  0.3292
  102OSM   H11S10295   1.449   6.809   9.532  1.3430 -0.0451 -2.2484
  102OSM   H11T10296   1.516   6.959   9.601 -0.9695 -0.1089  1.8924
  102OSM   C12S10297   1.415   6.984   9.411  0.0199  0.1271 -0.5692
  102OSM   H12S10298   1.465   7.083   9.417  0.4948  0.0326 -2.4412
  102OSM   H12T10299   1.309   7.007   9.390 -0.3728 -1.2369 -0.1538
  102OSM   C13S10300   1.474   6.907   9.292  0.2608  0.5447  0.2951
  102OSM   H13S10301   1.423   6.809   9.284 -2.8472  2.0702  0.4969
  102OSM   H13T10302   1.579   6.880   9.317  0.0480 -1.2305 -0.6368
  102OSM   C14S10303   1.478   6.977   9.154  0.2974 -0.8213  0.3904
  102OSM   H14S10304   1.388   7.041   9.144  1.4423  0.6498 -0.7066
  102OSM   H14T10305   1.480   6.901   9.072  1.8864  0.8216 -1.1353
  102OSM   C15S10306   1.590   7.077   9.138 -0.2884  0.2292  0.7271
  102OSM   H15S10307   1.684   7.019   9.125 -0.4383  0.5157 -1.9576
  102OSM   H15T10308   1.592   7.142   9.228 -1.6535  0.3394  0.6869
  102OSM   C16S10309   1.577   7.170   9.015 -0.4549  0.0983  0.6016
  102OSM   H16S10310   1.679   7.207   8.992 -0.3434 -0.3280  0.4182
  102OSM   H16T10311   1.518   7.262   9.038 -1.3306 -0.1117 -0.8008
  102OSM   C17S10312   1.517   7.121   8.884  0.4450 -0.0699  0.1903
  102OSM   H17S10313   1.411   7.091   8.899  1.3207 -1.8686  3.3101
  102OSM   H17T10314   1.560   7.021   8.859 -0.7760 -0.6964  0.5643
  102OSM   C18S10315   1.529   7.225   8.768 -0.3978 -0.1241 -0.1629
  102OSM   H18S10316   1.459   7.308   8.794  1.0232  1.4129 -1.1608
  102OSM   H18T10317   1.504   7.189   8.666  0.6494 -1.8806  0.1844
  102OSM   H18U10318   1.630   7.271   8.773 -0.7692  0.4985  2.9443
  102OSM    C1F10319   1.516   6.554  10.366 -0.0237  0.0253  0.0649
  102OSM     OF10320   1.469   6.441  10.349  1.1066 -0.0926  0.4053
  102OSM    C2F10321   1.664   6.584  10.349 -0.5781  0.1270 -0.1198
  102OSM    H2F10322   1.731   6.586  10.437 -3.6477 -2.8222  2.3887
  102OSM    H2G10323   1.658   6.678  10.290 -1.2303 -0.2578 -0.6638
  102OSM    C3F10324   1.739   6.487  10.249 -0.6205 -0.3679  0.3408
  102OSM    H3F10325   1.738   6.386  10.296  0.7287 -1.3134 -1.6057
  102OSM    H3G10326   1.845   6.517  10.234  0.3255 -3.8778 -0.4001
  102OSM    C4F10327   1.674   6.483  10.107  0.8535 -0.5241  0.0491
  102OSM    H4F10328   1.651   6.590  10.086  0.6006 -0.6717 -0.4310
  102OSM    H4G10329   1.579   6.425  10.105  0.5326 -0.1870  2.8657
  102OSM    C5F10330   1.767   6.441   9.990  0.0181  0.2988 -0.1195
  102OSM    H5F10331   1.783   6.331   9.995 -1.8003  0.0261  0.0163
  102OSM    H5G10332   1.862   6.491  10.020 -0.4806  1.4433 -0.4293
  102OSM    C6F10333   1.705   6.489   9.860  0.0026  0.2658  1.0074
  102OSM    H6F10334   1.671   6.594   9.872 -0.6526  0.8882 -4.6607
  102OSM    H6G10335   1.616   6.427   9.835  0.7726 -0.0275 -1.1686
  102OSM    C7F10336   1.797   6.464   9.737 -0.1099  0.7487 -0.0749
  102OSM    H7F10337   1.848   6.365   9.745  1.7678  1.6752 -0.1519
  102OSM    H7G10338   1.875   6.543   9.731  0.4508  0.1958 -0.1845
  102OSM    C8F10339   1.714   6.459   9.608  0.3134  0.5794  0.0649
  102OSM    H8F10340   1.662   6.556   9.594  0.6609  0.7275 -0.2020
  102OSM    H8G10341   1.621   6.398   9.622 -0.6062  2.0865  0.5984
  102OSM    C9F10342   1.777   6.421   9.480  0.2703  0.1567 -0.2072
  102OSM    H9F10343   1.874   6.371   9.491  0.8205  1.2653  0.0699
  102OSM   C10F10344   1.739   6.438   9.351 -0.3329 -0.1485 -0.6162
  102OSM   H10F10345   1.820   6.407   9.282  1.9238  2.1326  0.9227
  102OSM   C11F10346   1.626   6.501   9.273  0.2634  1.0377 -0.0760
  102OSM   H11F10347   1.676   6.584   9.217 -1.3301  1.7064 -0.5211
  102OSM   H11G10348   1.552   6.528   9.351  0.7398 -0.3216  0.8733
  102OSM   C12F10349   1.563   6.407   9.166  0.3662  0.1951  0.3396
  102OSM   H12F10350   1.498   6.339   9.226 -0.7058 -1.3262 -2.4693
  102OSM   H12G10351   1.639   6.348   9.111 -2.3356 -3.4146  0.3042
  102OSM   C13F10352   1.482   6.490   9.063  0.0396  0.2508 -0.7268
  102OSM   H13F10353   1.473   6.432   8.969  3.3445  0.2790 -1.1228
  102OSM   H13G10354   1.528   6.585   9.027 -1.4772  1.6193  0.8770
  102OSM   C14F10355   1.332   6.528   9.110  0.5811 -0.6330 -0.4974
  102OSM   H14F10356   1.336   6.593   9.200 -0.9087  0.9084 -1.5203
  102OSM   H14G10357   1.278   6.435   9.140  1.1892 -1.9264 -3.2167
  102OSM   C15F10358   1.237   6.597   9.008  0.0686  0.3168 -0.5890
  102OSM   H15F10359   1.300   6.668   8.951  0.4687  0.6364  0.2462
  102OSM   H15G10360   1.155   6.653   9.058  1.7720  3.0787 -0.8061
  102OSM   C16F10361   1.182   6.490   8.909  0.5509 -0.3911 -0.0482
  102OSM   H16F10362   1.135   6.408   8.967  1.8345 -1.3363 -0.3496
  102OSM   H16G10363   1.274   6.472   8.850  0.2926 -1.3354 -0.1685
  102OSM   C17F10364   1.076   6.550   8.811 -0.3385  0.0864  0.2225
  102OSM   H17F10365   1.129   6.625   8.748  0.4722 -3.0157 -3.0149
  102OSM   H17G10366   0.987   6.602   8.851 -0.3495 -0.8228  1.4059
  102OSM   C18F10367   1.021   6.438   8.719  0.0700 -0.4087 -0.1985
  102OSM   H18F10368   0.950   6.482   8.646 -0.4500  0.0089  0.5563
  102OSM   H18G10369   0.976   6.363   8.787 -2.8862  1.2714 -0.2309
  102OSM   H18H10370   1.098   6.399   8.649 -2.3185 -0.3219 -2.9088
  103OSM      N10371   0.833   3.176  11.001 -0.4627  0.5838 -0.6879
  103OSM    C1510372   0.868   3.221  11.140 -0.0709  0.0687 -0.0538
  103OSM   H15A10373   0.894   3.326  11.133 -1.0473  0.4614  1.8047
  103OSM   H15B10374   0.949   3.165  11.185  0.3173 -0.8430 -1.8694
  103OSM   H15C10375   0.789   3.210  11.214  0.8401 -1.5081  0.7007
  103OSM    C1410376   0.689   3.201  10.981 -0.2471 -0.0496 -0.2475
  103OSM   H14A10377   0.632   3.152  11.058 -1.3524  0.0601 -0.9867
  103OSM   H14B10378   0.654   3.161  10.887  1.1947 -3.3707  0.5450
  103OSM   H14C10379   0.667   3.306  10.983  1.4349  0.2965  0.8617
  103OSM    C1310380   0.912   3.259  10.904 -1.1047 -0.5729  0.2675
  103OSM   H13A10381   0.910   3.365  10.922  0.4346 -0.3643 -0.6384
  103OSM   H13B10382   0.874   3.249  10.803 -0.2917  1.0694 -0.2147
  103OSM   H13C10383   1.017   3.231  10.901 -1.3837 -1.7662  1.1851
  103OSM    C1210384   0.854   3.023  10.975  0.3984  0.3341  0.3049
  103OSM   H12A10385   0.795   2.970  11.048 -0.6742  1.6116  0.3733
  103OSM   H12B10386   0.957   2.999  10.998  1.1160  2.4720 -0.5880
  103OSM    C1110387   0.833   2.974  10.833 -0.5268 -0.5794 -0.0411
  103OSM   H11A10388   0.894   2.882  10.823  1.3008  0.5282  0.7262
  103OSM   H11B10389   0.870   3.049  10.760 -1.3020 -0.2356 -0.0855
  103OSM      P10390   0.631   2.809  10.830  0.1774 -0.2511 -0.1823
  103OSM    O1310391   0.680   2.723  10.723 -0.0562  0.2989 -0.6451
  103OSM    O1410392   0.656   2.768  10.968  0.0180 -0.3855  0.4889
  103OSM    O1110393   0.480   2.838  10.806 -0.5295 -0.8549  0.1089
  103OSM    O1210394   0.696   2.953  10.803 -0.1468 -0.5870 -0.8695
  103OSM    C1S10395   0.429   2.924  10.705 -0.1891  0.5163 -0.0933
  103OSM    H1S10396   0.491   2.935  10.614 -1.3776  0.8531 -0.8705
  103OSM    H1T10397   0.409   3.023  10.752 -1.6851 -0.3225  1.0848
  103OSM     NF10398   0.242   2.985  10.552 -0.3783  0.8121 -0.0721
  103OSM    HNF10399   0.199   3.070  10.580 -1.6952 -0.5410  2.2299
  103OSM    C2S10400   0.283   2.891  10.657 -0.5798 -0.0704 -0.1639
  103OSM    H2S10401   0.289   2.789  10.613 -2.9496  0.3020 -1.4155
  103OSM    C3S10402   0.185   2.886  10.772  0.2383 -0.3034  0.6617
  103OSM    H3S10403   0.172   2.990  10.809  0.2320  0.2918 -0.9976
  103OSM     O310404   0.237   2.827  10.888  0.1954 -0.7564 -0.1872
  103OSM    HO310405   0.328   2.814  10.859  0.5128  2.1583 -0.7064
  103OSM    C4S10406   0.059   2.824  10.726 -0.1597  0.9373 -0.3230
  103OSM    H4S10407   0.059   2.715  10.713  2.6812  0.9844 -1.0139
  103OSM    C5S10408  -0.054   2.898  10.709 -0.3098 -0.2497 -0.6109
  103OSM    H5S10409  -0.044   3.004  10.736  3.3426 -1.3931  3.0981
  103OSM    C6S10410  -0.192   2.845  10.666  0.3452  0.9948  0.7454
  103OSM    H6S10411  -0.271   2.900  10.721  1.1149  0.6072  2.2560
  103OSM    H6T10412  -0.205   2.738  10.690 -1.2662  1.3428  1.4689
  103OSM    C7S10413  -0.223   2.858  10.519  0.0403 -0.2306  0.2673
  103OSM    H7S10414  -0.317   2.800  10.509  0.6357 -1.4836  1.6740
  103OSM    H7T10415  -0.134   2.812  10.472  0.7197 -0.8795  2.1180
  103OSM    C8S10416  -0.239   3.013  10.478 -0.9487  0.4991 -0.5434
  103OSM    H8S10417  -0.143   3.064  10.501 -0.1394 -1.8591  1.5985
  103OSM    H8T10418  -0.307   3.065  10.549  0.3946  1.5799 -0.0212
  103OSM    C9S10419  -0.268   3.045  10.332  0.3641  0.5736 -0.7072
  103OSM    H9S10420  -0.248   3.154  10.320  2.0189  0.4367  0.5921
  103OSM    H9T10421  -0.376   3.031  10.311  0.4064  0.2120 -0.6828
  103OSM   C10S10422  -0.190   2.951  10.237  0.1791  0.2299  0.2313
  103OSM   H10S10423  -0.221   2.845  10.251  2.1852 -0.9130 -3.2640
  103OSM   H10T10424  -0.081   2.958  10.257  0.3166  2.1794 -1.1195
  103OSM   C11S10425  -0.216   2.999  10.093 -0.2531 -0.3993  0.6442
  103OSM   H11S10426  -0.201   3.108  10.081  2.0470 -0.8541 -0.9800
  103OSM   H11T10427  -0.324   2.982  10.071 -0.7054  1.7765  1.0573
  103OSM   C12S10428  -0.142   2.917   9.986  1.3957  0.8797  0.4897
  103OSM   H12S10429  -0.171   2.810   9.979  0.5169  1.2756 -3.3262
  103OSM   H12T10430  -0.034   2.917  10.010  1.3877  0.4706  0.5235
  103OSM   C13S10431  -0.161   2.975   9.842  0.8468 -0.2063  0.2337
  103OSM   H13S10432  -0.117   3.077   9.840 -0.3092  0.3006  0.1577
  103OSM   H13T10433  -0.269   2.983   9.818  0.6118 -0.7864  1.0928
  103OSM   C14S10434  -0.103   2.887   9.731  0.3858  0.0837  0.1991
  103OSM   H14S10435  -0.160   2.791   9.726  2.7238 -1.3088 -0.2583
  103OSM   H14T10436   0.003   2.858   9.744  0.8489  1.1362 -1.1361
  103OSM   C15S10437  -0.109   2.950   9.590  0.2229  0.1140  0.8745
  103OSM   H15S10438  -0.046   3.041   9.603 -1.4227  1.6462 -1.3571
  103OSM   H15T10439  -0.212   2.988   9.568  0.6498  1.5044  1.2319
  103OSM   C16S10440  -0.070   2.858   9.476  0.3365 -0.0004 -0.4002
  103OSM   H16S10441  -0.134   2.766   9.472  2.2022 -1.3705  0.7903
  103OSM   H16T10442   0.033   2.823   9.496 -0.5872 -1.5890  1.8583
  103OSM   C17S10443  -0.071   2.930   9.342 -0.3427 -0.1253  0.0166
  103OSM   H17S10444  -0.161   2.995   9.348 -1.6359 -1.5958 -2.7623
  103OSM   H17T10445  -0.089   2.851   9.267 -0.6969 -1.1800  1.2052
  103OSM   C18S10446   0.046   3.026   9.315  0.1415  0.1187  0.1920
  103OSM   H18S10447   0.028   3.068   9.213  0.3767  1.0031  0.5089
  103OSM   H18T10448   0.149   2.987   9.322  0.6242  1.6133  1.8082
  103OSM   H18U10449   0.048   3.117   9.379  2.4122 -0.3279  0.7759
  103OSM    C1F10450   0.288   2.969  10.431  0.0159  0.3498  0.3174
  103OSM     OF10451   0.366   2.878  10.410  0.7407 -0.6070 -0.3137
  103OSM    C2F10452   0.254   3.072  10.327 -0.1779 -0.7358  0.3613
  103OSM    H2F10453   0.338   3.144  10.341  2.3369 -3.2236 -1.4729
  103OSM    H2G10454   0.157   3.116  10.359  0.8510  1.2090  0.9190
  103OSM    C3F10455   0.257   3.023  10.181 -0.4358  0.0809 -0.0345
  103OSM    H3F10456   0.174   2.951  10.167  2.3024 -3.4831  1.4540
  103OSM    H3G10457   0.353   2.968  10.167 -0.0859  1.2399 -2.4619
  103OSM    C4F10458   0.256   3.141  10.076 -0.2648  1.2687  0.1559
  103OSM    H4F10459   0.327   3.217  10.115 -0.4455 -0.0342  3.0834
  103OSM    H4G10460   0.157   3.191  10.083 -0.6743  0.4405  0.3431
  103OSM    C5F10461   0.280   3.087   9.939 -0.3763  0.6073  0.2637
  103OSM    H5F10462   0.207   3.014   9.896 -1.2057  1.2129  0.6248
  103OSM    H5G10463   0.375   3.030   9.947 -1.4275 -1.3734 -0.8989
  103OSM    C6F10464   0.299   3.201   9.837  0.0250 -0.5679 -0.4589
  103OSM    H6F10465   0.341   3.294   9.881 -0.5276 -0.2479 -0.6001
  103OSM    H6G10466   0.199   3.235   9.804  0.8404  2.5284  0.1084
  103OSM    C7F10467   0.390   3.171   9.710 -0.0973  0.0113  0.9158
  103OSM    H7F10468   0.449   3.078   9.723  1.6529  0.9942  0.0987
  103OSM    H7G10469   0.470   3.248   9.711  0.2416 -0.3339  0.5327
  103OSM    C8F10470   0.315   3.169   9.577 -0.1260 -0.0092 -0.5330
  103OSM    H8F10471   0.233   3.094   9.581  0.6848 -0.9692 -1.4563
  103OSM    H8G10472   0.389   3.131   9.502  0.6328 -0.2977  0.3460
  103OSM    C9F10473   0.258   3.299   9.540  0.0006  0.8959  0.5853
  103OSM    H9F10474   0.155   3.310   9.577 -1.2820 -2.6621 -1.6558
  103OSM   C10F10475   0.302   3.392   9.457  0.4786  0.4191  0.2584
  103OSM   H10F10476   0.242   3.483   9.440 -0.1750 -0.0017  0.3091
  103OSM   C11F10477   0.423   3.377   9.375 -0.7183  0.0724  1.0620
  103OSM   H11F10478   0.459   3.272   9.383  0.5202  0.5198  1.6127
  103OSM   H11G10479   0.509   3.434   9.417 -0.9257 -0.6197  2.4327
  103OSM   C12F10480   0.415   3.425   9.227  0.0850  0.1111  0.3022
  103OSM   H12F10481   0.520   3.438   9.193  0.8370 -0.1336  2.4346
  103OSM   H12G10482   0.368   3.525   9.218 -1.9258 -0.8673 -0.3367
  103OSM   C13F10483   0.340   3.331   9.134  0.0377 -0.7138 -0.5904
  103OSM   H13F10484   0.239   3.313   9.177  1.0446 -1.8556  1.3228
  103OSM   H13G10485   0.386   3.230   9.135  1.1205 -0.2143  0.8106
  103OSM   C14F10486   0.333   3.362   8.981 -0.0999 -0.2683  0.1859
  103OSM   H14F10487   0.262   3.294   8.930  1.0066 -1.9677  0.8721
  103OSM   H14G10488   0.436   3.356   8.940  0.0322 -0.8271  0.5961
  103OSM   C15F10489   0.298   3.509   8.934  0.4012 -0.0868 -0.2392
  103OSM   H15F10490   0.238   3.558   9.014  0.8944  2.9631 -1.6665
  103OSM   H15G10491   0.229   3.497   8.847  0.2901 -1.0473 -0.0207
  103OSM   C16F10492   0.409   3.606   8.901 -0.1630  0.4031  0.0039
  103OSM   H16F10493   0.463   3.619   8.997 -1.2769 -1.1263  0.8543
  103OSM   H16G10494   0.357   3.696   8.860  0.6186  0.6047 -0.5626
  103OSM   C17F10495   0.519   3.564   8.794  0.1402 -0.2763  0.0849
  103OSM   H17F10496   0.456   3.519   8.715 -2.6792 -0.2321  2.2599
  103OSM   H17G10497   0.586   3.483   8.829  0.0565 -1.2693 -1.9927
  103OSM   C18F10498   0.601   3.676   8.735 -0.1089 -0.0413  0.1319
  103OSM   H18F10499   0.535   3.755   8.693  0.5333  0.5627  0.2404
  103OSM   H18G10500   0.681   3.637   8.668 -0.3960 -1.6396  0.7054
  103OSM   H18H10501   0.650   3.727   8.821 -2.4066  0.6000  1.1008
  104OSM      N10502   1.482   1.393  10.925  0.4142 -0.0407 -0.0354
  104OSM    C1510503   1.343   1.356  10.906 -0.1628 -0.0710  0.6197
  104OSM   H15A10504   1.304   1.312  10.997 -1.3372 -1.0455 -0.3307
  104OSM   H15B10505   1.340   1.273  10.837 -1.9391  1.5176 -1.2795
  104OSM   H15C10506   1.270   1.431  10.878  0.6738  0.6422  0.3479
  104OSM    C1410507   1.479   1.485  11.039 -0.0157  0.0712  0.0989
  104OSM   H14A10508   1.396   1.478  11.108 -0.6714 -0.0717 -0.6968
  104OSM   H14B10509   1.475   1.590  11.012  1.2309  0.8508  2.7631
  104OSM   H14C10510   1.577   1.478  11.084  0.3857  0.7398 -0.6604
  104OSM    C1310511   1.570   1.278  10.956  0.0913 -0.4063 -0.5173
  104OSM   H13A10512   1.573   1.204  10.878  1.6390 -1.3467  0.4100
  104OSM   H13B10513   1.545   1.229  11.049 -0.9843 -0.7091 -0.9573
  104OSM   H13C10514   1.675   1.302  10.966 -0.0850  0.3492 -0.4098
  104OSM    C1210515   1.550   1.459  10.798 -0.2105 -0.3792  0.0035
  104OSM   H12A10516   1.578   1.381  10.729 -0.6475  0.3192 -0.9790
  104OSM   H12B10517   1.645   1.503  10.825 -0.5310 -0.4292  1.2171
  104OSM    C1110518   1.468   1.568  10.718  0.0220 -0.0469 -0.5099
  104OSM   H11A10519   1.380   1.516  10.675  0.6515 -0.1156 -1.7314
  104OSM   H11B10520   1.518   1.609  10.628  2.6876 -0.8415  0.5424
  104OSM      P10521   1.523   1.797  10.831 -0.4887  0.1798  0.0699
  104OSM    O1310522   1.453   1.902  10.909  0.5018 -0.1360 -0.6052
  104OSM    O1410523   1.646   1.748  10.887 -0.6077 -0.4564 -0.1136
  104OSM    O1110524   1.550   1.854  10.685 -0.3033 -0.4090 -0.2463
  104OSM    O1210525   1.428   1.670  10.808 -0.7242  0.4493  0.1585
  104OSM    C1S10526   1.455   1.877  10.583  0.7878  0.0811 -0.2487
  104OSM    H1S10527   1.409   1.977  10.596  1.6332  0.3856  0.4663
  104OSM    H1T10528   1.378   1.797  10.576 -1.7898  2.6191 -2.0384
  104OSM     NF10529   1.412   1.942  10.352  0.9763  0.0070  0.1887
  104OSM    HNF10530   1.375   1.874  10.290 -0.7822  1.5794 -0.5406
  104OSM    C2S10531   1.519   1.898  10.444 -0.9331  0.7906 -0.2185
  104OSM    H2S10532   1.589   1.983  10.459 -0.1797  0.4062 -1.4287
  104OSM    C3S10533   1.601   1.778  10.383 -0.4842  0.1353  0.5410
  104OSM    H3S10534   1.534   1.694  10.354  0.4562  0.2249 -2.0071
  104OSM     O310535   1.689   1.716  10.479  0.3097  0.7443  0.4935
  104OSM    HO310536   1.643   1.751  10.556  0.2432  3.0014 -0.5310
  104OSM    C4S10537   1.678   1.820  10.257  0.7069  0.2406 -0.1297
  104OSM    H4S10538   1.753   1.896  10.282 -1.6623  1.8396  2.3072
  104OSM    C5S10539   1.647   1.775  10.137  0.7827 -0.0113 -0.2886
  104OSM    H5S10540   1.552   1.723  10.117  2.1663 -2.9392  0.3875
  104OSM    C6S10541   1.711   1.812  10.012 -0.3219  0.0397  0.3710
  104OSM    H6S10542   1.662   1.754   9.931  2.8658 -0.1185 -1.5377
  104OSM    H6T10543   1.813   1.769  10.003 -0.7970 -1.2200  0.8584
  104OSM    C7S10544   1.720   1.959   9.968 -0.3467  0.8457  0.2261
  104OSM    H7S10545   1.805   2.013  10.015 -0.0783  0.0353  0.6861
  104OSM    H7T10546   1.627   2.013   9.994  0.3752  1.7572  0.9679
  104OSM    C8S10547   1.734   1.986   9.819 -0.3293  0.3893  0.6391
  104OSM    H8S10548   1.743   2.096   9.802 -1.2357  0.2765 -0.6687
  104OSM    H8T10549   1.651   1.942   9.761  0.5731 -0.5891  0.0799
  104OSM    C9S10550   1.862   1.925   9.760  0.4155  0.0357 -0.8983
  104OSM    H9S10551   1.847   1.815   9.759 -1.0207  0.2221 -0.4107
  104OSM    H9T10552   1.943   1.943   9.834 -2.0617 -0.1808  1.9327
  104OSM   C10S10553   1.896   1.975   9.621  0.2372 -0.4393 -0.2965
  104OSM   H10S10554   1.916   2.084   9.627  0.7684 -0.4795 -1.2184
  104OSM   H10T10555   1.810   1.944   9.557 -2.2037  0.4694  2.4830
  104OSM   C11S10556   2.025   1.919   9.557  0.3479  0.0096  0.5906
  104OSM   H11S10557   2.000   1.828   9.499 -0.7607  1.6394 -1.5837
  104OSM   H11T10558   2.102   1.890   9.631  0.3879 -0.6699  0.2845
  104OSM   C12S10559   2.077   2.010   9.451 -0.0310  0.5466 -0.3760
  104OSM   H12S10560   2.165   1.960   9.405 -0.3343 -2.2893  1.9628
  104OSM   H12T10561   2.132   2.100   9.487  1.0259  0.1122 -0.8696
  104OSM   C13S10562   1.979   2.056   9.339  0.0415  0.5699  0.2089
  104OSM   H13S10563   1.895   2.116   9.380 -2.3047 -2.0681 -0.5419
  104OSM   H13T10564   1.930   1.975   9.280  3.5343 -1.7039  0.2697
  104OSM   C14S10565   2.054   2.130   9.233 -0.4025 -0.0716  0.6474
  104OSM   H14S10566   2.131   2.069   9.181 -3.5735 -2.2402 -1.6328
  104OSM   H14T10567   2.098   2.220   9.282  0.5423  1.0571 -2.2106
  104OSM   C15S10568   1.962   2.190   9.126  0.1542 -0.2616  0.4027
  104OSM   H15S10569   1.882   2.247   9.177  0.0024 -0.9350  0.9272
  104OSM   H15T10570   1.919   2.097   9.086  2.3646 -1.2248  0.1873
  104OSM   C16S10571   2.015   2.279   9.013  0.2446 -0.0475 -0.3377
  104OSM   H16S10572   2.096   2.347   9.046 -0.8852  0.8659  0.5932
  104OSM   H16T10573   1.928   2.341   8.980 -0.6830 -1.5320 -0.7376
  104OSM   C17S10574   2.058   2.196   8.898 -1.1296  0.7808  0.5470
  104OSM   H17S10575   1.970   2.136   8.866  0.1034 -1.0464  0.5324
  104OSM   H17T10576   2.132   2.122   8.936 -2.8094 -0.8190  0.7518
  104OSM   C18S10577   2.113   2.273   8.774 -0.2568  1.1345 -0.7236
  104OSM   H18S10578   2.177   2.207   8.712  0.0210  1.4214 -0.7447
  104OSM   H18T10579   2.189   2.344   8.813  2.5817 -1.6264 -1.0007
  104OSM   H18U10580   2.033   2.321   8.712  0.0993 -1.2421 -3.0966
  104OSM    C1F10581   1.345   2.057  10.369  0.0346 -0.2704  0.4648
  104OSM     OF10582   1.375   2.150  10.444  0.4436  0.1018  0.5628
  104OSM    C2F10583   1.225   2.075  10.292 -0.5415  0.0877  0.6273
  104OSM    H2F10584   1.139   2.070  10.363 -0.4205  2.4576  0.9596
  104OSM    H2G10585   1.207   1.989  10.224 -0.3552 -1.2047  2.1817
  104OSM    C3F10586   1.203   2.214  10.211 -0.4020 -0.3424 -0.6718
  104OSM    H3F10587   1.212   2.298  10.283  1.3466 -1.8842  0.9636
  104OSM    H3G10588   1.098   2.229  10.177  0.0370  0.3222 -1.7495
  104OSM    C4F10589   1.296   2.223  10.088  0.2827 -0.5303 -0.1025
  104OSM    H4F10590   1.392   2.178  10.121  0.8329  0.2942 -0.5667
  104OSM    H4G10591   1.312   2.323  10.043 -0.0548 -0.4187  0.0231
  104OSM    C5F10592   1.250   2.133   9.972 -0.4501  0.2941  0.2125
  104OSM    H5F10593   1.163   2.187   9.929  0.1492  1.0325 -0.0608
  104OSM    H5G10594   1.225   2.031  10.011 -1.8531  0.7870  0.6327
  104OSM    C6F10595   1.358   2.128   9.863 -0.3105 -0.3073 -0.4768
  104OSM    H6F10596   1.442   2.066   9.901  0.5975  0.3105 -1.4446
  104OSM    H6G10597   1.407   2.228   9.853 -1.4060  0.1501 -1.3651
  104OSM    C7F10598   1.314   2.081   9.732  0.3966 -0.1818  0.0467
  104OSM    H7F10599   1.228   2.146   9.705 -0.6065 -1.8584 -0.8864
  104OSM    H7G10600   1.280   1.977   9.749  1.5225 -1.0740 -2.8710
  104OSM    C8F10601   1.422   2.095   9.624  0.8608  0.2666 -0.5521
  104OSM    H8F10602   1.512   2.127   9.680  0.6566 -1.1229  0.5769
  104OSM    H8G10603   1.394   2.174   9.550  0.0864  1.2701  0.7888
  104OSM    C9F10604   1.460   1.968   9.546  0.3328  0.1301  0.1915
  104OSM    H9F10605   1.442   1.874   9.599 -1.2796 -0.3044 -1.1211
  104OSM   C10F10606   1.501   1.972   9.416 -0.2050  0.1477 -0.1216
  104OSM   H10F10607   1.532   1.878   9.368 -0.8112 -1.4754  2.5638
  104OSM   C11F10608   1.520   2.090   9.326 -0.4425  0.4248  0.9027
  104OSM   H11F10609   1.628   2.094   9.298 -0.2450  1.1385  1.7407
  104OSM   H11G10610   1.504   2.187   9.377  0.1234 -0.1293  2.1820
  104OSM   C12F10611   1.431   2.092   9.203 -0.2215 -0.3240  0.7394
  104OSM   H12F10612   1.425   2.192   9.156 -3.0694  0.5899  2.9221
  104OSM   H12G10613   1.323   2.085   9.227  0.1575 -0.7617  2.4378
  104OSM   C13F10614   1.474   1.991   9.094  0.6069  0.0744 -0.0468
  104OSM   H13F10615   1.496   1.897   9.149  1.7984  1.7625  2.4969
  104OSM   H13G10616   1.575   2.005   9.051 -0.5407  4.4491 -1.5720
  104OSM   C14F10617   1.370   1.961   8.989 -0.0339 -0.2542  0.3846
  104OSM   H14F10618   1.285   1.907   9.037  0.4267 -0.6369  0.7708
  104OSM   H14G10619   1.406   1.898   8.904 -0.4893  0.6204 -0.4707
  104OSM   C15F10620   1.325   2.094   8.912 -0.0326 -0.2156  0.4134
  104OSM   H15F10621   1.301   2.175   8.984  0.0728  0.6980 -0.5752
  104OSM   H15G10622   1.230   2.063   8.863 -0.4627  0.3226  0.8990
  104OSM   C16F10623   1.431   2.146   8.807  0.5259 -0.0457 -0.3603
  104OSM   H16F10624   1.420   2.088   8.713  0.0673  1.1845 -1.0704
  104OSM   H16G10625   1.531   2.139   8.855 -0.1274  3.9395  1.8256
  104OSM   C17F10626   1.392   2.289   8.768 -0.0222  0.6955 -0.5448
  104OSM   H17F10627   1.282   2.290   8.751  0.3916 -3.7013 -4.4618
  104OSM   H17G10628   1.444   2.330   8.680  5.1854 -0.4974  1.8134
  104OSM   C18F10629   1.429   2.392   8.876  0.1598  0.1591  0.5675
  104OSM   H18F10630   1.392   2.493   8.848 -0.3597 -0.5835 -1.4765
  104OSM   H18G10631   1.539   2.403   8.872  0.1946 -0.3997 -0.1367
  104OSM   H18H10632   1.418   2.380   8.986 -0.3833 -0.1397  0.4842
  105OSM      N10633   4.900   5.163  11.055  0.4486 -0.1884  0.3384
  105OSM    C1510634   5.045   5.161  11.073 -0.0620 -0.1566  0.8750
  105OSM   H15A10635   5.082   5.065  11.037 -1.1262  0.1640 -1.1812
  105OSM   H15B10636   5.067   5.176  11.177 -1.5464  2.7291  0.8101
  105OSM   H15C10637   5.098   5.245  11.031  0.8405 -1.4983 -0.7560
  105OSM    C1410638   4.848   5.036  11.104  0.5925  0.0661 -0.0928
  105OSM   H14A10639   4.882   4.951  11.047  0.4681  1.2947 -2.0450
  105OSM   H14B10640   4.741   5.029  11.113  0.3525  4.1590  1.0234
  105OSM   H14C10641   4.896   5.018  11.199 -0.4976 -0.6742  0.3262
  105OSM    C1310642   4.850   5.263  11.146  0.2268 -0.7314 -0.0191
  105OSM   H13A10643   4.864   5.225  11.246  0.0414  0.7022  0.5585
  105OSM   H13B10644   4.747   5.291  11.130  0.3973 -0.0608  0.0164
  105OSM   H13C10645   4.911   5.352  11.134  1.8329 -1.6778  0.9670
  105OSM    C1210646   4.855   5.189  10.909 -0.3948 -0.3372 -0.2585
  105OSM   H12A10647   4.896   5.285  10.883  1.0679 -0.3717  1.7706
  105OSM   H12B10648   4.747   5.190  10.902 -0.1850 -0.2575 -5.3710
  105OSM    C1110649   4.895   5.086  10.804 -0.1359  0.0486 -0.4452
  105OSM   H11A10650   5.005   5.101  10.796  0.3617 -3.3939 -0.9956
  105OSM   H11B10651   4.855   5.108  10.703 -1.6476  0.1700  0.1773
  105OSM      P10652   4.957   4.832  10.771 -0.0049  0.1555  0.0952
  105OSM    O1310653   5.097   4.827  10.815 -0.3244  0.0159  0.3212
  105OSM    O1410654   4.880   4.706  10.778  0.0415 -0.4823  0.3273
  105OSM    O1110655   4.952   4.861  10.613  1.1129 -0.7263 -0.1618
  105OSM    O1210656   4.865   4.954  10.836 -0.2101 -0.0090  0.1329
  105OSM    C1S10657   4.828   4.876  10.548  0.3519  0.9041  0.4169
  105OSM    H1S10658   4.764   4.962  10.576 -0.2499  0.4177  0.5667
  105OSM    H1T10659   4.758   4.791  10.565  2.5270 -0.8558  0.7553
  105OSM     NF10660   4.718   4.934  10.323 -0.2518  0.1368  0.2803
  105OSM    HNF10661   4.644   4.870  10.303  0.3522  0.2467 -2.6095
  105OSM    C2S10662   4.843   4.889  10.389  0.1047  0.1515  0.2248
  105OSM    H2S10663   4.919   4.969  10.375  1.0788 -0.6677  0.7582
  105OSM    C3S10664   4.895   4.750  10.339  0.2087 -0.1982  0.0432
  105OSM    H3S10665   4.813   4.678  10.360  0.5967 -0.2341  1.4593
  105OSM     O310666   5.013   4.700  10.403 -0.0190 -0.0807  0.2474
  105OSM    HO310667   5.022   4.762  10.476 -4.4009  0.2072  0.7226
  105OSM    C4S10668   4.904   4.766  10.183 -0.0740 -0.6469 -0.3359
  105OSM    H4S10669   4.822   4.719  10.128 -0.2959  0.8035 -1.2743
  105OSM    C5S10670   5.011   4.828  10.124 -0.3351 -0.6928  0.2480
  105OSM    H5S10671   5.095   4.865  10.185 -0.5412  0.5846 -0.2399
  105OSM    C6S10672   5.019   4.849   9.975 -0.0416 -0.4865  0.1665
  105OSM    H6S10673   5.121   4.816   9.947  0.5578  2.2423 -1.1079
  105OSM    H6T10674   5.007   4.954   9.941  1.1961 -0.1187  0.8044
  105OSM    C7S10675   4.914   4.771   9.903 -0.5374 -0.3485  0.4411
  105OSM    H7S10676   4.818   4.827   9.903  0.7137  1.9561 -2.8469
  105OSM    H7T10677   4.904   4.667   9.939  2.4090 -0.2153  1.8682
  105OSM    C8S10678   4.967   4.744   9.757  0.7946 -0.0756 -0.6332
  105OSM    H8S10679   4.920   4.650   9.721 -2.0500  0.9050  0.3724
  105OSM    H8T10680   5.075   4.727   9.737  0.2017 -1.9026 -2.4320
  105OSM    C9S10681   4.928   4.858   9.656 -0.4168 -0.4855 -0.3757
  105OSM    H9S10682   4.956   4.958   9.694 -0.6503 -0.6903  0.3452
  105OSM    H9T10683   4.819   4.851   9.634 -0.2893 -0.1863 -1.1235
  105OSM   C10S10684   5.001   4.838   9.523 -0.3357 -0.3292  0.1497
  105OSM   H10S10685   5.002   4.731   9.493 -2.6818  0.1237 -1.7212
  105OSM   H10T10686   5.098   4.889   9.536 -1.6719  2.2618  0.1452
  105OSM   C11S10687   4.922   4.901   9.407 -0.1280 -0.0198  0.2114
  105OSM   H11S10688   4.893   5.003   9.440  1.8495  0.0910  1.7505
  105OSM   H11T10689   4.829   4.842   9.411 -1.2226  1.7668  2.4025
  105OSM   C12S10690   4.990   4.909   9.268 -0.4248  0.2633  0.5983
  105OSM   H12S10691   5.050   4.821   9.236  0.0080  0.7934 -0.0626
  105OSM   H12T10692   5.063   4.993   9.274  0.0946 -0.1102 -0.3025
  105OSM   C13S10693   4.873   4.932   9.172 -0.3234 -0.8873  0.1841
  105OSM   H13S10694   4.800   5.010   9.202 -0.4643 -1.4811  1.4217
  105OSM   H13T10695   4.815   4.837   9.172  0.0993 -1.1456 -0.3466
  105OSM   C14S10696   4.925   4.959   9.031 -0.4259  0.0081 -0.0101
  105OSM   H14S10697   4.987   4.873   9.000 -2.2649 -0.7068 -1.7975
  105OSM   H14T10698   4.984   5.053   9.025  2.6392 -2.0001 -3.1144
  105OSM   C15S10699   4.810   4.970   8.929  1.1117 -0.2371  0.0027
  105OSM   H15S10700   4.764   5.071   8.935 -1.7107 -1.4810  0.0279
  105OSM   H15T10701   4.732   4.896   8.958  1.3211 -0.2860  0.4455
  105OSM   C16S10702   4.843   4.941   8.781 -0.1841 -0.2746 -0.1803
  105OSM   H16S10703   4.886   4.839   8.777  0.7241  0.0451  1.0692
  105OSM   H16T10704   4.916   5.019   8.751  1.0737 -1.0568  0.7767
  105OSM   C17S10705   4.720   4.938   8.692  0.6999  0.3288  0.4366
  105OSM   H17S10706   4.664   5.033   8.695 -1.6195 -0.9273 -1.6663
  105OSM   H17T10707   4.656   4.858   8.735 -0.8866  0.6529 -1.2607
  105OSM   C18S10708   4.760   4.913   8.547 -0.3390  0.0328 -0.1177
  105OSM   H18S10709   4.677   4.877   8.482 -1.7549  4.0003 -0.6718
  105OSM   H18T10710   4.841   4.838   8.542 -1.6479 -1.4049 -0.0256
  105OSM   H18U10711   4.804   5.004   8.499 -1.5773  0.3466 -0.6945
  105OSM    C1F10712   4.695   5.062  10.321  0.0485 -0.3271  0.1208
  105OSM     OF10713   4.759   5.147  10.389 -0.1540 -0.5294 -0.4169
  105OSM    C2F10714   4.586   5.119  10.234  0.2718  0.7270 -0.2782
  105OSM    H2F10715   4.529   5.177  10.310 -0.4636 -1.7842  1.1279
  105OSM    H2G10716   4.523   5.034  10.199  0.6871 -0.0732  0.8969
  105OSM    C3F10717   4.643   5.211  10.119 -0.3876  0.7838 -0.0536
  105OSM    H3F10718   4.721   5.281  10.158 -0.2410 -0.0780  1.2272
  105OSM    H3G10719   4.556   5.259  10.070 -0.9950 -1.3620 -1.1142
  105OSM    C4F10720   4.715   5.120  10.020 -0.4725  0.1881  1.0953
  105OSM    H4F10721   4.656   5.026  10.013  2.4242 -1.6471  0.4126
  105OSM    H4G10722   4.815   5.087  10.055 -0.0261 -1.9154 -1.9926
  105OSM    C5F10723   4.740   5.180   9.875  0.3438 -0.8937  0.0226
  105OSM    H5F10724   4.789   5.102   9.812  0.6199 -0.1122 -0.7514
  105OSM    H5G10725   4.804   5.270   9.884  0.0896 -0.5863 -1.1409
  105OSM    C6F10726   4.621   5.213   9.788 -0.5636 -0.5639  0.6098
  105OSM    H6F10727   4.586   5.311   9.829  1.1316  0.3234 -0.0106
  105OSM    H6G10728   4.543   5.135   9.802 -0.7136 -0.4542  0.3988
  105OSM    C7F10729   4.649   5.247   9.644 -0.4402 -0.1403  0.5480
  105OSM    H7F10730   4.713   5.164   9.608  0.4230  0.7073  0.1182
  105OSM    H7G10731   4.707   5.341   9.640 -1.1669  0.4207  2.5233
  105OSM    C8F10732   4.521   5.254   9.569  0.5218 -0.4633 -0.6872
  105OSM    H8F10733   4.453   5.308   9.638  0.5170 -0.2343 -0.8697
  105OSM    H8G10734   4.485   5.149   9.562  0.7032 -0.4877 -1.3451
  105OSM    C9F10735   4.529   5.334   9.442  0.5410 -0.1651  0.5609
  105OSM    H9F10736   4.516   5.443   9.448  1.0753 -0.0815  0.1932
  105OSM   C10F10737   4.521   5.275   9.320  0.0203 -0.2475  0.1215
  105OSM   H10F10738   4.524   5.337   9.230 -1.6752  2.3275  1.7835
  105OSM   C11F10739   4.505   5.128   9.294 -0.2418  0.4076  0.0047
  105OSM   H11F10740   4.400   5.096   9.311 -0.5778  1.5356  0.0760
  105OSM   H11G10741   4.564   5.069   9.368  0.3844 -1.1258 -1.6855
  105OSM   C12F10742   4.529   5.105   9.142  0.1566  0.3780 -0.3753
  105OSM   H12F10743   4.533   4.994   9.131 -2.3160  0.2647 -0.5837
  105OSM   H12G10744   4.631   5.147   9.128  1.1105 -2.1529 -1.3069
  105OSM   C13F10745   4.418   5.157   9.055  0.2736 -0.4656  0.2219
  105OSM   H13F10746   4.404   5.266   9.073  2.9450 -0.1063  0.4277
  105OSM   H13G10747   4.328   5.100   9.084  0.2413 -1.1338 -1.1705
  105OSM   C14F10748   4.457   5.140   8.910  0.7802 -0.5530  0.0060
  105OSM   H14F10749   4.359   5.138   8.858  0.5220 -3.7514  0.5185
  105OSM   H14G10750   4.494   5.036   8.893 -0.2429 -0.9899  0.3991
  105OSM   C15F10751   4.553   5.248   8.853 -0.2180  0.0822  0.0598
  105OSM   H15F10752   4.588   5.228   8.749  1.1824  1.3121  0.2899
  105OSM   H15G10753   4.643   5.269   8.914  0.1794  1.1239 -0.8552
  105OSM   C16F10754   4.490   5.390   8.844 -0.6063  0.1159  0.1627
  105OSM   H16F10755   4.431   5.411   8.936 -1.0601  1.5795 -0.4571
  105OSM   H16G10756   4.423   5.409   8.758  1.4719 -0.1631 -1.5611
  105OSM   C17F10757   4.605   5.494   8.861  0.3376  0.2422  0.3573
  105OSM   H17F10758   4.686   5.464   8.791  0.9928 -1.4500  1.8315
  105OSM   H17G10759   4.633   5.497   8.968  0.4692  1.2619  0.3036
  105OSM   C18F10760   4.552   5.631   8.816 -0.6190  0.5937 -0.6965
  105OSM   H18F10761   4.463   5.665   8.873  0.3679 -2.3608  2.8088
  105OSM   H18G10762   4.523   5.624   8.709 -0.7535 -1.1262 -0.5582
  105OSM   H18H10763   4.635   5.704   8.806  1.0396 -1.1233  0.2852
  106OSM      N10764   3.077   4.365  10.925  0.5991  0.0185  0.1804
  106OSM    C1510765   2.992   4.283  10.844 -0.0285 -0.2552 -0.3943
  106OSM   H15A10766   2.915   4.342  10.796 -0.6524  0.8669  1.9187
  106OSM   H15B10767   2.949   4.202  10.901  1.1475 -0.6484 -0.0592
  106OSM   H15C10768   3.055   4.227  10.776 -0.5175  1.8031 -2.6486
  106OSM    C1410769   3.003   4.440  11.025 -0.2770  0.0201  0.5565
  106OSM   H14A10770   3.066   4.490  11.097 -0.9346 -1.5525  2.2850
  106OSM   H14B10771   2.936   4.378  11.083  0.1289 -0.2712  0.7138
  106OSM   H14C10772   2.938   4.514  10.980 -1.0202 -0.9737 -0.0280
  106OSM    C1310773   3.181   4.267  10.983 -0.3605 -0.2521 -0.1666
  106OSM   H13A10774   3.139   4.193  11.049  1.5759 -1.0762  0.1807
  106OSM   H13B10775   3.250   4.320  11.046  1.0349  0.1664 -2.0202
  106OSM   H13C10776   3.229   4.220  10.898 -0.0731 -1.6342  0.7442
  106OSM    C1210777   3.154   4.459  10.826 -0.6093  0.4018  0.3513
  106OSM   H12A10778   3.225   4.522  10.878 -0.1048  1.0710 -1.1293
  106OSM   H12B10779   3.083   4.524  10.777  0.2272  0.5474 -0.6701
  106OSM    C1110780   3.242   4.394  10.717  0.7395  0.0700 -0.1453
  106OSM   H11A10781   3.271   4.480  10.653  1.0005  0.3020  0.2782
  106OSM   H11B10782   3.172   4.329  10.661 -0.9677  1.1571  0.7132
  106OSM      P10783   3.485   4.422  10.804  0.0116  0.2313 -0.0833
  106OSM    O1310784   3.436   4.529  10.893  0.3177 -0.0205  0.1673
  106OSM    O1410785   3.600   4.332  10.836  0.4846  0.4091  0.2922
  106OSM    O1110786   3.513   4.491  10.666  0.4037 -0.1448 -0.1073
  106OSM    O1210787   3.361   4.336  10.769  0.8374 -0.8418 -0.3405
  106OSM    C1S10788   3.551   4.413  10.552  0.1144 -0.8837  0.0131
  106OSM    H1S10789   3.483   4.325  10.546 -0.9816 -0.0243 -0.3048
  106OSM    H1T10790   3.656   4.378  10.570  2.1748  4.4478 -0.9253
  106OSM     NF10791   3.632   4.421  10.323  0.1410 -0.0822  0.0204
  106OSM    HNF10792   3.732   4.427  10.325  0.2223 -1.3823  0.9406
  106OSM    C2S10793   3.554   4.496  10.423 -0.0714 -0.3046  0.0861
  106OSM    H2S10794   3.454   4.511  10.377  0.2715  0.3263 -0.4757
  106OSM    C3S10795   3.606   4.638  10.447 -0.3392 -0.1987 -0.4405
  106OSM    H3S10796   3.698   4.641  10.510  0.5667 -1.3421 -1.7047
  106OSM     O310797   3.512   4.713  10.524  0.3934  0.2037 -0.4005
  106OSM    HO310798   3.489   4.644  10.586  0.1708 -1.0108 -1.8031
  106OSM    C4S10799   3.640   4.720  10.324 -0.1436  0.2176 -0.1325
  106OSM    H4S10800   3.561   4.782  10.278 -0.9040 -0.0487  0.8211
  106OSM    C5S10801   3.765   4.733  10.274 -0.4645 -0.1307  0.6046
  106OSM    H5S10802   3.850   4.684  10.325  0.2362  0.5322  0.0830
  106OSM    C6S10803   3.809   4.815  10.155 -0.6962 -0.0454  0.2908
  106OSM    H6S10804   3.916   4.845  10.166 -0.8356 -0.7250  3.9388
  106OSM    H6T10805   3.755   4.911  10.167  1.0551  1.5464 -3.4269
  106OSM    C7S10806   3.772   4.750  10.015  0.0900  0.3914 -0.4449
  106OSM    H7S10807   3.662   4.734  10.008  0.3256 -0.3844 -2.6727
  106OSM    H7T10808   3.828   4.654  10.009  0.2124  0.5755 -2.5586
  106OSM    C8S10809   3.829   4.832   9.906  0.0514  0.4395 -0.0783
  106OSM    H8S10810   3.938   4.839   9.927  0.4353 -2.5713 -0.7999
  106OSM    H8T10811   3.783   4.933   9.915 -2.0157 -0.6376  2.1193
  106OSM    C9S10812   3.813   4.767   9.765  0.1244  0.2661 -0.2013
  106OSM    H9S10813   3.717   4.713   9.760  0.9789 -1.2806 -0.2397
  106OSM    H9T10814   3.886   4.684   9.770 -1.6058 -1.2182  0.7505
  106OSM   C10S10815   3.852   4.860   9.651 -0.6010 -0.6811  0.3168
  106OSM   H10S10816   3.946   4.912   9.679  0.3714 -1.4932 -1.3255
  106OSM   H10T10817   3.770   4.934   9.658 -0.7224 -0.6336 -1.2882
  106OSM   C11S10818   3.864   4.794   9.516 -0.4068 -0.1344 -0.1866
  106OSM   H11S10819   3.932   4.707   9.527  0.7310  0.8395  0.5544
  106OSM   H11T10820   3.917   4.860   9.445  1.7666 -2.7400 -1.0703
  106OSM   C12S10821   3.729   4.725   9.465 -0.3677 -0.7147 -0.2493
  106OSM   H12S10822   3.652   4.805   9.472 -0.8385 -0.9404 -2.2497
  106OSM   H12T10823   3.700   4.640   9.530 -2.9020 -0.3542 -0.8187
  106OSM   C13S10824   3.745   4.685   9.318  0.5258 -0.5406  0.1898
  106OSM   H13S10825   3.812   4.597   9.325  1.6723  0.3906  1.1506
  106OSM   H13T10826   3.799   4.764   9.262 -1.0652  0.7897  0.4900
  106OSM   C14S10827   3.613   4.654   9.254  0.3452  0.4105 -0.1565
  106OSM   H14S10828   3.525   4.716   9.283 -0.9615 -2.6058  2.5646
  106OSM   H14T10829   3.575   4.559   9.296  1.1878  0.2253  0.1758
  106OSM   C15S10830   3.628   4.650   9.102  0.5175  0.3693  0.5894
  106OSM   H15S10831   3.719   4.588   9.089  0.0460 -0.5992  1.8522
  106OSM   H15T10832   3.656   4.747   9.056 -1.9751  1.1538  0.6389
  106OSM   C16S10833   3.521   4.575   9.024  0.0123 -0.4669  0.6026
  106OSM   H16S10834   3.524   4.474   9.070 -2.7405 -0.4897  0.8273
  106OSM   H16T10835   3.531   4.584   8.913  3.0423  3.1867  1.0622
  106OSM   C17S10836   3.382   4.618   9.058 -0.2090  0.1979  1.1117
  106OSM   H17S10837   3.375   4.729   9.055 -3.3450  0.0350  0.8409
  106OSM   H17T10838   3.349   4.606   9.164 -1.8705 -0.7529  0.5099
  106OSM   C18S10839   3.271   4.543   8.970 -0.0096 -0.4435  0.4517
  106OSM   H18S10840   3.280   4.582   8.866 -1.2557 -0.0104  0.5049
  106OSM   H18T10841   3.171   4.539   9.018 -0.9689 -2.7336 -1.6468
  106OSM   H18U10842   3.303   4.437   8.968  1.2185 -0.0685 -0.1707
  106OSM    C1F10843   3.581   4.316  10.262 -0.4226 -0.0469  0.0855
  106OSM     OF10844   3.471   4.277  10.289  0.5643 -0.6746  0.4474
  106OSM    C2F10845   3.674   4.253  10.155 -0.8241  0.0501  0.4310
  106OSM    H2F10846   3.627   4.160  10.114  1.0392 -0.5407 -0.3933
  106OSM    H2G10847   3.773   4.228  10.198 -0.3697  0.8388 -0.1478
  106OSM    C3F10848   3.698   4.353  10.033 -0.1272  0.5713 -0.3475
  106OSM    H3F10849   3.749   4.442  10.077  0.7810  0.2106 -0.6604
  106OSM    H3G10850   3.604   4.394   9.991 -0.6223 -0.7021 -0.4814
  106OSM    C4F10851   3.794   4.294   9.932 -0.3779  0.8011  0.1422
  106OSM    H4F10852   3.764   4.192   9.900  0.5401  0.4481  0.3800
  106OSM    H4G10853   3.894   4.275   9.977 -0.5704 -0.6416 -0.0137
  106OSM    C5F10854   3.824   4.386   9.814 -0.0066 -0.1562 -0.2579
  106OSM    H5F10855   3.881   4.474   9.851  2.6304 -1.8638 -0.0953
  106OSM    H5G10856   3.721   4.422   9.796 -0.6990 -1.8899  0.1085
  106OSM    C6F10857   3.909   4.317   9.701 -0.2222 -0.6470 -0.2456
  106OSM    H6F10858   3.854   4.224   9.676  1.8529 -1.4800 -1.7591
  106OSM    H6G10859   4.000   4.267   9.738 -0.0140  0.2401  0.4696
  106OSM    C7F10860   3.949   4.419   9.586  1.0121  0.1728  0.1806
  106OSM    H7F10861   3.996   4.508   9.633  1.7763 -1.3656  2.4232
  106OSM    H7G10862   3.857   4.453   9.533  0.1541 -1.9736  0.2367
  106OSM    C8F10863   4.060   4.362   9.489  0.1452  0.2860  0.4750
  106OSM    H8F10864   4.133   4.295   9.539  1.5215  2.1920  1.0861
  106OSM    H8G10865   4.126   4.435   9.438 -1.0723 -1.0705 -3.2563
  106OSM    C9F10866   3.983   4.284   9.385 -0.5218  0.3849  0.2097
  106OSM    H9F10867   3.903   4.222   9.429  1.3629 -0.9648  1.8119
  106OSM   C10F10868   3.999   4.289   9.253  0.2186  0.4890  0.9237
  106OSM   H10F10869   3.924   4.242   9.187  2.9251  0.1770 -2.0213
  106OSM   C11F10870   4.099   4.376   9.173  0.0150 -0.5157  0.2763
  106OSM   H11F10871   4.186   4.398   9.239  1.7934 -3.1623 -1.0728
  106OSM   H11G10872   4.051   4.469   9.136 -1.6431 -1.3721  0.2375
  106OSM   C12F10873   4.161   4.285   9.061 -0.0138 -0.3834 -0.2964
  106OSM   H12F10874   4.233   4.352   9.010 -0.0213 -0.1633 -0.0175
  106OSM   H12G10875   4.084   4.257   8.986  1.2980  0.2915 -1.9189
  106OSM   C13F10876   4.227   4.153   9.101  0.7332  0.5893  0.8881
  106OSM   H13F10877   4.157   4.095   9.164  0.1666  0.6776  0.3397
  106OSM   H13G10878   4.313   4.174   9.169  2.8510  0.1088 -1.5462
  106OSM   C14F10879   4.273   4.079   8.978  0.6881 -0.2082 -0.5767
  106OSM   H14F10880   4.179   4.070   8.920  0.5375  1.5239 -0.6223
  106OSM   H14G10881   4.316   3.979   9.000  0.1952  0.0943  1.8294
  106OSM   C15F10882   4.372   4.156   8.896  0.0427  0.8060 -0.6074
  106OSM   H15F10883   4.454   4.183   8.966  0.3753  1.3854 -1.2110
  106OSM   H15G10884   4.319   4.245   8.855 -1.5773 -0.4503 -1.3004
  106OSM   C16F10885   4.427   4.081   8.778  0.8845 -0.6377  0.3707
  106OSM   H16F10886   4.355   4.063   8.695  1.2629  2.0029 -0.5756
  106OSM   H16G10887   4.452   3.982   8.821 -3.3004 -1.4467  1.2257
  106OSM   C17F10888   4.544   4.153   8.712 -0.2243  0.1646  0.6618
  106OSM   H17F10889   4.623   4.169   8.788  0.2828  1.1640 -0.0675
  106OSM   H17G10890   4.501   4.249   8.675 -1.5206 -0.6593 -0.0156
  106OSM   C18F10891   4.595   4.073   8.591  0.3050 -0.1463 -0.5442
  106OSM   H18F10892   4.649   4.131   8.514 -0.9694  4.0637  1.5941
  106OSM   H18G10893   4.509   4.033   8.532  1.0171 -1.3850 -0.7695
  106OSM   H18H10894   4.647   3.982   8.630 -1.3016 -1.0590 -0.4498
  107OSM      N10895   0.714   2.348  10.848 -0.5507 -0.2914  1.3462
  107OSM    C1510896   0.850   2.348  10.802 -0.2479  0.4807 -0.5647
  107OSM   H15A10897   0.870   2.429  10.734 -2.6411  2.1824  0.6469
  107OSM   H15B10898   0.860   2.255  10.749  3.3444  0.3525  0.2415
  107OSM   H15C10899   0.927   2.340  10.877 -0.4276 -2.2072 -0.6234
  107OSM    C1410900   0.684   2.456  10.947  0.6578 -0.2071 -0.3591
  107OSM   H14A10901   0.587   2.435  10.990  0.1496  1.0887 -0.8245
  107OSM   H14B10902   0.679   2.554  10.901  0.4004  0.6274  1.4142
  107OSM   H14C10903   0.741   2.446  11.038 -1.8697 -0.4278  1.2586
  107OSM    C1310904   0.625   2.379  10.731 -0.0831  0.5631 -0.1570
  107OSM   H13A10905   0.628   2.298  10.660  2.2467  0.4718  0.0130
  107OSM   H13B10906   0.661   2.472  10.691 -0.7163  1.3544  1.0713
  107OSM   H13C10907   0.518   2.387  10.748  0.0318 -1.1424  1.5184
  107OSM    C1210908   0.675   2.214  10.909  0.9400  0.1481 -0.1052
  107OSM   H12A10909   0.744   2.198  10.990  3.2138  2.3983 -1.5214
  107OSM   H12B10910   0.698   2.142  10.832 -3.5134 -1.9728  0.3581
  107OSM    C1110911   0.524   2.192  10.947  0.1689 -0.7358  0.1239
  107OSM   H11A10912   0.507   2.237  11.048 -0.7508 -0.4357 -0.1599
  107OSM   H11B10913   0.524   2.082  10.961  1.0315 -1.0367 -2.0614
  107OSM      P10914   0.264   2.221  10.880 -0.1677  0.0656  0.0347
  107OSM    O1310915   0.228   2.083  10.900 -0.5727  0.7953  0.0238
  107OSM    O1410916   0.230   2.315  10.988  0.7759  0.2843 -0.1578
  107OSM    O1110917   0.193   2.277  10.749 -0.3514  0.4213  0.6849
  107OSM    O1210918   0.421   2.236  10.851  0.3146 -0.0863 -0.5843
  107OSM    C1S10919   0.242   2.229  10.621 -0.0458  0.0030  0.0857
  107OSM    H1S10920   0.260   2.120  10.621  1.2720  0.2057 -0.0400
  107OSM    H1T10921   0.340   2.278  10.597 -1.4798  3.2363  0.5912
  107OSM     NF10922   0.191   2.203  10.385 -0.6232  0.0925 -0.5482
  107OSM    HNF10923   0.232   2.277  10.332 -1.8950  0.7034 -0.6995
  107OSM    C2S10924   0.140   2.256  10.509  0.1258  0.1998  0.3904
  107OSM    H2S10925   0.049   2.200  10.540 -1.1638  2.2821  0.4654
  107OSM    C3S10926   0.093   2.406  10.509  0.3823  1.0218  0.8356
  107OSM    H3S10927   0.183   2.462  10.475  2.1510 -1.0379  2.0045
  107OSM     O310928   0.053   2.453  10.641  0.1766 -0.8309  0.4080
  107OSM    HO310929   0.090   2.389  10.702  0.5170 -2.8217 -1.7669
  107OSM    C4S10930  -0.012   2.422  10.411 -0.5522 -0.0535  0.3492
  107OSM    H4S10931  -0.094   2.350  10.420 -1.1876  0.6400  0.0795
  107OSM    C5S10932  -0.028   2.519  10.313 -0.1913  0.4290  0.3057
  107OSM    H5S10933   0.046   2.598  10.295  0.4506 -0.4490 -0.9933
  107OSM    C6S10934  -0.143   2.539  10.217 -0.1878  0.3272 -0.2211
  107OSM    H6S10935  -0.146   2.647  10.190  1.0007  0.7529  1.3240
  107OSM    H6T10936  -0.244   2.511  10.255 -1.2250  1.1381 -2.2848
  107OSM    C7S10937  -0.110   2.459  10.091  0.3488  0.0530 -0.1961
  107OSM    H7S10938  -0.089   2.352  10.110  1.8592  0.5878  1.2310
  107OSM    H7T10939  -0.017   2.499  10.046  1.4265 -2.9679 -0.7670
  107OSM    C8S10940  -0.220   2.440   9.988  0.6799  0.2792  0.1553
  107OSM    H8S10941  -0.271   2.539   9.980 -0.9435 -0.4184  1.5144
  107OSM    H8T10942  -0.272   2.354  10.035  0.6961 -1.3515 -2.6814
  107OSM    C9S10943  -0.151   2.401   9.858 -0.3548  0.2297  0.1268
  107OSM    H9S10944  -0.068   2.332   9.885 -0.2116  0.8350  1.2620
  107OSM    H9T10945  -0.104   2.490   9.811 -0.3950  1.3026  2.0379
  107OSM   C10S10946  -0.244   2.343   9.746 -0.2649 -0.4017 -0.3607
  107OSM   H10S10947  -0.335   2.402   9.724  0.2613 -0.4788 -2.8154
  107OSM   H10T10948  -0.280   2.241   9.774 -0.1540  0.3527  2.6867
  107OSM   C11S10949  -0.170   2.338   9.610  0.0501  0.1639 -0.2367
  107OSM   H11S10950  -0.089   2.263   9.613  1.9621  2.2186  0.9659
  107OSM   H11T10951  -0.132   2.442   9.598 -0.2909  0.6109  2.4110
  107OSM   C12S10952  -0.275   2.316   9.502  0.4609 -0.6486 -0.5527
  107OSM   H12S10953  -0.360   2.388   9.504 -1.1069 -2.3796 -2.5477
  107OSM   H12T10954  -0.323   2.217   9.515  1.5879 -1.5223 -2.7773
  107OSM   C13S10955  -0.211   2.320   9.362  0.2290 -0.8336  0.5091
  107OSM   H13S10956  -0.143   2.236   9.334 -0.1377 -1.3748  1.2409
  107OSM   H13T10957  -0.165   2.419   9.340 -0.7941 -0.5279 -0.2897
  107OSM   C14S10958  -0.314   2.322   9.249  0.6005  0.0421 -0.0786
  107OSM   H14S10959  -0.368   2.418   9.269 -1.9736 -1.2728 -0.5665
  107OSM   H14T10960  -0.387   2.239   9.257  1.5833 -1.1146 -2.5409
  107OSM   C15S10961  -0.257   2.328   9.113  0.5274 -0.7665 -0.8208
  107OSM   H15S10962  -0.198   2.236   9.097 -0.3052 -0.9350 -3.0589
  107OSM   H15T10963  -0.203   2.423   9.091  2.7433 -1.4656  1.3240
  107OSM   C16S10964  -0.370   2.328   9.000  0.2894  0.1567  0.3851
  107OSM   H16S10965  -0.457   2.397   9.004  0.8902  0.9489 -0.1591
  107OSM   H16T10966  -0.427   2.233   8.998  1.0253 -0.3247  1.6675
  107OSM   C17S10967  -0.301   2.339   8.869  0.2932 -0.1323 -0.4436
  107OSM   H17S10968  -0.242   2.247   8.849 -0.5234 -1.5650  3.3479
  107OSM   H17T10969  -0.227   2.422   8.873  1.8471 -1.5307  0.1920
  107OSM   C18S10970  -0.378   2.365   8.742  0.3013 -0.5698  0.3062
  107OSM   H18S10971  -0.458   2.290   8.729  1.5421 -1.6293 -1.3629
  107OSM   H18T10972  -0.314   2.360   8.652  1.4200  0.2810  1.0295
  107OSM   H18U10973  -0.432   2.462   8.747  0.2621 -0.4805 -1.7247
  107OSM    C1F10974   0.220   2.070  10.367 -0.1399  0.4016  0.4628
  107OSM     OF10975   0.169   1.986  10.444 -0.5478  0.0128  0.7251
  107OSM    C2F10976   0.321   2.037  10.258 -0.2872  0.7635  0.2463
  107OSM    H2F10977   0.390   1.957  10.291  0.1723  1.9430  2.2338
  107OSM    H2G10978   0.395   2.116  10.234  0.2025  0.3605  0.4362
  107OSM    C3F10979   0.245   2.006  10.128  0.2144 -0.5473  0.5617
  107OSM    H3F10980   0.321   2.015  10.047  0.2382  1.3965  0.7738
  107OSM    H3G10981   0.165   2.079  10.105 -0.4091 -1.0962  0.9621
  107OSM    C4F10982   0.187   1.871  10.125  0.2567 -0.5151  0.5947
  107OSM    H4F10983   0.090   1.859  10.178 -0.8190  1.0466 -0.9689
  107OSM    H4G10984   0.254   1.798  10.174  1.7633 -1.1033 -2.2694
  107OSM    C5F10985   0.137   1.828   9.983  0.1891 -0.3190  0.7220
  107OSM    H5F10986   0.039   1.776   9.991 -0.2409  0.3715  0.0392
  107OSM    H5G10987   0.216   1.761   9.942  1.1372 -1.0231  3.5420
  107OSM    C6F10988   0.103   1.943   9.891  0.2019 -0.2297  0.3527
  107OSM    H6F10989   0.191   2.011   9.881 -0.2265  0.7274  2.7696
  107OSM    H6G10990   0.020   1.997   9.942 -1.6414 -0.6518 -2.0679
  107OSM    C7F10991   0.071   1.901   9.747 -0.0319 -0.5985  0.7885
  107OSM    H7F10992   0.041   1.995   9.696 -0.3815 -0.7089  0.7899
  107OSM    H7G10993  -0.016   1.832   9.750  0.9182 -1.7764  1.2499
  107OSM    C8F10994   0.195   1.849   9.666 -0.0589 -0.0246  0.0945
  107OSM    H8F10995   0.234   1.763   9.725 -2.9508 -0.9560  0.7564
  107OSM    H8G10996   0.273   1.928   9.668 -0.3190  0.2670 -0.7564
  107OSM    C9F10997   0.147   1.797   9.533 -0.4129 -0.5516 -0.0573
  107OSM    H9F10998   0.116   1.692   9.527 -1.3464 -0.1611 -3.3426
  107OSM   C10F10999   0.145   1.864   9.420  0.4506  0.2070 -0.0199
  107OSM   H10F11000   0.097   1.810   9.336 -0.4241 -1.4701  1.5298
  107OSM   C11F11001   0.174   2.012   9.397 -0.0962  0.1311 -0.1886
  107OSM   H11F11002   0.280   2.013   9.365  0.1385 -2.0711  0.4142
  107OSM   H11G11003   0.188   2.064   9.495 -2.1834  1.6785 -0.6586
  107OSM   C12F11004   0.103   2.086   9.291  0.3918  0.8241  0.1828
  107OSM   H12F11005   0.055   2.179   9.329  0.3694  1.2821 -0.9415
  107OSM   H12G11006   0.024   2.020   9.248  0.7182  1.2852 -1.1790
  107OSM   C13F11007   0.200   2.132   9.183 -0.7110 -0.2592 -0.1503
  107OSM   H13F11008   0.254   2.049   9.133 -1.9112 -0.3780 -1.2519
  107OSM   H13G11009   0.279   2.195   9.230 -0.8894 -0.3230  0.2367
  107OSM   C14F11010   0.135   2.220   9.071  0.0383  0.3502  0.0121
  107OSM   H14F11011   0.210   2.289   9.026 -0.3128  1.5804  1.2854
  107OSM   H14G11012   0.051   2.279   9.113  2.0006  3.1464  0.1341
  107OSM   C15F11013   0.088   2.145   8.948  0.1781  0.2749 -0.2278
  107OSM   H15F11014  -0.009   2.101   8.979 -0.5183  1.4160 -0.7814
  107OSM   H15G11015   0.165   2.066   8.933 -1.6932 -1.5956 -0.2740
  107OSM   C16F11016   0.076   2.236   8.823  1.1196  0.2858 -0.1058
  107OSM   H16F11017   0.173   2.289   8.805  0.4845  1.8020  0.8286
  107OSM   H16G11018   0.010   2.319   8.854  0.6169 -0.6647  1.4171
  107OSM   C17F11019   0.033   2.172   8.686 -0.5202 -0.2123  0.3576
  107OSM   H17F11020  -0.030   2.242   8.628 -3.3881  0.5366  4.1831
  107OSM   H17G11021  -0.046   2.094   8.696 -1.0525 -0.2421 -3.4506
  107OSM   C18F11022   0.149   2.113   8.607 -0.1863 -0.0017 -0.7690
  107OSM   H18F11023   0.108   2.072   8.512 -2.6937 -0.2957  0.4119
  107OSM   H18G11024   0.204   2.036   8.666  0.7727  1.6439  0.5316
  107OSM   H18H11025   0.228   2.189   8.589 -1.8805  1.3489 -2.6739
  108OSM      N11026   4.221   3.683  10.830  1.3173  0.2028 -1.0073
  108OSM    C1511027   4.152   3.707  10.965  0.0457 -0.4993 -0.2610
  108OSM   H15A11028   4.217   3.684  11.048  0.8030  1.5159 -0.2777
  108OSM   H15B11029   4.062   3.648  10.967 -0.0377 -0.4828 -2.3671
  108OSM   H15C11030   4.122   3.810  10.973 -0.0828 -0.3956 -1.8534
  108OSM    C1411031   4.327   3.792  10.809  0.2527  0.0102  0.8113
  108OSM   H14A11032   4.300   3.896  10.822  2.1784  0.6175  0.0908
  108OSM   H14B11033   4.373   3.787  10.712 -1.7003  2.2857 -0.3142
  108OSM   H14C11034   4.398   3.767  10.886 -0.0115  0.5723  1.2451
  108OSM    C1311035   4.287   3.544  10.822 -0.8248 -0.1448 -0.1785
  108OSM   H13A11036   4.348   3.534  10.911 -0.3168  0.5566 -0.4393
  108OSM   H13B11037   4.343   3.527  10.731  0.9662  0.0363  0.8498
  108OSM   H13C11038   4.214   3.466  10.831 -1.2157  0.3273  0.8391
  108OSM    C1211039   4.131   3.701  10.713  0.0340  0.3684  0.1454
  108OSM   H12A11040   4.180   3.655  10.629  0.7557 -1.3927  1.5099
  108OSM   H12B11041   4.110   3.805  10.689  0.8186  0.2716 -0.9988
  108OSM    C1111042   3.991   3.632  10.708 -1.2438 -0.3633 -0.9178
  108OSM   H11A11043   3.999   3.538  10.767  0.6675 -0.8005 -1.8389
  108OSM   H11B11044   3.970   3.590  10.608  1.6839 -0.6243 -1.4516
  108OSM      P11045   3.818   3.819  10.665  0.1495  0.1136 -0.0455
  108OSM    O1311046   3.702   3.883  10.731 -0.3389  0.5705  0.0273
  108OSM    O1411047   3.919   3.907  10.602  0.2499  0.2377 -0.2837
  108OSM    O1111048   3.760   3.730  10.547  0.3142  0.3792 -0.2595
  108OSM    O1211049   3.889   3.716  10.767  0.3155  0.4268 -0.2695
  108OSM    C1S11050   3.666   3.629  10.578 -0.1414 -0.0818  0.1635
  108OSM    H1S11051   3.583   3.676  10.634  0.8938  1.1658  0.6759
  108OSM    H1T11052   3.697   3.553  10.653 -0.1747  0.0836  0.3432
  108OSM     NF11053   3.505   3.475  10.486  0.4182  0.2513  0.5160
  108OSM    HNF11054   3.533   3.389  10.528 -1.4021  0.5646  2.3980
  108OSM    C2S11055   3.618   3.560  10.448  1.1629  0.3151  0.0321
  108OSM    H2S11056   3.583   3.635  10.373 -0.6824 -2.7614 -2.2801
  108OSM    C3S11057   3.737   3.481  10.390  0.0905 -0.1643  0.0934
  108OSM    H3S11058   3.769   3.399  10.458  0.4934 -1.2105 -1.3376
  108OSM     O311059   3.847   3.562  10.360 -0.2146 -0.2378  0.2118
  108OSM    HO311060   3.848   3.635  10.422 -0.0160  0.6534 -0.8321
  108OSM    C4S11061   3.676   3.422  10.270  0.4858  0.9361  0.2227
  108OSM    H4S11062   3.638   3.502  10.205  0.2547  1.6619  1.2437
  108OSM    C5S11063   3.668   3.294  10.242  1.1858 -0.1094  0.0388
  108OSM    H5S11064   3.711   3.217  10.307  0.0013 -1.0044 -0.2262
  108OSM    C6S11065   3.612   3.241  10.114  0.5323 -0.0497  0.4747
  108OSM    H6S11066   3.503   3.223  10.124  0.3497  0.4925 -0.4940
  108OSM    H6T11067   3.660   3.143  10.092 -1.1299 -0.8011  0.1586
  108OSM    C7S11068   3.621   3.325   9.985  0.0215 -0.3586  0.0834
  108OSM    H7S11069   3.730   3.331   9.962 -0.2412 -0.7069 -1.3066
  108OSM    H7T11070   3.573   3.422  10.007 -2.7122 -0.9804 -2.8687
  108OSM    C8S11071   3.566   3.248   9.864  0.0116  0.3283  0.2516
  108OSM    H8S11072   3.456   3.233   9.858  0.0973 -1.0460  1.8429
  108OSM    H8T11073   3.609   3.146   9.857  1.0891  0.6507  1.9609
  108OSM    C9S11074   3.619   3.314   9.733  0.1784  0.3437 -0.1175
  108OSM    H9S11075   3.724   3.343   9.750  0.2234 -0.2646  0.6576
  108OSM    H9T11076   3.564   3.408   9.709  0.6668  0.8733  0.8312
  108OSM   C10S11077   3.611   3.231   9.606  0.0915  0.0760 -0.2974
  108OSM   H10S11078   3.507   3.202   9.580 -0.1607  2.2229 -1.8332
  108OSM   H10T11079   3.674   3.140   9.620 -0.2947  0.1407  2.0710
  108OSM   C11S11080   3.667   3.312   9.489 -0.1822  0.1686 -0.5264
  108OSM   H11S11081   3.754   3.370   9.526  0.4379 -1.6672  0.9568
  108OSM   H11T11082   3.599   3.395   9.458  0.3525  0.7589 -0.1281
  108OSM   C12S11083   3.703   3.229   9.363  0.2627  0.4525  0.4802
  108OSM   H12S11084   3.614   3.180   9.317  0.3348  1.4662 -0.7861
  108OSM   H12T11085   3.768   3.146   9.397 -3.3463 -2.2733  1.0638
  108OSM   C13S11086   3.780   3.309   9.258 -0.6184 -0.1293  0.0336
  108OSM   H13S11087   3.869   3.352   9.309 -1.0778  2.3027 -1.1476
  108OSM   H13T11088   3.730   3.401   9.221 -0.3891 -0.6190 -1.5401
  108OSM   C14S11089   3.811   3.227   9.130  0.2427 -0.2562  0.3418
  108OSM   H14S11090   3.716   3.247   9.074  0.8813  1.9670  0.0084
  108OSM   H14T11091   3.810   3.121   9.162  0.5674 -0.1716  0.6297
  108OSM   C15S11092   3.932   3.279   9.058 -0.0228  0.2675  0.6119
  108OSM   H15S11093   4.010   3.286   9.137  0.4568  0.4466  0.1246
  108OSM   H15T11094   3.906   3.387   9.045 -0.7124  0.3008  2.1313
  108OSM   C16S11095   3.974   3.200   8.931 -0.6564  0.5953  0.2930
  108OSM   H16S11096   3.892   3.182   8.859 -1.3275  2.6037  0.5124
  108OSM   H16T11097   4.017   3.102   8.961 -2.8238 -0.2869  0.6342
  108OSM   C17S11098   4.085   3.282   8.853  0.7638 -0.9950 -1.1428
  108OSM   H17S11099   4.148   3.332   8.930 -1.5475  0.1018  0.0771
  108OSM   H17T11100   4.038   3.363   8.793  1.1114  0.2085  0.1912
  108OSM   C18S11101   4.167   3.197   8.766  0.3156 -0.3759 -0.7652
  108OSM   H18S11102   4.265   3.239   8.734 -1.2581  2.9202 -1.5613
  108OSM   H18T11103   4.105   3.169   8.678 -0.3679  1.4978 -0.9090
  108OSM   H18U11104   4.195   3.105   8.820  0.2403 -0.0352 -0.1372
  108OSM    C1F11105   3.382   3.522  10.498  0.0941  0.6257 -0.1270
  108OSM     OF11106   3.343   3.632  10.453 -0.3189 -0.3802  0.4185
  108OSM    C2F11107   3.286   3.422  10.556 -0.3954 -0.0881 -0.1836
  108OSM    H2F11108   3.278   3.448  10.664 -1.6528 -1.6198  0.1092
  108OSM    H2G11109   3.335   3.324  10.542 -0.7725 -0.1659 -0.9454
  108OSM    C3F11110   3.152   3.425  10.483 -0.4801 -0.2469 -0.1932
  108OSM    H3F11111   3.103   3.525  10.490  0.7523  0.3961 -0.4268
  108OSM    H3G11112   3.092   3.347  10.534 -0.7629  0.1430  0.0744
  108OSM    C4F11113   3.153   3.376  10.340  0.0865 -0.3542  0.2058
  108OSM    H4F11114   3.044   3.357  10.326  0.3379  0.0136 -2.3590
  108OSM    H4G11115   3.210   3.281  10.336  0.8704  0.2060 -2.6109
  108OSM    C5F11116   3.216   3.463  10.232  0.1452  0.4733  0.5069
  108OSM    H5F11117   3.322   3.436  10.248  0.1458  0.2832  0.1941
  108OSM    H5G11118   3.193   3.572  10.233  1.3105  0.7193  0.9797
  108OSM    C6F11119   3.178   3.418  10.090 -0.0652 -0.1512  0.1112
  108OSM    H6F11120   3.070   3.419  10.068  0.0845 -0.1205 -0.6309
  108OSM    H6G11121   3.202   3.309  10.083 -3.5982 -1.4601  5.5817
  108OSM    C7F11122   3.265   3.496   9.986  0.2481 -0.4958  0.7995
  108OSM    H7F11123   3.366   3.468  10.023 -0.0601  1.1411  3.0009
  108OSM    H7G11124   3.252   3.605  10.002  3.7876 -0.0018  0.7504
  108OSM    C8F11125   3.253   3.458   9.839  0.2651 -0.2491 -0.1190
  108OSM    H8F11126   3.287   3.353   9.832  1.9172  0.1936  1.0281
  108OSM    H8G11127   3.327   3.520   9.784  2.4201  0.6492  3.6545
  108OSM    C9F11128   3.112   3.481   9.806  0.5701  0.1017  0.4608
  108OSM    H9F11129   3.034   3.420   9.854 -1.6734 -0.1455 -3.2321
  108OSM   C10F11130   3.065   3.563   9.712 -0.5587 -0.0590 -0.4940
  108OSM   H10F11131   2.958   3.584   9.704 -0.6091  0.0417  0.3574
  108OSM   C11F11132   3.148   3.638   9.613  0.0920 -0.3245  0.8367
  108OSM   H11F11133   3.234   3.700   9.646  0.7939 -1.3985  1.0475
  108OSM   H11G11134   3.079   3.711   9.567  0.5137  0.8627  2.0743
  108OSM   C12F11135   3.192   3.551   9.492 -0.0196  0.7421  0.2008
  108OSM   H12F11136   3.098   3.528   9.437  0.4712 -0.7591 -0.0520
  108OSM   H12G11137   3.252   3.459   9.511  1.4615  1.9238  1.2510
  108OSM   C13F11138   3.289   3.618   9.394 -0.3777 -0.4392  0.3710
  108OSM   H13F11139   3.381   3.635   9.453 -0.7494 -0.4419  0.9560
  108OSM   H13G11140   3.236   3.713   9.372 -2.3727 -0.5123  4.2872
  108OSM   C14F11141   3.324   3.533   9.269 -0.4593  0.2709  0.0544
  108OSM   H14F11142   3.242   3.467   9.233 -0.7293 -0.4599  1.9323
  108OSM   H14G11143   3.410   3.469   9.302 -1.0006 -0.8400 -0.6616
  108OSM   C15F11144   3.384   3.616   9.163 -0.4502 -0.8193 -0.0419
  108OSM   H15F11145   3.459   3.567   9.097  0.0137 -2.5286  1.7173
  108OSM   H15G11146   3.444   3.691   9.220 -0.6597  0.3656 -1.3585
  108OSM   C16F11147   3.281   3.680   9.080  0.0982  0.5558 -0.2598
  108OSM   H16F11148   3.230   3.751   9.149  2.3244  0.9066  1.0549
  108OSM   H16G11149   3.204   3.602   9.063  1.4193 -1.0069  0.8933
  108OSM   C17F11150   3.334   3.753   8.950  0.3352 -0.0798 -0.4386
  108OSM   H17F11151   3.383   3.689   8.875 -2.7149  1.3604 -3.7890
  108OSM   H17G11152   3.401   3.836   8.983  0.4845 -1.1358  2.0225
  108OSM   C18F11153   3.215   3.813   8.875  0.1647  0.0938 -0.2668
  108OSM   H18F11154   3.149   3.741   8.822 -1.2031 -0.4003  2.0607
  108OSM   H18G11155   3.260   3.876   8.796 -1.2403  1.1305 -0.2519
  108OSM   H18H11156   3.158   3.878   8.945  0.0710  1.7990 -1.8925
  109OSM      N11157   2.320   1.719  10.881 -0.3108 -0.5010 -0.7959
  109OSM    C1511158   2.174   1.767  10.873 -0.5818 -0.0721 -0.7862
  109OSM   H15A11159   2.132   1.720  10.786 -1.0757 -2.4090  0.6765
  109OSM   H15B11160   2.155   1.872  10.854  0.7624 -0.0345 -1.9558
  109OSM   H15C11161   2.115   1.733  10.958  0.7725 -0.9940 -0.2045
  109OSM    C1411162   2.371   1.718  10.739  0.2858  0.3802 -0.1578
  109OSM   H14A11163   2.386   1.816  10.697 -0.2501  0.5269 -0.0167
  109OSM   H14B11164   2.301   1.668  10.674 -0.0668  0.8700 -0.1520
  109OSM   H14C11165   2.465   1.665  10.732 -0.0358 -0.4934  1.7333
  109OSM    C1311166   2.399   1.811  10.965 -0.7228  0.3668 -0.3543
  109OSM   H13A11167   2.388   1.913  10.930  0.6706  0.7358  0.2269
  109OSM   H13B11168   2.503   1.784  10.954 -0.9159 -0.4357 -0.1880
  109OSM   H13C11169   2.369   1.808  11.068  0.2145  1.3830 -0.0351
  109OSM    C1211170   2.317   1.582  10.950  0.2498  0.4033  0.1282
  109OSM   H12A11171   2.293   1.597  11.054  0.7527  0.9221  0.1704
  109OSM   H12B11172   2.416   1.538  10.946 -0.2668 -0.6641 -1.1758
  109OSM    C1111173   2.212   1.469  10.922  0.2488 -0.1403  0.1106
  109OSM   H11A11174   2.244   1.380  10.980 -0.4183 -1.1013 -0.9905
  109OSM   H11B11175   2.214   1.457  10.812  3.1534  1.9370 -0.1395
  109OSM      P11176   1.964   1.410  10.952 -0.2221 -0.2244  0.4736
  109OSM    O1311177   2.023   1.275  10.945 -0.4890  0.6319 -0.3922
  109OSM    O1411178   1.874   1.426  11.070  0.1217 -0.4326  0.1853
  109OSM    O1111179   1.878   1.437  10.820 -0.5308  0.4475 -0.0635
  109OSM    O1211180   2.079   1.507  10.960  0.2764 -0.5391  0.1414
  109OSM    C1S11181   1.922   1.534  10.718  0.1957  0.1803 -0.2031
  109OSM    H1S11182   2.021   1.576  10.746  0.2753 -0.5481  0.6234
  109OSM    H1T11183   1.850   1.618  10.728  1.3984  1.2010  0.0166
  109OSM     NF11184   1.950   1.577  10.478  0.2621 -0.0040 -0.2793
  109OSM    HNF11185   1.876   1.637  10.449  0.7862  1.6130  1.6618
  109OSM    C2S11186   1.916   1.474  10.575  0.1189  0.6416 -0.5453
  109OSM    H2S11187   1.990   1.393  10.560  1.5800  1.6610  0.9824
  109OSM    C3S11188   1.787   1.399  10.542  1.2954  0.3491  0.0591
  109OSM    H3S11189   1.695   1.461  10.556  0.9104 -0.1220 -0.3800
  109OSM     O311190   1.762   1.287  10.623  0.1369 -0.5681 -0.8765
  109OSM    HO311191   1.811   1.302  10.704 -1.7210  2.3033 -0.2250
  109OSM    C4S11192   1.794   1.353  10.402 -0.3142 -0.2679  0.5678
  109OSM    H4S11193   1.874   1.283  10.375 -0.2880  0.2199 -0.6186
  109OSM    C5S11194   1.706   1.380  10.305 -0.2882  0.1013 -0.3604
  109OSM    H5S11195   1.616   1.440  10.325 -0.4211 -0.6033  1.2523
  109OSM    C6S11196   1.728   1.333  10.167  0.6833  1.3953 -0.5098
  109OSM    H6S11197   1.664   1.244  10.146  2.8936 -0.2216 -0.4613
  109OSM    H6T11198   1.827   1.286  10.154  1.0038  1.4872  1.4908
  109OSM    C7S11199   1.717   1.449  10.064 -0.2119  0.6603 -0.3192
  109OSM    H7S11200   1.775   1.538  10.097  2.5261 -1.3316  0.4410
  109OSM    H7T11201   1.611   1.482  10.059 -0.3054  0.2742 -0.9886
  109OSM    C8S11202   1.745   1.402   9.918 -0.3439 -0.1974  0.4647
  109OSM    H8S11203   1.701   1.301   9.905 -0.2916  0.0264 -1.5881
  109OSM    H8T11204   1.853   1.380   9.926 -0.5174 -1.6602 -1.1233
  109OSM    C9S11205   1.700   1.500   9.810  0.3118  0.4789 -0.4613
  109OSM    H9S11206   1.758   1.593   9.827  0.5437  0.5983 -1.8547
  109OSM    H9T11207   1.596   1.538   9.820  0.9943  1.9726  1.1673
  109OSM   C10S11208   1.729   1.465   9.662  0.1321  0.0119  0.1522
  109OSM   H10S11209   1.684   1.370   9.626 -0.8716  0.6298 -0.2574
  109OSM   H10T11210   1.838   1.454   9.644 -0.0801 -2.8773  0.3257
  109OSM   C11S11211   1.684   1.575   9.562  0.0501  0.3722  0.0022
  109OSM   H11S11212   1.735   1.671   9.583  0.4716  0.5494 -1.7550
  109OSM   H11T11213   1.578   1.606   9.573  0.2223  0.8728  0.2786
  109OSM   C12S11214   1.710   1.551   9.414 -0.1354  0.2142  0.8209
  109OSM   H12S11215   1.660   1.457   9.381 -0.0781 -0.2867  2.1142
  109OSM   H12T11216   1.821   1.548   9.399 -0.1494  2.1139  0.2505
  109OSM   C13S11217   1.670   1.673   9.336  0.1586  0.1779 -0.2889
  109OSM   H13S11218   1.728   1.762   9.370  0.2499 -0.5722  1.5581
  109OSM   H13T11219   1.560   1.690   9.337  0.1311  0.1168 -1.3742
  109OSM   C14S11220   1.703   1.660   9.182  0.6484  0.6281 -0.3680
  109OSM   H14S11221   1.671   1.754   9.133 -0.1794 -0.5899 -2.2089
  109OSM   H14T11222   1.648   1.570   9.147  0.5181  0.0106  1.3808
  109OSM   C15S11223   1.856   1.648   9.154  0.0723  0.0628 -0.7167
  109OSM   H15S11224   1.908   1.554   9.184  1.0815  1.1306  0.9735
  109OSM   H15T11225   1.913   1.728   9.206 -0.4259 -0.8033  1.1971
  109OSM   C16S11226   1.892   1.656   8.998  0.1718 -0.2547  0.3728
  109OSM   H16S11227   1.836   1.734   8.942 -2.2970  0.0261  3.1444
  109OSM   H16T11228   1.866   1.558   8.952 -0.4826 -0.5346  1.3292
  109OSM   C17S11229   2.037   1.673   8.975 -0.6268  0.0553  0.1875
  109OSM   H17S11230   2.098   1.586   9.008  0.3901 -0.5872 -3.1464
  109OSM   H17T11231   2.072   1.759   9.035  1.4358 -0.4068 -0.3020
  109OSM   C18S11232   2.079   1.690   8.830 -0.3233  0.0988 -0.1063
  109OSM   H18S11233   2.187   1.714   8.830  0.0594 -1.5094 -0.6577
  109OSM   H18T11234   2.029   1.776   8.781 -0.2483  0.2256  0.0404
  109OSM   H18U11235   2.066   1.603   8.761  0.0666  1.2609 -1.6701
  109OSM    C1F11236   2.072   1.627  10.480 -0.5492  0.1841 -0.0029
  109OSM     OF11237   2.160   1.591  10.553  0.3762 -0.0072  0.4032
  109OSM    C2F11238   2.086   1.753  10.391 -0.5283  0.1970 -0.8008
  109OSM    H2F11239   2.079   1.845  10.453  0.3465  0.8035 -1.5849
  109OSM    H2G11240   2.005   1.743  10.316 -0.7973  1.4641 -0.7023
  109OSM    C3F11241   2.224   1.746  10.314  0.2023 -0.3687 -0.1757
  109OSM    H3F11242   2.255   1.648  10.273  0.3597  0.4457 -2.0696
  109OSM    H3G11243   2.299   1.761  10.394  0.0943 -0.1612 -0.1111
  109OSM    C4F11244   2.229   1.849  10.201  0.0188  1.2568  0.1396
  109OSM    H4F11245   2.147   1.829  10.129  1.8354 -0.5219 -1.4790
  109OSM    H4G11246   2.329   1.835  10.155 -0.5473  1.0641 -1.0442
  109OSM    C5F11247   2.224   1.995  10.239  0.8000  0.1108 -0.2966
  109OSM    H5F11248   2.302   2.025  10.313 -0.8341  1.9976  0.7064
  109OSM    H5G11249   2.123   2.018  10.279  0.9327 -0.7234  0.5440
  109OSM    C6F11250   2.236   2.095  10.125  0.4423  0.9904  0.1148
  109OSM    H6F11251   2.306   2.053  10.049  0.5551 -0.9220  1.2383
  109OSM    H6G11252   2.276   2.188  10.169 -0.5390  1.7617 -0.5845
  109OSM    C7F11253   2.103   2.111  10.051  0.2591  0.1448 -0.1118
  109OSM    H7F11254   2.028   2.142  10.127  0.7018 -0.2044  0.4686
  109OSM    H7G11255   2.070   2.019   9.998  0.6266 -0.4224  0.6508
  109OSM    C8F11256   2.114   2.235   9.961 -0.1056  0.0325  0.1032
  109OSM    H8F11257   2.171   2.314  10.015 -0.0354 -0.2215  0.4005
  109OSM    H8G11258   2.014   2.282   9.953  0.2649  1.1573  1.7763
  109OSM    C9F11259   2.152   2.191   9.826  0.1190 -0.2360  0.6726
  109OSM    H9F11260   2.095   2.106   9.784  1.3710  1.3558 -4.5974
  109OSM   C10F11261   2.248   2.241   9.747  0.7383  0.6561  0.0848
  109OSM   H10F11262   2.274   2.194   9.651 -2.6939 -0.3653 -0.4047
  109OSM   C11F11263   2.344   2.351   9.790 -0.2408  0.5210  0.5312
  109OSM   H11F11264   2.449   2.315   9.795  0.3059  1.5974 -2.3588
  109OSM   H11G11265   2.331   2.366   9.900  1.9207  0.5457  0.8102
  109OSM   C12F11266   2.345   2.485   9.715  0.1557 -0.3490  0.0800
  109OSM   H12F11267   2.263   2.550   9.753  0.3899 -1.0589  1.8328
  109OSM   H12G11268   2.332   2.467   9.606 -0.5691  1.7270 -0.2179
  109OSM   C13F11269   2.480   2.560   9.705 -0.0504 -0.1302  0.0775
  109OSM   H13F11270   2.552   2.490   9.657 -0.7469 -0.6934 -0.1586
  109OSM   H13G11271   2.524   2.592   9.802  0.9535 -0.4095 -0.2754
  109OSM   C14F11272   2.476   2.683   9.603 -0.1213 -0.3395 -0.3149
  109OSM   H14F11273   2.450   2.637   9.506 -0.6921 -0.2094 -0.2268
  109OSM   H14G11274   2.580   2.720   9.593 -0.3841  0.2746 -0.7922
  109OSM   C15F11275   2.383   2.793   9.664  0.6837  0.6595  0.5523
  109OSM   H15F11276   2.418   2.827   9.764  0.8152 -0.0624  0.7556
  109OSM   H15G11277   2.289   2.739   9.685  0.8723 -0.3945 -1.2883
  109OSM   C16F11278   2.357   2.898   9.550 -0.2519  0.1663  0.4206
  109OSM   H16F11279   2.320   2.836   9.465 -0.8323  1.5998 -0.3986
  109OSM   H16G11280   2.458   2.934   9.517 -0.1082 -0.9378 -0.3669
  109OSM   C17F11281   2.253   2.999   9.588 -0.3707  0.0821 -0.6147
  109OSM   H17F11282   2.291   3.053   9.677 -0.9509  0.2633 -0.4721
  109OSM   H17G11283   2.165   2.938   9.618  0.0309 -0.7600 -1.1482
  109OSM   C18F11284   2.201   3.098   9.478  0.3227 -0.2617  0.1467
  109OSM   H18F11285   2.288   3.159   9.446  0.0897  1.0926  2.0369
  109OSM   H18G11286   2.116   3.159   9.515  0.5578 -0.2001  0.5810
  109OSM   H18H11287   2.175   3.033   9.391  5.0340 -1.8329 -0.2003
  110OSM      N11288   3.941   0.779  11.296 -0.5638  0.3481  0.4756
  110OSM    C1511289   4.024   0.728  11.413 -0.8028 -0.0835 -0.1705
  110OSM   H15A11290   3.990   0.776  11.503 -0.7194 -2.3244  1.0807
  110OSM   H15B11291   4.129   0.750  11.396 -0.9638  0.6160 -0.3014
  110OSM   H15C11292   4.009   0.622  11.425  0.2248 -0.1968  0.1384
  110OSM    C1411293   3.794   0.756  11.315  0.1179 -0.0543  0.5735
  110OSM   H14A11294   3.734   0.827  11.370  1.5593 -0.4902  2.7926
  110OSM   H14B11295   3.781   0.667  11.375 -0.2010 -1.3752 -1.4099
  110OSM   H14C11296   3.755   0.739  11.216  0.3672 -0.3099  0.5194
  110OSM    C1311297   3.977   0.923  11.280  0.0748 -0.8915 -0.6098
  110OSM   H13A11298   3.966   0.984  11.369  2.1336 -0.8672 -0.3432
  110OSM   H13B11299   3.924   0.965  11.196  0.8477  0.3301 -0.5148
  110OSM   H13C11300   4.078   0.928  11.242 -0.2514  0.2788 -1.3503
  110OSM    C1211301   3.983   0.705  11.171 -0.1024 -0.1710  0.5912
  110OSM   H12A11302   3.994   0.599  11.190 -0.1932  0.1152  2.3078
  110OSM   H12B11303   4.086   0.734  11.157  0.1354 -2.1975 -2.2549
  110OSM    C1111304   3.902   0.742  11.040 -0.1582 -0.2242  0.0815
  110OSM   H11A11305   3.963   0.719  10.950  0.1960 -0.0922  0.2855
  110OSM   H11B11306   3.893   0.853  11.036  0.9892 -0.0970  0.7475
  110OSM      P11307   3.649   0.729  10.969  0.0332  0.0696  0.0585
  110OSM    O1311308   3.533   0.634  11.002  0.3444  0.0954  0.3828
  110OSM    O1411309   3.638   0.864  11.015 -0.3098 -0.2949  0.6456
  110OSM    O1111310   3.675   0.725  10.815  0.1060  0.0404 -0.1537
  110OSM    O1211311   3.780   0.664  11.024 -0.1452 -0.6973  0.4721
  110OSM    C1S11312   3.733   0.615  10.737 -0.0788 -0.1948 -0.3497
  110OSM    H1S11313   3.655   0.538  10.718  0.0284 -0.9083  2.0047
  110OSM    H1T11314   3.817   0.566  10.789  0.9008  0.7346 -1.0225
  110OSM     NF11315   3.852   0.540  10.535  0.0152  0.0586  0.1505
  110OSM    HNF11316   3.950   0.520  10.536  0.4821  2.1378 -1.4121
  110OSM    C2S11317   3.800   0.656  10.606  0.7406  0.7716  0.0072
  110OSM    H2S11318   3.709   0.689  10.551  0.5057 -0.4919 -0.3854
  110OSM    C3S11319   3.901   0.768  10.623  0.0909  0.0742  0.0472
  110OSM    H3S11320   3.990   0.719  10.668 -1.3706 -1.7348  1.0178
  110OSM     O311321   3.870   0.867  10.718 -0.6184 -0.7229  0.3820
  110OSM    HO311322   3.790   0.836  10.761  0.1453 -1.2361  1.4697
  110OSM    C4S11323   3.939   0.831  10.492 -0.3059  0.5448 -0.3680
  110OSM    H4S11324   4.019   0.778  10.439 -1.2179 -0.6477 -0.5806
  110OSM    C5S11325   3.898   0.941  10.431 -0.5665  0.2025 -0.3329
  110OSM    H5S11326   3.821   1.003  10.478  0.7578  0.4972  1.4615
  110OSM    C6S11327   3.940   0.991  10.294  0.8847  0.1024 -0.5182
  110OSM    H6S11328   3.967   1.097  10.313  1.6909 -0.5514  2.2016
  110OSM    H6T11329   3.849   0.998  10.231 -0.7379  1.8220  1.9237
  110OSM    C7S11330   4.036   0.924  10.203 -0.5099 -0.6372 -0.1428
  110OSM    H7S11331   4.030   0.813  10.199  0.9263 -0.6672 -2.5111
  110OSM    H7T11332   4.138   0.950  10.237 -0.3599  1.7606 -2.2165
  110OSM    C8S11333   4.029   0.974  10.054 -0.6734  0.3645  0.5769
  110OSM    H8S11334   4.057   1.081  10.050 -0.7820  0.3838  0.2482
  110OSM    H8T11335   3.930   0.957  10.005  1.1164 -0.3213 -3.0048
  110OSM    C9S11336   4.138   0.916   9.947  0.6502 -0.9081  0.1673
  110OSM    H9S11337   4.246   0.916   9.974  0.9304  0.3394 -0.9250
  110OSM    H9T11338   4.128   0.978   9.856 -2.6601 -0.0969  1.0397
  110OSM   C10S11339   4.103   0.772   9.916 -0.6405  0.3066 -0.5434
  110OSM   H10S11340   4.097   0.729  10.019  0.7883  2.5633  0.5233
  110OSM   H10T11341   4.190   0.724   9.867 -0.8889  0.2067 -0.8942
  110OSM   C11S11342   3.974   0.749   9.834 -0.0647 -0.2172 -0.0228
  110OSM   H11S11343   3.878   0.769   9.885 -0.9267 -2.3530 -0.7419
  110OSM   H11T11344   3.973   0.639   9.816 -0.6663 -0.1224 -0.5916
  110OSM   C12S11345   3.974   0.818   9.692 -0.4534 -0.9670  0.1769
  110OSM   H12S11346   4.063   0.777   9.639 -1.5888 -1.2026 -1.5671
  110OSM   H12T11347   3.989   0.927   9.704  0.5996 -0.9596 -1.0475
  110OSM   C13S11348   3.851   0.787   9.611  0.7777 -0.4487  0.1504
  110OSM   H13S11349   3.832   0.868   9.538 -2.7556 -0.1190  1.3205
  110OSM   H13T11350   3.759   0.783   9.673  2.2779  1.5324  2.5675
  110OSM   C14S11351   3.857   0.646   9.547  0.2546 -0.0228  0.1611
  110OSM   H14S11352   3.832   0.578   9.632 -0.9395 -0.0028 -0.1690
  110OSM   H14T11353   3.963   0.625   9.520  0.8286  0.4226  1.9972
  110OSM   C15S11354   3.753   0.632   9.431  0.4475  0.0685 -0.0113
  110OSM   H15S11355   3.738   0.726   9.373 -1.8724  1.4805  2.7828
  110OSM   H15T11356   3.653   0.622   9.478  1.0545  0.2737  1.3415
  110OSM   C16S11357   3.767   0.505   9.342  0.3653 -0.5624  0.2446
  110OSM   H16S11358   3.667   0.472   9.305  0.2247  1.1285 -0.9617
  110OSM   H16T11359   3.820   0.426   9.399  1.8602  0.6323  0.5137
  110OSM   C17S11360   3.836   0.527   9.208 -0.0225 -0.3330 -0.1588
  110OSM   H17S11361   3.785   0.605   9.148 -1.6518 -0.4505  1.0438
  110OSM   H17T11362   3.832   0.430   9.156 -1.4148 -0.0706 -0.5670
  110OSM   C18S11363   3.982   0.562   9.216 -0.0285 -0.2306  0.5553
  110OSM   H18S11364   4.037   0.478   9.265  0.2422  0.5960  1.6955
  110OSM   H18T11365   3.995   0.650   9.282  1.1682  0.7993 -1.0357
  110OSM   H18U11366   4.031   0.586   9.120  0.8551  0.1913  1.1020
  110OSM    C1F11367   3.802   0.418  10.503 -0.1489  0.1565  0.1369
  110OSM     OF11368   3.688   0.378  10.524 -0.5936  0.6468  0.3650
  110OSM    C2F11369   3.897   0.325  10.438  0.1045  0.0584 -0.4950
  110OSM    H2F11370   3.887   0.225  10.486  0.5981  0.0017 -0.5067
  110OSM    H2G11371   4.001   0.361  10.451  0.3273 -1.1774  1.3427
  110OSM    C3F11372   3.862   0.309  10.288  0.3330 -0.4945 -0.5960
  110OSM    H3F11373   3.753   0.289  10.276  0.1085  0.5198 -0.2802
  110OSM    H3G11374   3.915   0.220  10.248  3.8091  0.4483  1.7317
  110OSM    C4F11375   3.920   0.431  10.210  0.0613 -0.3218 -0.0723
  110OSM    H4F11376   4.029   0.439  10.231  0.3681  0.4815 -1.9318
  110OSM    H4G11377   3.871   0.528  10.231  0.7333  0.2574 -1.1691
  110OSM    C5F11378   3.921   0.408  10.060 -0.3429 -0.2968 -0.5197
  110OSM    H5F11379   3.964   0.309  10.034  2.8591  1.3059 -1.4984
  110OSM    H5G11380   3.986   0.490  10.023  0.3053 -0.4720  0.2182
  110OSM    C6F11381   3.786   0.401   9.992 -0.8514  0.4858 -0.2699
  110OSM    H6F11382   3.735   0.500   9.992  0.6845  1.2899  0.1837
  110OSM    H6G11383   3.724   0.324  10.043 -1.0045  1.9994  1.9016
  110OSM    C7F11384   3.792   0.355   9.848 -0.0546  0.0244  0.2053
  110OSM    H7F11385   3.835   0.254   9.838 -0.8526 -0.1487 -1.7292
  110OSM    H7G11386   3.852   0.428   9.790 -1.2748  1.5402  0.7906
  110OSM    C8F11387   3.659   0.367   9.774 -0.1932 -0.1906 -0.9105
  110OSM    H8F11388   3.614   0.468   9.762  1.3758  0.3610 -2.2434
  110OSM    H8G11389   3.588   0.307   9.836 -0.9507  0.8852 -0.7345
  110OSM    C9F11390   3.651   0.319   9.635  0.5118  0.5019  0.0866
  110OSM    H9F11391   3.742   0.321   9.574 -0.5801 -0.7573 -1.6423
  110OSM   C10F11392   3.532   0.294   9.567 -0.0449 -0.2433  0.0542
  110OSM   H10F11393   3.535   0.253   9.465 -0.6146 -2.1381  0.7732
  110OSM   C11F11394   3.394   0.303   9.624 -0.3061  0.0785 -0.8088
  110OSM   H11F11395   3.398   0.297   9.735  0.1274 -0.2116 -0.8370
  110OSM   H11G11396   3.336   0.214   9.593 -0.5416  0.7307 -2.2900
  110OSM   C12F11397   3.330   0.435   9.574  0.8901 -0.2578  0.0097
  110OSM   H12F11398   3.392   0.527   9.589 -0.9920  0.7447  1.9937
  110OSM   H12G11399   3.235   0.453   9.629  1.9535 -1.0127  2.1574
  110OSM   C13F11400   3.292   0.422   9.422 -0.0195  0.1906 -0.4067
  110OSM   H13F11401   3.241   0.324   9.410  0.0056 -0.1092  1.7355
  110OSM   H13G11402   3.392   0.417   9.373  0.0139 -2.6872 -0.1513
  110OSM   C14F11403   3.204   0.540   9.371 -0.3788  0.2436  0.2821
  110OSM   H14F11404   3.103   0.530   9.415 -1.0487  1.1490 -1.0136
  110OSM   H14G11405   3.182   0.525   9.263 -1.6016  0.6992  0.4583
  110OSM   C15F11406   3.254   0.684   9.404 -0.0548  0.2670 -0.0997
  110OSM   H15F11407   3.271   0.677   9.513 -2.0114 -0.6625  0.1672
  110OSM   H15G11408   3.170   0.755   9.383 -0.9788 -0.3196  1.5051
  110OSM   C16F11409   3.385   0.726   9.327  0.6544 -0.3167 -0.0988
  110OSM   H16F11410   3.381   0.702   9.218 -1.4146 -1.1755  0.1426
  110OSM   H16G11411   3.459   0.654   9.369  1.5259 -0.8668 -2.4755
  110OSM   C17F11412   3.437   0.868   9.341  0.4945 -0.3659 -0.3393
  110OSM   H17F11413   3.532   0.876   9.284  0.5119 -0.6891 -0.3614
  110OSM   H17G11414   3.455   0.890   9.448  1.0265 -4.6346  0.5169
  110OSM   C18F11415   3.342   0.984   9.290 -0.1176  0.0906 -0.6839
  110OSM   H18F11416   3.390   1.084   9.293 -0.0848  0.1387 -2.4796
  110OSM   H18G11417   3.247   0.992   9.347 -0.5332  1.2999 -1.5351
  110OSM   H18H11418   3.304   0.967   9.187 -1.0978 -0.4733 -0.2375
  111OSM      N11419   3.795   4.800  10.815  0.0953  0.8886 -0.2230
  111OSM    C1511420   3.739   4.730  10.929 -0.5567 -0.2743 -0.6239
  111OSM   H15A11421   3.819   4.688  10.989  1.2586  0.3689 -2.5470
  111OSM   H15B11422   3.673   4.647  10.906  0.0150 -0.4805 -1.5683
  111OSM   H15C11423   3.694   4.799  10.999  0.8984  2.0955 -1.9767
  111OSM    C1411424   3.685   4.870  10.740 -0.4740  0.0915  0.2658
  111OSM   H14A11425   3.637   4.943  10.804  2.2633  1.0613  1.2852
  111OSM   H14B11426   3.617   4.798  10.697  1.5657 -0.7701 -1.6604
  111OSM   H14C11427   3.729   4.926  10.659 -1.6347  0.2161 -0.2929
  111OSM    C1311428   3.891   4.895  10.874  0.1037  0.4702  0.0698
  111OSM   H13A11429   3.973   4.848  10.926  0.7749 -0.0089 -1.4170
  111OSM   H13B11430   3.839   4.971  10.930 -1.1683 -0.3093 -0.0291
  111OSM   H13C11431   3.943   4.951  10.798  1.0279 -0.2078  0.1870
  111OSM    C1211432   3.879   4.717  10.724 -0.2713  0.3235  0.2951
  111OSM   H12A11433   3.845   4.614  10.713 -2.0909  1.0899 -1.5741
  111OSM   H12B11434   3.970   4.703  10.780 -0.4754 -1.6217  0.2050
  111OSM    C1111435   3.919   4.786  10.585 -0.3081  0.0397 -0.1491
  111OSM   H11A11436   3.825   4.813  10.532 -0.4906 -0.0768  0.1133
  111OSM   H11B11437   3.960   4.704  10.522 -0.9234  0.7167 -1.4569
  111OSM      P11438   4.151   4.904  10.633 -0.1401 -0.6394 -0.3371
  111OSM    O1311439   4.181   4.991  10.749 -0.0222 -0.1033 -0.0349
  111OSM    O1411440   4.197   4.764  10.645 -0.8625 -0.4435  0.1022
  111OSM    O1111441   4.209   4.973  10.502 -0.1107 -0.5242  0.2119
  111OSM    O1211442   4.003   4.901  10.591 -0.2178 -0.4155  0.1830
  111OSM    C1S11443   4.195   5.109  10.482  0.0269  0.0532 -0.1543
  111OSM    H1S11444   4.273   5.157  10.545 -1.5205  1.7381  0.5403
  111OSM    H1T11445   4.094   5.143  10.514  1.3186  2.0766  2.0432
  111OSM     NF11446   4.205   5.288  10.307  0.4346 -0.1029  0.5822
  111OSM    HNF11447   4.138   5.311  10.237 -0.7074 -2.6240  0.7542
  111OSM    C2S11448   4.227   5.146  10.334 -0.6181 -0.1122 -0.1199
  111OSM    H2S11449   4.334   5.128  10.310 -0.9135 -3.0833  0.5313
  111OSM    C3S11450   4.150   5.046  10.240 -0.6232 -0.2986  0.0650
  111OSM    H3S11451   4.046   5.041  10.278 -0.6328  0.0882  0.0908
  111OSM     O311452   4.210   4.917  10.241 -0.9289  0.1857 -0.4408
  111OSM    HO311453   4.229   4.895  10.332 -0.0315 -1.1751 -0.9275
  111OSM    C4S11454   4.146   5.089  10.097  0.3608 -0.0934  0.2159
  111OSM    H4S11455   4.044   5.098  10.058  1.5143  0.7016 -2.7711
  111OSM    C5S11456   4.264   5.110  10.028  0.9072  0.2253  0.2712
  111OSM    H5S11457   4.363   5.089  10.071  1.0417  1.9196  0.7971
  111OSM    C6S11458   4.262   5.146   9.888 -0.6106  0.1233  0.1092
  111OSM    H6S11459   4.288   5.050   9.838 -0.4641  0.0245  0.3712
  111OSM    H6T11460   4.338   5.225   9.869 -0.5665  0.4084  1.4045
  111OSM    C7S11461   4.127   5.176   9.826  0.2859 -0.6521 -0.1527
  111OSM    H7S11462   4.096   5.273   9.871  0.1051 -1.1195  0.7268
  111OSM    H7T11463   4.042   5.108   9.844 -0.5473  0.3097 -0.4283
  111OSM    C8S11464   4.139   5.204   9.675 -0.2521 -0.4285  0.6024
  111OSM    H8S11465   4.192   5.112   9.641  0.2076  0.7337 -2.0056
  111OSM    H8T11466   4.202   5.295   9.666  0.0394 -0.8406 -2.2640
  111OSM    C9S11467   4.011   5.235   9.604 -0.1512  0.6779 -0.3496
  111OSM    H9S11468   3.952   5.322   9.640 -1.0681 -0.4532  0.9863
  111OSM    H9T11469   3.943   5.148   9.616  1.3586 -0.5453 -0.4115
  111OSM   C10S11470   4.028   5.253   9.463  0.2463 -0.4843 -0.4848
  111OSM   H10S11471   4.097   5.336   9.435  3.1047 -2.6249 -0.1021
  111OSM   H10T11472   3.934   5.299   9.427 -0.8280 -2.4512 -0.2252
  111OSM   C11S11473   4.049   5.125   9.380  0.1974  0.2031  0.6847
  111OSM   H11S11474   3.984   5.049   9.429 -0.2758  0.0939 -0.1102
  111OSM   H11T11475   4.153   5.086   9.391  0.5411  0.9191  0.0486
  111OSM   C12S11476   4.021   5.130   9.221 -0.1100  0.3178  0.0884
  111OSM   H12S11477   4.122   5.146   9.177  0.9032 -3.5466  0.7547
  111OSM   H12T11478   3.955   5.212   9.186 -0.6719 -1.1379 -2.3519
  111OSM   C13S11479   3.972   4.998   9.167  0.0849  0.1614 -0.2791
  111OSM   H13S11480   3.868   4.990   9.206  0.2441 -0.8976 -0.0526
  111OSM   H13T11481   4.026   4.914   9.215  2.1709  1.3517 -0.4913
  111OSM   C14S11482   3.988   4.985   9.012 -0.5037 -0.1643 -0.0681
  111OSM   H14S11483   4.093   4.967   8.981 -0.1103  3.0085 -0.6990
  111OSM   H14T11484   3.964   5.079   8.957  0.2130  0.3826  0.5447
  111OSM   C15S11485   3.905   4.869   8.964  0.0521  0.2106  0.5364
  111OSM   H15S11486   3.800   4.896   8.987  0.1443  0.5945  0.5070
  111OSM   H15T11487   3.927   4.773   9.017  2.2155 -0.0094 -0.7012
  111OSM   C16S11488   3.895   4.852   8.811 -0.2270 -0.1908 -0.0346
  111OSM   H16S11489   3.831   4.928   8.764  0.6263  0.3783 -0.2883
  111OSM   H16T11490   3.829   4.764   8.798 -1.8029  1.0220 -0.3736
  111OSM   C17S11491   4.026   4.847   8.738  0.2100  0.1730  0.4442
  111OSM   H17S11492   4.096   4.782   8.795 -0.1498 -1.1533 -0.6208
  111OSM   H17T11493   4.064   4.951   8.744 -1.5187  0.8470  0.1713
  111OSM   C18S11494   4.010   4.807   8.591  0.1090 -0.3818  0.2812
  111OSM   H18S11495   3.938   4.722   8.588 -3.5170  2.4987  2.3303
  111OSM   H18T11496   4.107   4.776   8.547 -0.4475 -3.0904  0.8528
  111OSM   H18U11497   3.973   4.896   8.536  0.6464 -0.1755  0.2465
  111OSM    C1F11498   4.262   5.392  10.367  0.3848  0.0450 -0.4406
  111OSM     OF11499   4.366   5.378  10.426  0.2904 -0.4564 -1.0576
  111OSM    C2F11500   4.210   5.532  10.355 -0.0373  0.7695 -0.4015
  111OSM    H2F11501   4.235   5.599  10.440 -1.0374  0.3828  0.2174
  111OSM    H2G11502   4.099   5.523  10.363  0.0074 -0.2485 -0.7729
  111OSM    C3F11503   4.257   5.603  10.223 -0.1838 -0.1464  0.2249
  111OSM    H3F11504   4.368   5.598  10.223 -0.2244 -1.0679  1.1379
  111OSM    H3G11505   4.222   5.708  10.230  0.0380 -0.0983  0.6069
  111OSM    C4F11506   4.200   5.543  10.092 -0.1379 -0.1707 -0.1112
  111OSM    H4F11507   4.096   5.502  10.094 -0.2815  0.2280  1.4161
  111OSM    H4G11508   4.267   5.461  10.059 -0.0057 -1.0436  2.2383
  111OSM    C5F11509   4.203   5.648   9.979 -0.4097  0.4877 -0.5955
  111OSM    H5F11510   4.302   5.700   9.981  0.2317 -0.6143 -2.2611
  111OSM    H5G11511   4.129   5.724  10.012 -1.7836 -1.4621  0.8801
  111OSM    C6F11512   4.163   5.597   9.843  0.6867 -0.0840 -0.6546
  111OSM    H6F11513   4.056   5.566   9.837 -0.0529  2.4197 -0.8889
  111OSM    H6G11514   4.218   5.501   9.829 -0.1659 -0.6396 -0.2290
  111OSM    C7F11515   4.197   5.698   9.729  0.1401  0.0224  0.2523
  111OSM    H7F11516   4.302   5.730   9.747  0.1080  0.1335  0.2417
  111OSM    H7G11517   4.129   5.784   9.746  0.1952 -0.2696  2.1025
  111OSM    C8F11518   4.170   5.641   9.591  0.2975 -0.1477 -1.1059
  111OSM    H8F11519   4.062   5.613   9.585  0.3238 -0.4009 -0.4767
  111OSM    H8G11520   4.225   5.545   9.581  0.5439 -0.0642 -0.5645
  111OSM    C9F11521   4.203   5.742   9.480  0.4554  0.3409  0.2547
  111OSM    H9F11522   4.175   5.848   9.489 -0.9381  0.0948 -0.7763
  111OSM   C10F11523   4.260   5.714   9.365 -0.5020  0.2973 -0.0077
  111OSM   H10F11524   4.271   5.801   9.298  1.4310 -0.3378 -0.5548
  111OSM   C11F11525   4.314   5.591   9.315 -0.4079  0.3753 -0.5749
  111OSM   H11F11526   4.333   5.527   9.404 -0.2932 -2.0001 -2.2514
  111OSM   H11G11527   4.408   5.618   9.262  1.9348 -3.0025  1.6263
  111OSM   C12F11528   4.228   5.516   9.214 -0.0996  0.7112 -0.9087
  111OSM   H12F11529   4.133   5.490   9.266  1.2973 -1.7106  0.5193
  111OSM   H12G11530   4.285   5.423   9.195  0.1690  0.4889  0.8729
  111OSM   C13F11531   4.199   5.590   9.078 -0.2623  0.1690  0.0184
  111OSM   H13F11532   4.295   5.602   9.024 -0.1213  2.4190  0.7411
  111OSM   H13G11533   4.151   5.690   9.086 -0.9008 -0.2803  2.3857
  111OSM   C14F11534   4.107   5.510   8.975  0.3489 -0.5572  0.0422
  111OSM   H14F11535   4.153   5.415   8.940 -2.0714 -1.1296 -1.7175
  111OSM   H14G11536   4.104   5.578   8.888  0.0339 -0.0150  0.4712
  111OSM   C15F11537   3.957   5.482   9.021  0.2700 -0.2571  0.7432
  111OSM   H15F11538   3.924   5.589   9.024  1.2041  0.0587 -0.0664
  111OSM   H15G11539   3.960   5.431   9.120 -0.4407 -0.2365  0.7749
  111OSM   C16F11540   3.875   5.409   8.918  0.3749 -0.0748  0.6336
  111OSM   H16F11541   3.903   5.301   8.917  0.3506 -0.0998 -2.4931
  111OSM   H16G11542   3.889   5.439   8.812  0.8527 -0.2999  0.6293
  111OSM   C17F11543   3.724   5.409   8.947 -0.0129  0.1557 -0.2470
  111OSM   H17F11544   3.686   5.310   8.913  1.0357 -0.3511  0.0667
  111OSM   H17G11545   3.659   5.479   8.889 -1.9365  1.8128  3.7573
  111OSM   C18F11546   3.690   5.420   9.097 -0.1725  0.0306  0.3449
  111OSM   H18F11547   3.586   5.390   9.121 -0.3734  1.0943  0.8212
  111OSM   H18G11548   3.706   5.523   9.137  0.9013 -0.3551  0.9212
  111OSM   H18H11549   3.762   5.348   9.142 -0.9808 -1.2605 -0.3923
  112OSM      N11550   4.171   3.015  11.219 -0.1709  0.2794  0.3209
  112OSM    C1511551   4.301   2.976  11.272 -0.2825 -0.0365 -0.0661
  112OSM   H15A11552   4.322   2.881  11.226  0.0101  1.5256 -3.3985
  112OSM   H15B11553   4.293   2.980  11.379  0.1878 -1.1062  0.0114
  112OSM   H15C11554   4.375   3.045  11.232 -2.4400  2.5497  0.2290
  112OSM    C1411555   4.075   2.908  11.265 -0.2701 -0.3203 -0.2626
  112OSM   H14A11556   4.099   2.815  11.216 -0.6237  0.5875 -2.2041
  112OSM   H14B11557   3.974   2.936  11.237 -0.5546 -0.8374  0.2219
  112OSM   H14C11558   4.081   2.892  11.372 -1.6359  1.2676  0.0832
  112OSM    C1311559   4.132   3.145  11.274 -0.6903  0.2629  0.2398
  112OSM   H13A11560   4.036   3.177  11.238 -0.7724  0.3981  0.5758
  112OSM   H13B11561   4.191   3.230  11.244  3.3843 -2.3415  0.4113
  112OSM   H13C11562   4.136   3.148  11.382  0.9272 -2.3052  0.3262
  112OSM    C1211563   4.168   3.015  11.065  0.1813  0.0536 -0.3544
  112OSM   H12A11564   4.213   2.921  11.035 -0.0377 -0.8878  2.1535
  112OSM   H12B11565   4.235   3.095  11.039 -0.1018 -0.1038 -1.6040
  112OSM    C1111566   4.027   3.022  10.988  0.4403  0.0025  0.3149
  112OSM   H11A11567   3.955   2.940  11.009 -2.4504  2.1169 -0.9865
  112OSM   H11B11568   4.046   3.014  10.879 -0.8159 -0.9169  0.1569
  112OSM      P11569   4.002   3.279  10.924 -0.3163 -0.1210 -0.2672
  112OSM    O1311570   3.949   3.398  10.992 -0.4897  0.1387  0.3813
  112OSM    O1411571   4.148   3.282  10.904 -0.2361  0.4199 -0.0520
  112OSM    O1111572   3.939   3.240  10.785  0.1550 -0.6340 -0.7086
  112OSM    O1211573   3.963   3.149  11.014  0.1509  0.0628 -0.2012
  112OSM    C1S11574   3.818   3.161  10.780  0.9875 -0.5911 -0.3947
  112OSM    H1S11575   3.727   3.222  10.796  2.3508  1.6918 -1.1164
  112OSM    H1T11576   3.822   3.071  10.845  0.9648  0.0741  0.5210
  112OSM     NF11577   3.680   3.025  10.622 -0.3069  1.0558 -0.2573
  112OSM    HNF11578   3.675   2.926  10.629 -0.3860  1.1777  1.6376
  112OSM    C2S11579   3.810   3.092  10.640  0.3090 -0.0890  0.1695
  112OSM    H2S11580   3.805   3.177  10.568  0.2704  1.1668  1.6211
  112OSM    C3S11581   3.940   3.013  10.602  0.1560 -0.1403  1.1074
  112OSM    H3S11582   3.942   2.916  10.657 -1.8403 -0.9613 -0.2140
  112OSM     O311583   4.061   3.080  10.632  0.1680 -0.4368 -0.6179
  112OSM    HO311584   4.030   3.141  10.699  0.0663  0.2781 -1.3055
  112OSM    C4S11585   3.936   2.986  10.446 -0.5955  0.0687  0.6034
  112OSM    H4S11586   3.932   2.878  10.426 -0.4112  0.4621 -1.6453
  112OSM    C5S11587   3.960   3.071  10.349 -0.6899 -0.3676  0.5864
  112OSM    H5S11588   3.991   3.171  10.384 -0.2490 -0.5680  0.7754
  112OSM    C6S11589   3.958   3.048  10.201 -0.0490 -0.6203  0.1578
  112OSM    H6S11590   4.035   3.111  10.151  1.1546 -0.5832  2.0054
  112OSM    H6T11591   3.858   3.081  10.166 -0.4353 -1.5692  0.3368
  112OSM    C7S11592   3.981   2.902  10.153 -0.4552  0.0072 -0.4329
  112OSM    H7S11593   3.906   2.843  10.210 -0.6957  0.2034 -0.5423
  112OSM    H7T11594   4.077   2.883  10.206  1.0031  1.1923 -2.5684
  112OSM    C8S11595   3.988   2.885  10.005  0.0680  0.4763  0.2209
  112OSM    H8S11596   4.030   2.782   9.996 -1.0853  0.2043 -2.6706
  112OSM    H8T11597   4.058   2.957   9.958 -2.4284  2.9340  0.1492
  112OSM    C9S11598   3.850   2.923   9.941  0.2506  0.4766 -0.1143
  112OSM    H9S11599   3.825   3.027   9.971 -2.6812 -0.3041  0.2918
  112OSM    H9T11600   3.764   2.854   9.952 -2.3878  3.4249 -1.7599
  112OSM   C10S11601   3.867   2.938   9.789 -0.1840 -0.2868 -0.7670
  112OSM   H10S11602   3.954   3.003   9.764 -0.3853 -0.2723 -1.4478
  112OSM   H10T11603   3.782   3.003   9.760 -0.5810  0.1799  1.3298
  112OSM   C11S11604   3.875   2.800   9.726 -0.1770 -0.2084 -0.7679
  112OSM   H11S11605   3.794   2.738   9.769  0.0959 -0.7475 -1.0325
  112OSM   H11T11606   3.973   2.755   9.754 -0.8347 -1.1283  0.0613
  112OSM   C12S11607   3.871   2.806   9.578  0.3978 -0.0101  0.6610
  112OSM   H12S11608   3.895   2.706   9.536  1.8550  0.9964 -0.9517
  112OSM   H12T11609   3.938   2.883   9.534 -0.4280  1.0114  1.1528
  112OSM   C13S11610   3.727   2.839   9.530 -0.6953 -0.0639  0.1116
  112OSM   H13S11611   3.712   2.949   9.525  2.0260  0.2828 -0.8277
  112OSM   H13T11612   3.660   2.811   9.614  1.7883  0.1093  2.2005
  112OSM   C14S11613   3.696   2.776   9.394 -0.3760 -0.2729  0.7565
  112OSM   H14S11614   3.586   2.770   9.380 -0.0146 -2.9128 -1.3353
  112OSM   H14T11615   3.732   2.671   9.385  0.9118  0.2257 -0.2531
  112OSM   C15S11616   3.748   2.850   9.270  0.1504  0.3847  0.6557
  112OSM   H15S11617   3.858   2.860   9.282  0.7502 -3.6640 -0.6031
  112OSM   H15T11618   3.705   2.948   9.241 -2.1796 -1.1223 -1.2013
  112OSM   C16S11619   3.738   2.761   9.146 -0.3674  0.6826  0.3549
  112OSM   H16S11620   3.633   2.726   9.138 -0.4922  0.6150  2.0504
  112OSM   H16T11621   3.803   2.672   9.161  1.3144  1.3688 -2.5575
  112OSM   C17S11622   3.777   2.831   9.018  0.3813 -0.0734 -0.3985
  112OSM   H17S11623   3.885   2.855   9.020  0.6553 -1.2992  2.6166
  112OSM   H17T11624   3.708   2.919   9.016  1.3971  0.7451  0.1192
  112OSM   C18S11625   3.752   2.739   8.900 -0.6469  0.2829  0.7585
  112OSM   H18S11626   3.808   2.643   8.912 -2.5204 -0.7852  1.1134
  112OSM   H18T11627   3.762   2.791   8.802 -0.8931 -1.4540 -0.2110
  112OSM   H18U11628   3.648   2.701   8.897 -0.4105 -0.2772 -3.3494
  112OSM    C1F11629   3.571   3.098  10.607  0.1519  0.0226  0.3448
  112OSM     OF11630   3.558   3.221  10.616  0.2905 -0.1325 -0.2569
  112OSM    C2F11631   3.452   3.023  10.559  0.5639 -0.5788 -0.1735
  112OSM    H2F11632   3.361   3.044  10.618  0.3935 -3.1579  0.5695
  112OSM    H2G11633   3.469   2.914  10.578  1.9430 -0.4549 -0.6259
  112OSM    C3F11634   3.410   3.027  10.407 -0.7361 -0.9258  0.1378
  112OSM    H3F11635   3.429   3.129  10.368 -0.6961 -1.3896 -1.0564
  112OSM    H3G11636   3.304   2.997  10.393 -0.9385  0.1275 -0.6432
  112OSM    C4F11637   3.494   2.923  10.328 -0.5440 -0.2918 -0.2416
  112OSM    H4F11638   3.505   2.832  10.391  1.1443  1.1264  1.5743
  112OSM    H4G11639   3.594   2.969  10.313 -1.8297  2.3116 -1.2792
  112OSM    C5F11640   3.426   2.903  10.197  0.2736 -0.6005  0.7569
  112OSM    H5F11641   3.409   2.997  10.141 -5.0186 -0.3118  2.5600
  112OSM    H5G11642   3.324   2.862  10.212  0.2484 -0.9381 -0.3127
  112OSM    C6F11643   3.494   2.800  10.104 -0.0550 -0.7733 -0.2635
  112OSM    H6F11644   3.507   2.698  10.147 -2.5017 -1.2681 -0.6185
  112OSM    H6G11645   3.595   2.839  10.080 -0.2519 -0.2287 -0.2103
  112OSM    C7F11646   3.419   2.785   9.967 -0.3491  0.7821  0.0708
  112OSM    H7F11647   3.366   2.880   9.945 -0.5617  0.4157 -1.0151
  112OSM    H7G11648   3.329   2.719   9.972 -0.9028  1.6061  1.4718
  112OSM    C8F11649   3.505   2.756   9.848 -0.5015  0.0331  0.6173
  112OSM    H8F11650   3.597   2.819   9.850 -0.4669  0.0233 -0.2952
  112OSM    H8G11651   3.451   2.778   9.753 -0.9020  0.5775  0.9679
  112OSM    C9F11652   3.542   2.610   9.845  0.4178  0.4617  0.4838
  112OSM    H9F11653   3.617   2.579   9.919 -0.8626  0.5501  1.8505
  112OSM   C10F11654   3.504   2.515   9.758 -0.1658  0.4504  0.2298
  112OSM   H10F11655   3.537   2.412   9.774 -0.3330 -0.0490 -2.5412
  112OSM   C11F11656   3.406   2.534   9.641 -0.5244  0.0275 -0.4286
  112OSM   H11F11657   3.372   2.639   9.632  1.8830  0.7912 -1.0058
  112OSM   H11G11658   3.311   2.491   9.679  0.6168 -1.5870  0.7070
  112OSM   C12F11659   3.435   2.489   9.497 -0.4435  0.0674 -0.6016
  112OSM   H12F11660   3.441   2.378   9.486  2.2851  0.2772 -1.7516
  112OSM   H12G11661   3.535   2.532   9.472  0.0855 -1.5753 -1.4579
  112OSM   C13F11662   3.333   2.534   9.392  0.4804  0.5319 -0.2784
  112OSM   H13F11663   3.303   2.640   9.400 -0.3620  0.2981 -0.3087
  112OSM   H13G11664   3.247   2.467   9.411  0.8696 -0.0611 -0.5594
  112OSM   C14F11665   3.394   2.525   9.246  0.3661 -0.1497  0.1578
  112OSM   H14F11666   3.434   2.422   9.233 -0.9239 -0.2918 -3.3837
  112OSM   H14G11667   3.490   2.580   9.251  0.3046 -0.1804  2.0317
  112OSM   C15F11668   3.323   2.583   9.129  0.7464 -1.0052  0.0900
  112OSM   H15F11669   3.319   2.694   9.120  0.6362 -1.1102 -1.2083
  112OSM   H15G11670   3.216   2.562   9.146  0.3354  0.9504 -0.0307
  112OSM   C16F11671   3.374   2.520   8.997  0.7399  0.4069  0.2955
  112OSM   H16F11672   3.336   2.417   8.982 -0.5647  1.0070 -0.6282
  112OSM   H16G11673   3.485   2.511   8.993  0.8935  1.0127  2.3952
  112OSM   C17F11674   3.331   2.591   8.871  0.2635 -0.5629 -0.4195
  112OSM   H17F11675   3.358   2.698   8.888  0.5942 -0.7207  0.0905
  112OSM   H17G11676   3.220   2.590   8.867  0.3053 -0.7723 -1.4179
  112OSM   C18F11677   3.385   2.529   8.744  1.2126 -0.4573 -0.0562
  112OSM   H18F11678   3.383   2.418   8.753 -0.8571 -0.3681  0.8329
  112OSM   H18G11679   3.489   2.567   8.740  0.8500  0.5647  0.0211
  112OSM   H18H11680   3.329   2.556   8.652 -0.4776 -2.4795  0.3235
  113OSM      N11681   3.507   2.671  11.292  0.2396 -0.1875 -0.4718
  113OSM    C1511682   3.490   2.529  11.332 -0.0367 -0.2664 -0.1182
  113OSM   H15A11683   3.530   2.518  11.432 -0.7004 -0.7990  0.0903
  113OSM   H15B11684   3.539   2.452  11.274 -0.4301 -0.9257  0.4186
  113OSM   H15C11685   3.388   2.497  11.347  0.1282 -0.1892  1.2284
  113OSM    C1411686   3.454   2.762  11.393  0.0351 -0.2771  0.0177
  113OSM   H14A11687   3.507   2.752  11.486  1.2873  2.0663 -0.4070
  113OSM   H14B11688   3.351   2.745  11.419  0.7261 -1.2364  2.1915
  113OSM   H14C11689   3.456   2.865  11.360 -0.2439 -0.3622 -0.2691
  113OSM    C1311690   3.661   2.697  11.292  0.0775 -0.3837 -0.2551
  113OSM   H13A11691   3.710   2.684  11.387 -0.7932  0.0831  0.2656
  113OSM   H13B11692   3.668   2.798  11.253 -1.6404  0.3348  1.2170
  113OSM   H13C11693   3.697   2.628  11.217  0.6030  0.4221 -0.7551
  113OSM    C1211694   3.438   2.692  11.158 -0.9203  0.9071 -0.1641
  113OSM   H12A11695   3.461   2.791  11.123 -1.1205 -0.0822 -3.1609
  113OSM   H12B11696   3.331   2.681  11.171 -0.6439  0.8020  2.3368
  113OSM    C1111697   3.481   2.609  11.037  0.0295  0.1713 -0.0685
  113OSM   H11A11698   3.431   2.639  10.943 -3.5942  0.9487  1.9998
  113OSM   H11B11699   3.448   2.504  11.057 -0.5853  0.4393  0.3205
  113OSM      P11700   3.692   2.723  10.938  0.3274  0.0354 -0.3621
  113OSM    O1311701   3.597   2.828  10.915 -0.5760 -0.2757 -0.0461
  113OSM    O1411702   3.830   2.750  10.996  0.8095  0.4934 -0.0090
  113OSM    O1111703   3.718   2.642  10.803  0.0506 -0.0477  0.2772
  113OSM    O1211704   3.619   2.604  11.025 -0.0739  0.2080  0.1665
  113OSM    C1S11705   3.837   2.558  10.791  0.7129 -0.5848 -0.2383
  113OSM    H1S11706   3.820   2.463  10.847  0.1731 -0.6715 -0.5536
  113OSM    H1T11707   3.931   2.601  10.831 -0.3860  0.8327  0.8431
  113OSM     NF11708   3.971   2.426  10.637 -0.4578  0.0033  0.4679
  113OSM    HNF11709   4.055   2.456  10.593  0.2244 -1.3316  0.8611
  113OSM    C2S11710   3.854   2.513  10.643  0.4803  0.3607 -0.1216
  113OSM    H2S11711   3.770   2.454  10.600 -0.0904 -1.2869  3.0822
  113OSM    C3S11712   3.871   2.636  10.545 -0.4338  0.8887 -0.1441
  113OSM    H3S11713   3.960   2.698  10.565  0.9414  0.1736 -3.6273
  113OSM     O311714   3.760   2.723  10.556 -0.1669 -0.2274  0.8875
  113OSM    HO311715   3.697   2.681  10.614 -0.3388 -0.7107  0.3599
  113OSM    C4S11716   3.884   2.597  10.404 -0.1417  0.3048  0.4512
  113OSM    H4S11717   3.987   2.603  10.365 -1.4488  1.9306 -2.9789
  113OSM    C5S11718   3.791   2.573  10.308  0.0704  0.6371  0.1776
  113OSM    H5S11719   3.685   2.595  10.329 -1.1457 -2.0333 -2.7177
  113OSM    C6S11720   3.820   2.540  10.163 -0.5577  0.2787 -0.1223
  113OSM    H6S11721   3.798   2.622  10.093 -2.6263 -2.1385 -2.4253
  113OSM    H6T11722   3.758   2.455  10.126  0.9001 -0.9925  0.2854
  113OSM    C7S11723   3.960   2.490  10.137  0.5329 -0.8339 -0.1695
  113OSM    H7S11724   3.971   2.391  10.186 -2.3436 -0.8676  0.5259
  113OSM    H7T11725   4.033   2.561  10.182 -0.4263  0.2595 -0.3015
  113OSM    C8S11726   3.983   2.478   9.993 -0.0729 -0.9077 -0.5502
  113OSM    H8S11727   4.090   2.469   9.964 -0.1170 -0.4562 -0.8725
  113OSM    H8T11728   3.940   2.551   9.920 -0.6736 -2.5049 -1.8139
  113OSM    C9S11729   3.936   2.343   9.926  0.8231  0.9321  0.6056
  113OSM    H9S11730   3.829   2.343   9.957 -0.6150  0.0076 -3.9614
  113OSM    H9T11731   3.988   2.261   9.980  0.0493 -1.5309 -2.2581
  113OSM   C10S11732   3.938   2.318   9.778 -0.5784 -0.0181 -0.2956
  113OSM   H10S11733   4.041   2.315   9.737 -1.0690 -0.9997 -1.4856
  113OSM   H10T11734   3.866   2.375   9.715 -0.5963 -0.8640 -1.0412
  113OSM   C11S11735   3.891   2.172   9.758 -0.4573 -0.0372 -0.0793
  113OSM   H11S11736   3.786   2.170   9.794 -0.6750  0.8310 -0.6584
  113OSM   H11T11737   3.958   2.106   9.817 -0.1294  1.6111  1.4656
  113OSM   C12S11738   3.880   2.129   9.613 -0.2431  0.4286  0.8238
  113OSM   H12S11739   3.849   2.022   9.620  1.1257  0.0536  1.2042
  113OSM   H12T11740   3.981   2.131   9.567 -0.5767  0.4051  0.0750
  113OSM   C13S11741   3.787   2.217   9.521  0.3663 -1.0031 -0.2232
  113OSM   H13S11742   3.825   2.321   9.526 -1.0541 -0.4884  0.0473
  113OSM   H13T11743   3.683   2.206   9.560  0.3747 -3.8938 -0.8927
  113OSM   C14S11744   3.786   2.171   9.382 -0.4340  0.6478 -0.2417
  113OSM   H14S11745   3.720   2.082   9.377  2.6628 -1.8638  1.4021
  113OSM   H14T11746   3.886   2.144   9.342  0.5334  3.5199  0.1313
  113OSM   C15S11747   3.732   2.261   9.275  0.1175 -0.2194  0.4012
  113OSM   H15S11748   3.787   2.357   9.281  0.3883 -0.4589  2.2357
  113OSM   H15T11749   3.624   2.286   9.286 -0.2843 -0.9428 -1.7293
  113OSM   C16S11750   3.744   2.200   9.133 -0.4112 -0.0280  0.1006
  113OSM   H16S11751   3.706   2.096   9.125  4.2248 -1.8093 -0.8703
  113OSM   H16T11752   3.852   2.206   9.104 -0.0244  3.6401  2.0282
  113OSM   C17S11753   3.672   2.289   9.030  0.0334  0.2772 -0.5508
  113OSM   H17S11754   3.705   2.395   9.040  0.4998  0.0721  0.1133
  113OSM   H17T11755   3.562   2.281   9.041 -0.0042  1.1083 -0.3271
  113OSM   C18S11756   3.719   2.243   8.892  0.5622 -0.4523  0.0515
  113OSM   H18S11757   3.691   2.138   8.867  0.7655 -0.5223  0.1164
  113OSM   H18T11758   3.828   2.248   8.870  0.9466 -2.2107  1.3838
  113OSM   H18U11759   3.675   2.307   8.812 -0.2783  1.4418  1.9969
  113OSM    C1F11760   3.970   2.296  10.682 -0.1291 -0.1642 -0.6556
  113OSM     OF11761   3.876   2.243  10.736  0.8567  0.6198  0.0159
  113OSM    C2F11762   4.092   2.218  10.655  0.2773 -0.3462 -0.0550
  113OSM    H2F11763   4.133   2.186  10.754  0.6228 -0.1188 -0.1268
  113OSM    H2G11764   4.162   2.280  10.596  0.2832  0.2598  0.5800
  113OSM    C3F11765   4.072   2.091  10.573 -0.7463 -0.1288 -0.0867
  113OSM    H3F11766   4.005   2.020  10.626 -0.5224  1.0670  1.8239
  113OSM    H3G11767   4.169   2.037  10.581 -2.5364 -3.1829  2.2895
  113OSM    C4F11768   4.029   2.130  10.433 -0.2842 -0.3015 -0.1283
  113OSM    H4F11769   4.117   2.188  10.399  2.0301 -2.9753  1.0592
  113OSM    H4G11770   3.933   2.185  10.424 -1.6936 -2.8201 -0.8451
  113OSM    C5F11771   4.035   2.008  10.338  0.1501 -1.3846  0.1701
  113OSM    H5F11772   3.931   1.989  10.303  1.7912 -3.9652 -3.7743
  113OSM    H5G11773   4.059   1.917  10.398 -0.4048 -0.4029  1.9171
  113OSM    C6F11774   4.121   2.032  10.216  0.1722 -0.6146 -0.2662
  113OSM    H6F11775   4.226   2.036  10.251  0.7757 -1.5998 -1.8871
  113OSM    H6G11776   4.094   2.128  10.167  0.7954 -0.6115 -0.6121
  113OSM    C7F11777   4.112   1.925  10.108 -0.2569 -0.1225  0.2016
  113OSM    H7F11778   4.003   1.928  10.086 -0.1573  1.5479 -0.1644
  113OSM    H7G11779   4.124   1.831  10.165 -0.7741 -0.1723  0.2302
  113OSM    C8F11780   4.206   1.931   9.984  0.0342  0.0309 -0.7268
  113OSM    H8F11781   4.311   1.936  10.021 -0.2716  1.2279  0.0071
  113OSM    H8G11782   4.181   2.027   9.935 -1.0134  1.1427  1.8666
  113OSM    C9F11783   4.188   1.802   9.908  0.1897  0.0009  1.1087
  113OSM    H9F11784   4.081   1.780   9.893  0.8665 -3.0522  0.2880
  113OSM   C10F11785   4.274   1.713   9.845 -0.2607  0.0940  0.3337
  113OSM   H10F11786   4.232   1.625   9.794  0.5025 -0.3597  0.4656
  113OSM   C11F11787   4.421   1.730   9.834 -0.0942  0.0266 -0.4137
  113OSM   H11F11788   4.457   1.822   9.883  0.1430  0.0953 -0.7161
  113OSM   H11G11789   4.449   1.739   9.727  1.8227  2.5307  0.2542
  113OSM   C12F11790   4.510   1.618   9.901  0.0894 -0.2385  0.5939
  113OSM   H12F11791   4.471   1.610  10.005 -1.4982 -0.3700  0.0094
  113OSM   H12G11792   4.608   1.669   9.892  1.0423 -2.3043 -0.9852
  113OSM   C13F11793   4.515   1.492   9.811 -0.1477  0.3832  0.2311
  113OSM   H13F11794   4.410   1.465   9.788  0.0361  0.1524 -0.3426
  113OSM   H13G11795   4.567   1.413   9.871 -0.2529 -0.1430 -0.3607
  113OSM   C14F11796   4.589   1.506   9.680 -0.5321 -0.2988 -0.0721
  113OSM   H14F11797   4.699   1.509   9.692 -0.8753 -1.4923  3.8651
  113OSM   H14G11798   4.576   1.608   9.636  0.9265 -0.2947 -0.5361
  113OSM   C15F11799   4.540   1.389   9.594  0.0223 -0.6485  0.0616
  113OSM   H15F11800   4.442   1.418   9.553  0.5916  0.3876 -0.5812
  113OSM   H15G11801   4.532   1.295   9.653 -0.9829  0.1447  1.2011
  113OSM   C16F11802   4.635   1.366   9.474 -0.8780  0.3423  0.6364
  113OSM   H16F11803   4.731   1.326   9.514 -0.6263  0.3803  0.0733
  113OSM   H16G11804   4.663   1.460   9.421  0.5681 -1.3775 -1.7730
  113OSM   C17F11805   4.573   1.272   9.365  0.6540 -0.7976  0.3800
  113OSM   H17F11806   4.496   1.323   9.303  1.6382 -1.2667 -1.2776
  113OSM   H17G11807   4.517   1.195   9.422 -0.6422  0.5712  0.9809
  113OSM   C18F11808   4.667   1.212   9.263 -0.1088  0.0402 -1.1838
  113OSM   H18F11809   4.742   1.292   9.243 -0.6398  0.5641 -1.0866
  113OSM   H18G11810   4.601   1.185   9.178 -2.6703  0.3583  0.6568
  113OSM   H18H11811   4.716   1.117   9.294 -0.8240  0.0924  0.1415
  114OSM      N11812   5.211   1.107  11.147 -0.0129  0.1428  0.5501
  114OSM    C1511813   5.333   1.119  11.238  0.2261 -0.0803 -0.4415
  114OSM   H15A11814   5.318   1.197  11.311 -1.2204  0.1823 -1.0170
  114OSM   H15B11815   5.419   1.122  11.173  0.3923  1.5927 -0.1600
  114OSM   H15C11816   5.350   1.028  11.294  0.5949  0.8639  1.0136
  114OSM    C1411817   5.223   1.218  11.040 -0.2185  0.0592 -0.0961
  114OSM   H14A11818   5.317   1.203  10.988 -0.0176  0.5292  0.1230
  114OSM   H14B11819   5.222   1.318  11.080 -1.2854 -0.6533  1.7395
  114OSM   H14C11820   5.141   1.211  10.970 -1.5031  0.8106  1.3119
  114OSM    C1311821   5.207   0.975  11.073 -0.5607 -0.1817 -0.3999
  114OSM   H13A11822   5.210   0.886  11.134  3.2143  0.6313  0.7718
  114OSM   H13B11823   5.291   0.958  11.007 -0.9694 -0.5078 -0.8371
  114OSM   H13C11824   5.118   0.974  11.012 -0.5837  0.6562 -0.3839
  114OSM    C1211825   5.094   1.136  11.240  0.6804 -0.0882  0.4214
  114OSM   H12A11826   5.101   1.231  11.290 -0.9620  0.1924  0.1333
  114OSM   H12B11827   5.099   1.064  11.320 -1.3702 -2.4092 -1.4656
  114OSM    C1111828   4.954   1.122  11.175 -0.1021  0.2449  0.3292
  114OSM   H11A11829   4.930   1.017  11.149 -2.9651  1.6046 -2.9134
  114OSM   H11B11830   4.952   1.176  11.078 -0.1557  1.6246  1.0778
  114OSM      P11831   4.718   1.107  11.297  0.0820  0.0526  0.1894
  114OSM    O1311832   4.732   0.993  11.396 -0.0959 -0.4413  0.0378
  114OSM    O1411833   4.619   1.214  11.331 -0.4070 -0.7444 -0.3866
  114OSM    O1111834   4.681   1.048  11.155  0.3366  0.5143  0.1105
  114OSM    O1211835   4.869   1.174  11.275  0.5613 -0.7828 -0.6744
  114OSM    C1S11836   4.614   1.122  11.059 -0.3463  0.2064 -0.2332
  114OSM    H1S11837   4.652   1.225  11.044  0.0571  0.1593  0.4465
  114OSM    H1T11838   4.509   1.141  11.088  0.2376  0.5039  1.7550
  114OSM     NF11839   4.579   1.147  10.825  0.1369  0.7608  0.3384
  114OSM    HNF11840   4.481   1.137  10.808  0.3357  0.3314 -0.5660
  114OSM    C2S11841   4.618   1.049  10.921 -0.2775  0.2356 -0.1837
  114OSM    H2S11842   4.717   1.010  10.889 -0.7035 -1.1316  0.1186
  114OSM    C3S11843   4.524   0.927  10.932  0.0454 -0.2517 -0.3531
  114OSM    H3S11844   4.426   0.977  10.949  0.4727  1.1116 -1.8207
  114OSM     O311845   4.552   0.833  11.043  0.5087  0.5167  0.2645
  114OSM    HO311846   4.615   0.883  11.095  0.8378  1.3930 -0.9531
  114OSM    C4S11847   4.520   0.856  10.788 -0.4666 -0.1457 -0.4715
  114OSM    H4S11848   4.616   0.821  10.747 -0.4281  1.6116 -1.9200
  114OSM    C5S11849   4.414   0.851  10.708 -0.2683  0.6054 -0.0498
  114OSM    H5S11850   4.329   0.916  10.732 -0.4983  0.2973 -0.0285
  114OSM    C6S11851   4.415   0.794  10.569 -0.7987  0.0227 -0.6214
  114OSM    H6S11852   4.320   0.741  10.543 -0.4398 -0.0509 -1.8165
  114OSM    H6T11853   4.488   0.710  10.568  0.1031  0.7075  2.1776
  114OSM    C7S11854   4.442   0.895  10.451  0.0119 -0.0660  0.8193
  114OSM    H7S11855   4.534   0.944  10.488 -0.4564  0.4696  1.2902
  114OSM    H7T11856   4.355   0.964  10.450  0.0245 -0.0726 -1.3504
  114OSM    C8S11857   4.456   0.809  10.325  0.2570  0.1724 -0.2534
  114OSM    H8S11858   4.362   0.758  10.296  0.6722  0.0767 -1.4740
  114OSM    H8T11859   4.527   0.726  10.347 -1.1358 -0.4524  1.9827
  114OSM    C9S11860   4.503   0.901  10.211  0.3044  0.0843  0.4218
  114OSM    H9S11861   4.588   0.959  10.250  1.7423  1.3603 -4.2464
  114OSM    H9T11862   4.419   0.973  10.204  1.2630  1.2179  0.4164
  114OSM   C10S11863   4.520   0.837  10.072 -1.0193  0.2548 -0.1482
  114OSM   H10S11864   4.431   0.773  10.054  0.4042 -1.9860  0.6283
  114OSM   H10T11865   4.608   0.769  10.070  0.6236  2.3610 -1.4374
  114OSM   C11S11866   4.542   0.944   9.962 -1.1057  0.3716 -0.5470
  114OSM   H11S11867   4.641   0.991   9.981 -1.2166  0.8777 -1.2126
  114OSM   H11T11868   4.468   1.027   9.964 -0.9283  0.5125  1.8474
  114OSM   C12S11869   4.543   0.880   9.827 -0.3152  0.1284  0.3906
  114OSM   H12S11870   4.489   0.783   9.822 -0.0587 -0.0107  0.3542
  114OSM   H12T11871   4.642   0.855   9.783 -0.4929  0.5284 -0.2458
  114OSM   C13S11872   4.475   0.969   9.719  0.1066 -0.6500  0.3791
  114OSM   H13S11873   4.521   1.070   9.707  1.3988 -1.1814  0.7311
  114OSM   H13T11874   4.377   0.993   9.767 -0.6787 -1.6679 -0.7169
  114OSM   C14S11875   4.448   0.907   9.582  0.7657 -0.7172  0.4858
  114OSM   H14S11876   4.376   0.974   9.529  0.6850  0.8591  2.5108
  114OSM   H14T11877   4.395   0.810   9.596  0.2938 -0.3553  1.2644
  114OSM   C15S11878   4.565   0.887   9.488 -0.6357 -0.0456  0.3433
  114OSM   H15S11879   4.624   0.802   9.530 -1.6911 -1.0268 -0.1094
  114OSM   H15T11880   4.620   0.983   9.485 -1.6752  0.5082 -3.1420
  114OSM   C16S11881   4.524   0.861   9.345 -0.0661 -0.3114 -0.5853
  114OSM   H16S11882   4.616   0.885   9.288  0.2027 -0.2072 -0.1126
  114OSM   H16T11883   4.444   0.933   9.316 -0.0599 -0.6077 -1.3349
  114OSM   C17S11884   4.477   0.720   9.311  0.2590 -0.6296  0.1350
  114OSM   H17S11885   4.404   0.682   9.385  0.1553  0.0270  0.3756
  114OSM   H17T11886   4.562   0.650   9.324  1.9602  1.1239 -1.1189
  114OSM   C18S11887   4.410   0.701   9.176 -0.2893 -0.3221  0.3561
  114OSM   H18S11888   4.338   0.781   9.149 -0.8278 -1.3481 -1.3396
  114OSM   H18T11889   4.365   0.600   9.162 -0.7254 -0.0256 -0.3785
  114OSM   H18U11890   4.494   0.728   9.109 -0.1756  1.3592  1.1490
  114OSM    C1F11891   4.655   1.247  10.781 -0.0601 -0.2325 -0.1689
  114OSM     OF11892   4.765   1.260  10.829 -0.0855  0.5462  0.2321
  114OSM    C2F11893   4.600   1.339  10.683 -0.5082  0.1129  0.1492
  114OSM    H2F11894   4.682   1.377  10.619 -0.6342  0.5560  0.2468
  114OSM    H2G11895   4.555   1.429  10.732 -0.3844  0.5997 -0.6252
  114OSM    C3F11896   4.490   1.272  10.594 -0.2547  0.1408  0.3310
  114OSM    H3F11897   4.409   1.242  10.664 -0.9590  0.8671 -0.1656
  114OSM    H3G11898   4.520   1.180  10.539 -0.0073  0.4251 -0.0083
  114OSM    C4F11899   4.435   1.369  10.487 -0.3109  0.2581  0.4691
  114OSM    H4F11900   4.522   1.424  10.444  0.6306  0.0897  2.1240
  114OSM    H4G11901   4.373   1.446  10.538 -0.6065 -0.4857  1.2391
  114OSM    C5F11902   4.364   1.299  10.367 -0.0749 -0.3324 -0.4499
  114OSM    H5F11903   4.276   1.248  10.412  1.0541 -0.4623  1.6717
  114OSM    H5G11904   4.429   1.225  10.316  1.1030  0.5560 -0.2710
  114OSM    C6F11905   4.311   1.396  10.263  0.7132 -0.1872  0.1751
  114OSM    H6F11906   4.398   1.448  10.218  1.0458 -1.5493 -0.7940
  114OSM    H6G11907   4.254   1.475  10.317 -2.2885 -2.0275 -0.1908
  114OSM    C7F11908   4.229   1.319  10.144 -0.2533  0.8155 -0.5000
  114OSM    H7F11909   4.138   1.290  10.201 -1.1825  1.6403 -1.5392
  114OSM    H7G11910   4.288   1.227  10.130 -1.0937  0.2070 -0.1273
  114OSM    C8F11911   4.205   1.406  10.022 -0.2111  0.0840  0.5422
  114OSM    H8F11912   4.293   1.392   9.956 -1.4626 -1.6269 -0.8173
  114OSM    H8G11913   4.201   1.514  10.046  2.3491  0.4815 -0.6567
  114OSM    C9F11914   4.081   1.381   9.934  0.0514 -0.1738  1.0477
  114OSM    H9F11915   3.988   1.401   9.989  0.4270 -0.5836  1.8543
  114OSM   C10F11916   4.077   1.344   9.799  0.2985  0.0912  0.0826
  114OSM   H10F11917   3.978   1.335   9.752 -0.3823  2.0106  1.1025
  114OSM   C11F11918   4.199   1.308   9.706  0.4379  0.0816 -0.9676
  114OSM   H11F11919   4.286   1.285   9.772 -0.8967 -1.8856  0.1590
  114OSM   H11G11920   4.217   1.387   9.630 -1.6922  0.3330 -1.2501
  114OSM   C12F11921   4.155   1.178   9.628 -0.2727  0.0542 -0.6576
  114OSM   H12F11922   4.089   1.108   9.682  1.0786 -0.5940  0.1932
  114OSM   H12G11923   4.253   1.128   9.608 -0.3443 -0.3169 -0.0740
  114OSM   C13F11924   4.094   1.198   9.491 -0.2355  0.4418  0.8269
  114OSM   H13F11925   4.146   1.282   9.439  0.6173  0.0611  1.0648
  114OSM   H13G11926   3.985   1.219   9.498 -1.0803 -3.5313  0.5758
  114OSM   C14F11927   4.090   1.060   9.412  0.1026 -0.3680 -0.0973
  114OSM   H14F11928   4.025   0.992   9.471 -1.4829  2.1482  1.1281
  114OSM   H14G11929   4.197   1.032   9.402  0.5946  1.9321 -1.6567
  114OSM   C15F11930   4.019   1.084   9.279  1.2098  0.0060  0.4487
  114OSM   H15F11931   3.923   1.132   9.309  0.3962 -0.5380 -1.1667
  114OSM   H15G11932   4.002   0.983   9.234  0.0835 -0.3785  1.7011
  114OSM   C16F11933   4.102   1.166   9.182 -0.1462 -0.2197  0.6874
  114OSM   H16F11934   4.188   1.108   9.142 -0.4531  0.7539 -1.4639
  114OSM   H16G11935   4.146   1.259   9.225 -2.8369  1.4541 -0.0438
  114OSM   C17F11936   4.023   1.205   9.053 -0.6132  0.6817  0.5302
  114OSM   H17F11937   3.927   1.252   9.083 -0.2940  1.0982  0.8987
  114OSM   H17G11938   3.991   1.104   9.018  0.8802  0.3601  0.0685
  114OSM   C18F11939   4.106   1.269   8.941  0.1066  0.3732  0.0349
  114OSM   H18F11940   4.070   1.263   8.836 -0.7278 -0.7999  0.3749
  114OSM   H18G11941   4.205   1.219   8.936 -1.3019 -2.4611 -0.3334
  114OSM   H18H11942   4.128   1.375   8.967  1.1621  0.2269 -0.2614
  115OSM      N11943   5.042   4.924   6.005 -0.6140  0.0043  0.6088
  115OSM    C1511944   4.967   4.994   6.114  0.4378  0.1535  0.8921
  115OSM   H15A11945   5.031   5.058   6.173 -0.1154 -0.1833  1.8590
  115OSM   H15B11946   4.926   4.920   6.181 -1.0493  0.8849  0.8126
  115OSM   H15C11947   4.885   5.052   6.073  1.7632  1.1460 -0.4385
  115OSM    C1411948   4.949   4.822   5.934  0.5497  0.1529  0.9477
  115OSM   H14A11949   4.983   4.780   5.840  0.3898 -0.8064  1.3159
  115OSM   H14B11950   4.853   4.865   5.908 -0.4875 -2.0216  1.0661
  115OSM   H14C11951   4.943   4.742   6.006  0.2840  0.9719  1.8502
  115OSM    C1311952   5.077   5.033   5.904 -0.9132 -0.2438  0.5836
  115OSM   H13A11953   5.120   4.995   5.812 -1.3331  2.1463 -0.6341
  115OSM   H13B11954   5.147   5.097   5.955 -0.8107  0.0436  0.0939
  115OSM   H13C11955   4.991   5.092   5.876  0.0581  1.3292  0.8485
  115OSM    C1211956   5.162   4.854   6.065 -0.7469  0.2120 -0.0037
  115OSM   H12A11957   5.238   4.931   6.072 -0.4361  0.1636 -2.5853
  115OSM   H12B11958   5.201   4.778   6.000 -0.9088  1.0298 -1.0652
  115OSM    C1111959   5.135   4.773   6.190 -0.8265  0.2981 -0.0559
  115OSM   H11A11960   5.064   4.818   6.263 -1.6216 -2.3266  0.8235
  115OSM   H11B11961   5.229   4.782   6.249 -0.0695  2.0492 -1.4929
  115OSM      P11962   5.000   4.543   6.213  0.0764  0.8086  0.6798
  115OSM    O1311963   4.867   4.598   6.204  0.3027  0.1942 -0.1427
  115OSM    O1411964   5.015   4.407   6.153  0.1015  0.0062  0.1141
  115OSM    O1111965   5.047   4.540   6.367 -0.2726  0.0317  0.6123
  115OSM    O1211966   5.118   4.638   6.156 -0.1183 -0.1901  0.0994
  115OSM    C1S11967   5.179   4.489   6.406  0.0018 -0.1893 -0.1112
  115OSM    H1S11968   5.254   4.570   6.393 -2.1122  1.5990 -1.6498
  115OSM    H1T11969   5.205   4.399   6.346 -1.8833 -1.7327  1.3173
  115OSM     NF11970   5.306   4.451   6.631  1.1069  0.3639  0.0035
  115OSM    HNF11971   5.337   4.359   6.654  2.6435  0.3994 -1.7920
  115OSM    C2S11972   5.174   4.448   6.558  0.4329  0.2476 -0.1695
  115OSM    H2S11973   5.113   4.523   6.612 -0.3207 -0.8019  0.4583
  115OSM    C3S11974   5.102   4.315   6.570 -0.7639 -0.1539  0.0042
  115OSM    H3S11975   5.159   4.228   6.531  1.4710  1.0198  0.6307
  115OSM     O311976   4.976   4.286   6.511  0.1911  0.3124  0.2985
  115OSM    HO311977   4.960   4.357   6.449  0.7770 -1.0259 -1.4076
  115OSM    C4S11978   5.088   4.294   6.719  0.1500 -0.5282  0.6705
  115OSM    H4S11979   5.172   4.254   6.778  0.1506 -0.6567  0.5813
  115OSM    C5S11980   4.982   4.339   6.791 -0.3137 -0.9387 -0.2632
  115OSM    H5S11981   4.904   4.406   6.750  0.8554  0.4315 -0.2904
  115OSM    C6S11982   4.960   4.322   6.938  0.1877  0.9726 -0.0176
  115OSM    H6S11983   4.863   4.274   6.963 -0.3732  0.6652 -2.6734
  115OSM    H6T11984   4.956   4.426   6.979 -1.3132  0.0266  2.3223
  115OSM    C7S11985   5.065   4.234   7.013  0.5156 -0.1546  0.4764
  115OSM    H7S11986   5.167   4.262   6.977 -0.3735  1.9260 -0.5542
  115OSM    H7T11987   5.049   4.128   6.986 -0.5374  0.6171 -2.1365
  115OSM    C8S11988   5.056   4.245   7.171  0.4072 -0.3967  0.4396
  115OSM    H8S11989   4.986   4.170   7.211  0.0842 -0.5073 -0.3249
  115OSM    H8T11990   5.021   4.347   7.198 -0.8305 -0.5759 -0.4606
  115OSM    C9S11991   5.181   4.207   7.255 -0.1138  0.0885 -0.0418
  115OSM    H9S11992   5.282   4.232   7.218  0.5953 -2.2563  0.2331
  115OSM    H9T11993   5.173   4.097   7.265  1.3575  0.1074  1.5418
  115OSM   C10S11994   5.169   4.257   7.403 -0.2680 -0.6366 -0.6707
  115OSM   H10S11995   5.064   4.242   7.437 -0.3219  1.3930  0.1136
  115OSM   H10T11996   5.186   4.367   7.406  1.6205 -0.9383  1.1208
  115OSM   C11S11997   5.252   4.176   7.495 -0.0619 -0.5454  0.1748
  115OSM   H11S11998   5.352   4.157   7.452 -0.1523 -3.8717  1.3029
  115OSM   H11T11999   5.207   4.074   7.503 -0.8643 -0.2534 -0.5122
  115OSM   C12S12000   5.276   4.246   7.633 -0.4160  0.0088  0.0094
  115OSM   H12S12001   5.175   4.267   7.673 -1.3669 -1.4535 -1.5968
  115OSM   H12T12002   5.332   4.337   7.601 -0.5581  0.0012 -0.2557
  115OSM   C13S12003   5.362   4.172   7.742 -0.7343  0.1264 -0.1721
  115OSM   H13S12004   5.462   4.154   7.696  0.3014 -0.7338  2.3583
  115OSM   H13T12005   5.329   4.069   7.770  0.8291 -1.0424 -2.4502
  115OSM   C14S12006   5.381   4.253   7.869  0.2747 -0.0369  0.2380
  115OSM   H14S12007   5.419   4.354   7.844 -3.5070  1.2808 -0.4036
  115OSM   H14T12008   5.465   4.218   7.934  0.0729 -2.8434 -0.9359
  115OSM   C15S12009   5.257   4.276   7.959 -0.3425 -0.2551  0.0951
  115OSM   H15S12010   5.298   4.289   8.061  0.1903  0.4250 -0.2004
  115OSM   H15T12011   5.202   4.180   7.950  1.5935 -1.6518  2.5839
  115OSM   C16S12012   5.172   4.404   7.921  0.1500 -0.2611  0.1856
  115OSM   H16S12013   5.142   4.406   7.814 -2.0523  2.1418  0.8073
  115OSM   H16T12014   5.234   4.494   7.938  0.4592 -0.3381 -0.5121
  115OSM   C17S12015   5.036   4.419   7.993 -0.3704  0.0367 -0.1094
  115OSM   H17S12016   5.047   4.425   8.103 -4.3793  2.8551  0.2505
  115OSM   H17T12017   4.975   4.328   7.972 -2.5641  1.0525  1.6017
  115OSM   C18S12018   4.961   4.545   7.954 -1.1754  0.7357  0.3339
  115OSM   H18S12019   5.021   4.638   7.968 -1.5260  1.3861 -2.3505
  115OSM   H18T12020   4.879   4.561   8.028 -2.6582  2.7422 -1.6731
  115OSM   H18U12021   4.928   4.537   7.849 -0.0279 -2.3192  0.1655
  115OSM    C1F12022   5.368   4.562   6.662 -0.2795  0.5514  0.4431
  115OSM     OF12023   5.315   4.665   6.624 -0.1672 -0.2583  0.6570
  115OSM    C2F12024   5.501   4.562   6.731 -0.2138 -0.6448  0.0601
  115OSM    H2F12025   5.508   4.656   6.790 -0.3199  0.9548 -2.4086
  115OSM    H2G12026   5.580   4.553   6.654 -0.6570 -1.2843 -0.3244
  115OSM    C3F12027   5.519   4.431   6.818  0.5095  0.2304 -0.8018
  115OSM    H3F12028   5.628   4.434   6.839  0.0317  1.2362  1.6093
  115OSM    H3G12029   5.518   4.335   6.762  2.0486  0.3910 -1.1288
  115OSM    C4F12030   5.454   4.436   6.957 -0.0633  0.4186 -0.2869
  115OSM    H4F12031   5.491   4.345   7.009 -0.2910 -0.6724 -2.0131
  115OSM    H4G12032   5.344   4.424   6.947 -0.0400 -0.0059 -0.0654
  115OSM    C5F12033   5.484   4.557   7.049  0.3751 -0.3911  0.6849
  115OSM    H5F12034   5.456   4.652   7.000 -0.5547 -0.2325  1.5094
  115OSM    H5G12035   5.592   4.572   7.067  0.3835 -0.2017  0.4726
  115OSM    C6F12036   5.413   4.544   7.187 -0.0127  0.1679  0.5533
  115OSM    H6F12037   5.444   4.455   7.246  0.7340  0.2740  0.3308
  115OSM    H6G12038   5.303   4.537   7.181 -0.0651 -0.5792  2.0596
  115OSM    C7F12039   5.450   4.655   7.281  0.6439 -0.0575  0.5030
  115OSM    H7F12040   5.395   4.742   7.237 -2.3533 -1.1097  1.9962
  115OSM    H7G12041   5.559   4.670   7.268  0.4654 -0.7514 -2.0500
  115OSM    C8F12042   5.404   4.640   7.425  0.4306 -0.4828  0.3144
  115OSM    H8F12043   5.461   4.554   7.467  0.2673 -0.1145  1.2999
  115OSM    H8G12044   5.295   4.618   7.433 -0.5355  3.4468 -0.8918
  115OSM    C9F12045   5.426   4.763   7.507  0.3895 -0.6435  0.0588
  115OSM    H9F12046   5.382   4.856   7.470  2.5803  0.7542  0.8849
  115OSM   C10F12047   5.522   4.780   7.603  0.1843 -0.0254 -0.3382
  115OSM   H10F12048   5.530   4.879   7.650 -1.6733  0.0290 -0.1087
  115OSM   C11F12049   5.626   4.677   7.645 -0.1716 -0.5700  0.4203
  115OSM   H11F12050   5.724   4.728   7.657  0.9670 -1.5850 -3.6837
  115OSM   H11G12051   5.649   4.595   7.574  1.8267  0.6072 -0.3507
  115OSM   C12F12052   5.586   4.624   7.788 -0.1817  0.8249  0.6523
  115OSM   H12F12053   5.666   4.557   7.828 -1.3617  0.3540  2.2924
  115OSM   H12G12054   5.493   4.563   7.784  1.1166 -1.0780 -2.3491
  115OSM   C13F12055   5.578   4.733   7.896 -0.0525 -0.0911 -0.0427
  115OSM   H13F12056   5.495   4.798   7.861 -1.2647 -0.1100  2.6099
  115OSM   H13G12057   5.676   4.785   7.897  0.1417 -0.3182 -3.2387
  115OSM   C14F12058   5.541   4.681   8.034  0.3273  0.0159 -0.1934
  115OSM   H14F12059   5.432   4.662   8.051 -0.2555  2.1853 -1.2598
  115OSM   H14G12060   5.562   4.764   8.105 -1.0346 -0.6512  1.0183
  115OSM   C15F12061   5.631   4.571   8.083  0.2125  0.7514  0.6290
  115OSM   H15F12062   5.732   4.594   8.044  1.7480 -2.2595  2.6361
  115OSM   H15G12063   5.598   4.472   8.044  2.0177 -0.4221  1.9848
  115OSM   C16F12064   5.659   4.562   8.231 -1.0830 -0.7872  0.8011
  115OSM   H16F12065   5.711   4.652   8.270  0.5606 -0.8851 -1.0427
  115OSM   H16G12066   5.732   4.480   8.248  1.4143  0.6049 -2.5512
  115OSM   C17F12067   5.540   4.525   8.321  0.4314  0.7734  0.1408
  115OSM   H17F12068   5.500   4.430   8.279 -0.2133  1.7530 -1.4847
  115OSM   H17G12069   5.457   4.596   8.301 -0.2198 -0.0660 -0.1761
  115OSM   C18F12070   5.579   4.505   8.468 -0.4140 -0.4496 -0.3768
  115OSM   H18F12071   5.610   4.603   8.510  0.6073 -0.9602  0.0773
  115OSM   H18G12072   5.665   4.438   8.491 -0.1981 -0.5111 -1.3534
  115OSM   H18H12073   5.498   4.459   8.528 -1.7550  2.0521 -0.1763
  116OSM      N12074   4.214   2.068   6.474 -0.5077  0.2554  0.1163
  116OSM    C1512075   4.171   2.037   6.605 -0.9732  0.1956  0.3891
  116OSM   H15A12076   4.081   2.080   6.647 -0.2202  2.1177  0.1011
  116OSM   H15B12077   4.248   2.058   6.678  0.6973 -0.5228 -1.1341
  116OSM   H15C12078   4.163   1.930   6.614  1.3149  0.0919  1.5272
  116OSM    C1412079   4.096   2.098   6.385 -0.0668  0.2928  0.4915
  116OSM   H14A12080   4.128   2.131   6.287 -0.9238  1.1730  0.4991
  116OSM   H14B12081   4.034   2.178   6.423 -0.8691 -0.1915  0.2152
  116OSM   H14C12082   4.039   2.006   6.386 -0.9430  0.8206  2.7763
  116OSM    C1312083   4.294   2.193   6.486 -0.0101  0.7894  0.1024
  116OSM   H13A12084   4.242   2.276   6.533 -0.4957  0.6820 -0.2480
  116OSM   H13B12085   4.324   2.229   6.389 -0.8482  2.8706  0.5768
  116OSM   H13C12086   4.388   2.180   6.539 -1.7238 -1.1451  2.8236
  116OSM    C1212087   4.293   1.952   6.417 -0.7666  0.1825 -0.0211
  116OSM   H12A12088   4.354   1.910   6.495  1.0044  0.5000 -1.2141
  116OSM   H12B12089   4.362   1.981   6.339 -1.7363 -1.1659 -1.4094
  116OSM    C1112090   4.207   1.839   6.361 -0.9376  0.4349  0.3021
  116OSM   H11A12091   4.142   1.872   6.277  2.9157  2.1527 -2.1255
  116OSM   H11B12092   4.144   1.793   6.441 -0.3815 -2.2682 -0.7840
  116OSM      P12093   4.350   1.613   6.371  0.2571  0.1074  0.5584
  116OSM    O1312094   4.260   1.508   6.308  0.1590 -0.4478 -0.3856
  116OSM    O1412095   4.490   1.598   6.368 -0.7873  0.0826  0.1877
  116OSM    O1112096   4.307   1.628   6.522  0.0282 -0.0682 -0.1193
  116OSM    O1212097   4.306   1.749   6.309 -0.1979  0.2636  0.3710
  116OSM    C1S12098   4.335   1.528   6.625 -0.3341 -1.1741 -0.6808
  116OSM    H1S12099   4.434   1.480   6.611  0.0553  0.0070 -2.1757
  116OSM    H1T12100   4.255   1.451   6.628 -2.8434  1.3157 -1.5331
  116OSM     NF12101   4.400   1.500   6.874  0.2801  0.3700  0.7399
  116OSM    HNF12102   4.342   1.456   6.943 -0.4320  0.1385  0.0022
  116OSM    C2S12103   4.338   1.588   6.771  0.6675 -0.5176  0.4602
  116OSM    H2S12104   4.407   1.674   6.757 -0.3306  0.2009 -0.0755
  116OSM    C3S12105   4.197   1.637   6.810  0.5489 -0.5397 -0.6232
  116OSM    H3S12106   4.141   1.545   6.837  0.2984 -0.0974  0.3691
  116OSM     O312107   4.132   1.709   6.705  0.7466 -0.1143  0.0504
  116OSM    HO312108   4.198   1.693   6.637 -0.3080 -0.2139 -0.9556
  116OSM    C4S12109   4.205   1.726   6.935  0.4341  0.2926  1.5068
  116OSM    H4S12110   4.237   1.658   7.015  3.3820  1.7033  1.5834
  116OSM    C5S12111   4.205   1.860   6.946 -0.1960  0.6137  0.1443
  116OSM    H5S12112   4.188   1.924   6.858 -0.4852  1.7906  1.0402
  116OSM    C6S12113   4.217   1.939   7.076  0.3320  0.0405 -0.0785
  116OSM    H6S12114   4.168   2.038   7.063 -1.0804 -1.0149 -3.2503
  116OSM    H6T12115   4.320   1.967   7.106 -0.7605  0.5841  3.3273
  116OSM    C7S12116   4.152   1.869   7.197  0.4808 -0.5912  0.0709
  116OSM    H7S12117   4.186   1.765   7.214 -2.7145 -1.4841  1.4178
  116OSM    H7T12118   4.043   1.854   7.179  0.4903 -0.1551 -0.3599
  116OSM    C8S12119   4.162   1.961   7.315 -0.2845 -0.2456 -0.0028
  116OSM    H8S12120   4.107   2.056   7.297 -0.9138 -0.5649  0.2162
  116OSM    H8T12121   4.270   1.982   7.335  0.0092 -0.5655 -1.1992
  116OSM    C9S12122   4.085   1.909   7.437 -0.6712  0.4734 -0.7069
  116OSM    H9S12123   4.130   1.812   7.466 -0.7268  0.6687  0.0417
  116OSM    H9T12124   3.989   1.879   7.389 -0.0368  1.8443 -2.9002
  116OSM   C10S12125   4.051   2.011   7.551 -0.2779 -0.1872 -0.1501
  116OSM   H10S12126   3.995   2.095   7.504 -1.3244 -0.2438  0.9936
  116OSM   H10T12127   4.143   2.049   7.602  0.0857  0.6565 -1.4010
  116OSM   C11S12128   3.970   1.952   7.664  0.0867  0.0249 -0.1857
  116OSM   H11S12129   4.031   1.862   7.686 -0.2177 -0.2587 -0.5023
  116OSM   H11T12130   3.863   1.927   7.648  0.5003 -1.9875  0.0324
  116OSM   C12S12131   3.975   2.040   7.797 -0.5602  0.4984 -0.2459
  116OSM   H12S12132   3.917   2.131   7.769 -1.9012  0.3040  1.7455
  116OSM   H12T12133   4.080   2.068   7.819  0.1118 -0.6996 -1.8570
  116OSM   C13S12134   3.911   1.969   7.914  0.3823 -0.0090  0.4512
  116OSM   H13S12135   3.962   1.873   7.939  0.6352 -0.5147 -1.8806
  116OSM   H13T12136   3.809   1.954   7.874  1.6350  0.1200 -2.9928
  116OSM   C14S12137   3.905   2.064   8.031  0.1942 -0.4136 -0.0204
  116OSM   H14S12138   3.855   2.157   7.996  0.2287  0.1145  1.3140
  116OSM   H14T12139   4.009   2.096   8.052 -0.5961  0.6497  2.4057
  116OSM   C15S12140   3.825   2.006   8.151 -0.3878 -0.9571  0.2360
  116OSM   H15S12141   3.867   1.904   8.163  2.3584 -0.3352 -3.2444
  116OSM   H15T12142   3.717   2.010   8.125  0.3091  1.4995 -2.6511
  116OSM   C16S12143   3.856   2.087   8.286  0.4049  0.1078 -0.7284
  116OSM   H16S12144   3.858   2.197   8.271  0.2587  0.6780  2.9366
  116OSM   H16T12145   3.960   2.058   8.312  0.6540  0.4700 -1.3320
  116OSM   C17S12146   3.768   2.039   8.399 -0.0739 -0.5717 -0.8608
  116OSM   H17S12147   3.806   1.937   8.420 -0.3922 -0.5442 -0.1360
  116OSM   H17T12148   3.663   2.017   8.372  0.5425 -0.6321 -3.3045
  116OSM   C18S12149   3.792   2.110   8.535  0.2092 -0.1757  0.0325
  116OSM   H18S12150   3.728   2.067   8.616  0.0334 -3.1865 -1.6037
  116OSM   H18T12151   3.752   2.212   8.519 -0.3356 -0.6007 -1.4328
  116OSM   H18U12152   3.897   2.131   8.561  0.1258  1.5293 -0.9543
  116OSM    C1F12153   4.533   1.472   6.880  0.2253  0.3702 -0.1862
  116OSM     OF12154   4.612   1.495   6.790 -0.3114  0.2615  0.1887
  116OSM    C2F12155   4.573   1.390   6.998  1.3034  0.6655 -0.0155
  116OSM    H2F12156   4.508   1.301   6.989  2.3116  0.1711 -2.7378
  116OSM    H2G12157   4.544   1.429   7.098 -0.4391 -0.2234 -0.1560
  116OSM    C3F12158   4.715   1.349   6.987  0.9095 -0.0521  0.7170
  116OSM    H3F12159   4.768   1.447   6.984 -0.8008  0.8598 -0.7284
  116OSM    H3G12160   4.723   1.288   6.895  1.5259  0.2815  0.5478
  116OSM    C4F12161   4.774   1.281   7.109 -0.0412 -0.9504 -0.2991
  116OSM    H4F12162   4.881   1.265   7.083  0.3397  1.5939 -0.4534
  116OSM    H4G12163   4.727   1.182   7.126  1.8289 -1.4165  2.5465
  116OSM    C5F12164   4.759   1.358   7.244 -0.2785 -0.3003 -0.2291
  116OSM    H5F12165   4.658   1.357   7.290 -0.1181 -1.5090  0.0987
  116OSM    H5G12166   4.777   1.466   7.226  0.0673 -0.6551 -2.1158
  116OSM    C6F12167   4.850   1.312   7.357  0.0217 -0.1643 -0.4213
  116OSM    H6F12168   4.955   1.311   7.321 -0.0087  3.1886 -0.7758
  116OSM    H6G12169   4.822   1.214   7.402  0.7555  0.1067  0.6297
  116OSM    C7F12170   4.856   1.423   7.466  0.4855 -0.6864  0.3155
  116OSM    H7F12171   4.754   1.440   7.507 -0.3396 -2.6537 -0.8485
  116OSM    H7G12172   4.882   1.518   7.414  1.0135 -0.3467  1.1880
  116OSM    C8F12173   4.951   1.395   7.584 -0.1054 -0.0315  0.7676
  116OSM    H8F12174   4.969   1.493   7.633  0.5003  0.1964  0.0944
  116OSM    H8G12175   5.053   1.355   7.562 -0.8574 -2.4533  1.4962
  116OSM    C9F12176   4.886   1.293   7.678  0.0246  0.4232  0.5064
  116OSM    H9F12177   4.837   1.208   7.628  0.4210  0.8496 -0.6242
  116OSM   C10F12178   4.870   1.322   7.805 -0.2789 -0.7457 -0.7819
  116OSM   H10F12179   4.822   1.253   7.875  0.9521  2.6936  3.6741
  116OSM   C11F12180   4.928   1.439   7.882  0.1455  0.3822 -0.0645
  116OSM   H11F12181   4.866   1.529   7.863 -1.7663 -0.5780  1.4322
  116OSM   H11G12182   5.029   1.463   7.844  0.9306  0.2777  1.8802
  116OSM   C12F12183   4.936   1.406   8.029  0.3599 -0.1190 -0.1360
  116OSM   H12F12184   4.994   1.485   8.079 -1.1522  0.5716  0.5399
  116OSM   H12G12185   4.981   1.304   8.032 -0.4716 -0.4540  1.4467
  116OSM   C13F12186   4.814   1.396   8.117  0.4298  0.4836 -0.8162
  116OSM   H13F12187   4.731   1.332   8.079  1.6795 -3.6472  2.9185
  116OSM   H13G12188   4.778   1.501   8.118  0.5575  0.5371  2.2360
  116OSM   C14F12189   4.835   1.369   8.274 -0.0998 -0.1253  0.1271
  116OSM   H14F12190   4.919   1.433   8.309 -2.1254  1.9426  1.3190
  116OSM   H14G12191   4.868   1.265   8.292 -0.7346 -0.1324  1.2985
  116OSM   C15F12192   4.703   1.386   8.351  0.0368 -0.6959  0.0423
  116OSM   H15F12193   4.629   1.327   8.293 -0.0118  1.5108 -2.2219
  116OSM   H15G12194   4.646   1.482   8.348  1.4924  0.2316  1.1778
  116OSM   C16F12195   4.703   1.333   8.491  0.2594 -0.7510 -0.1099
  116OSM   H16F12196   4.776   1.390   8.553  1.1329 -0.1964 -1.6311
  116OSM   H16G12197   4.738   1.228   8.483  1.7928 -0.2929  0.2574
  116OSM   C17F12198   4.561   1.333   8.551 -0.0476 -0.2279 -0.3479
  116OSM   H17F12199   4.499   1.283   8.473  0.1158 -0.7306 -0.1612
  116OSM   H17G12200   4.530   1.438   8.567  0.6758  0.2844 -2.2718
  116OSM   C18F12201   4.552   1.247   8.674 -0.2006  0.1187 -0.3924
  116OSM   H18F12202   4.607   1.283   8.763  0.9524 -0.3306 -0.9128
  116OSM   H18G12203   4.580   1.140   8.662 -4.0412 -1.3143  2.4122
  116OSM   H18H12204   4.445   1.240   8.704  0.5004  0.4362  2.2961
  117OSM      N12205   3.948   3.409   6.307  0.3348  0.6780 -0.4380
  117OSM    C1512206   3.810   3.362   6.313  0.2211 -0.5982 -0.4939
  117OSM   H15A12207   3.815   3.257   6.336  0.0387 -1.2577 -3.2488
  117OSM   H15B12208   3.757   3.385   6.222 -0.5983  0.8824  0.3340
  117OSM   H15C12209   3.756   3.401   6.398  0.4102 -2.8765  0.6965
  117OSM    C1412210   4.019   3.374   6.430  0.1822  0.5290 -0.3736
  117OSM   H14A12211   3.986   3.431   6.516 -2.2851  0.2978 -1.1455
  117OSM   H14B12212   4.126   3.389   6.429  0.2647 -0.1285 -2.4567
  117OSM   H14C12213   4.005   3.271   6.460  0.1027  1.6550  3.7763
  117OSM    C1312214   4.017   3.336   6.194  0.7208 -0.1402  0.0008
  117OSM   H13A12215   3.960   3.336   6.102  1.6473 -0.8183 -0.5870
  117OSM   H13B12216   4.025   3.230   6.211  0.2531 -0.2805 -0.6526
  117OSM   H13C12217   4.112   3.378   6.164  0.2439  0.5441 -0.5675
  117OSM    C1212218   3.944   3.552   6.265  0.0746  0.2439 -0.3548
  117OSM   H12A12219   3.867   3.557   6.189  1.2314 -0.0722 -1.5609
  117OSM   H12B12220   4.033   3.577   6.210  0.7296  0.4596  0.8047
  117OSM    C1112221   3.914   3.652   6.377  0.6518  0.2861 -0.5459
  117OSM   H11A12222   3.925   3.755   6.335  0.0336  0.8148  0.5670
  117OSM   H11B12223   3.998   3.642   6.448  0.5212  0.6332 -0.3440
  117OSM      P12224   3.660   3.682   6.399  0.4960  0.0259 -0.0634
  117OSM    O1312225   3.624   3.805   6.467  0.0813 -0.2329 -0.4252
  117OSM    O1412226   3.663   3.686   6.254  0.4799  0.4600  0.0204
  117OSM    O1112227   3.547   3.580   6.450  0.3917  0.2607  0.7552
  117OSM    O1212228   3.794   3.625   6.456  0.1833 -0.6667  0.7132
  117OSM    C1S12229   3.551   3.541   6.585  0.9404 -0.3984 -0.3339
  117OSM    H1S12230   3.652   3.517   6.625  0.2874 -0.0211  1.5901
  117OSM    H1T12231   3.489   3.449   6.596 -0.5438  0.6320  0.0219
  117OSM     NF12232   3.462   3.588   6.807 -0.5125  0.1089  0.5051
  117OSM    HNF12233   3.379   3.533   6.813 -0.5892  0.0281 -1.1075
  117OSM    C2S12234   3.475   3.643   6.673 -0.0024  0.4176 -0.3129
  117OSM    H2S12235   3.528   3.740   6.684 -1.5962  1.3552 -0.7722
  117OSM    C3S12236   3.340   3.689   6.609  0.5594  0.2655 -0.4294
  117OSM    H3S12237   3.276   3.599   6.597  0.7737  0.0883 -0.2385
  117OSM     O312238   3.340   3.764   6.488 -0.1214 -0.2782 -0.3678
  117OSM    HO312239   3.431   3.786   6.465 -1.1227  1.9973 -2.4253
  117OSM    C4S12240   3.272   3.766   6.719  0.2688 -0.1807  0.3860
  117OSM    H4S12241   3.221   3.701   6.793 -1.8314 -1.3490 -2.0054
  117OSM    C5S12242   3.267   3.896   6.744 -0.6610 -0.3549 -0.5146
  117OSM    H5S12243   3.305   3.970   6.671  0.1526  0.2283  0.4901
  117OSM    C6S12244   3.199   3.955   6.864  0.8206 -0.2421  0.0180
  117OSM    H6S12245   3.096   3.988   6.841  1.0233  1.2281  1.1467
  117OSM    H6T12246   3.259   4.044   6.891  2.0021 -0.9922 -0.0801
  117OSM    C7S12247   3.202   3.872   6.995  0.2632 -0.4371 -0.1400
  117OSM    H7S12248   3.310   3.853   7.015  0.8576  1.5632 -1.2792
  117OSM    H7T12249   3.149   3.775   6.981  1.3457 -0.9391 -0.8623
  117OSM    C8S12250   3.130   3.945   7.110  0.0880  0.1924 -0.1055
  117OSM    H8S12251   3.035   3.963   7.055  1.0963  0.1477 -1.8991
  117OSM    H8T12252   3.174   4.046   7.124  1.5802 -0.4613 -0.0349
  117OSM    C9S12253   3.115   3.858   7.234 -0.3464 -1.0002 -1.0256
  117OSM    H9S12254   3.086   3.753   7.209  3.4235 -2.2252 -0.6082
  117OSM    H9T12255   3.038   3.905   7.299  0.9743  0.8038 -0.7523
  117OSM   C10S12256   3.235   3.872   7.330  0.7862 -0.1547  0.7927
  117OSM   H10S12257   3.234   3.973   7.378  0.1517 -0.9781  2.5721
  117OSM   H10T12258   3.329   3.871   7.271  0.3868  3.3346 -0.0103
  117OSM   C11S12259   3.222   3.771   7.444  0.5843  0.2764  0.5029
  117OSM   H11S12260   3.328   3.743   7.458  0.8668 -1.3484 -3.8987
  117OSM   H11T12261   3.172   3.683   7.399 -0.0452  0.9033 -0.0555
  117OSM   C12S12262   3.157   3.819   7.569 -0.3539 -0.3837 -0.3697
  117OSM   H12S12263   3.047   3.836   7.561 -0.2114  1.0935  0.6238
  117OSM   H12T12264   3.199   3.918   7.597 -0.7945 -0.3899  0.3121
  117OSM   C13S12265   3.189   3.725   7.694 -0.9656  0.2124 -0.2403
  117OSM   H13S12266   3.297   3.706   7.709 -0.9108 -0.6140 -1.5753
  117OSM   H13T12267   3.137   3.628   7.680 -0.5474 -0.1221  0.4991
  117OSM   C14S12268   3.156   3.796   7.818 -0.8944  0.1962  0.2314
  117OSM   H14S12269   3.053   3.837   7.810 -1.5970 -1.5467  0.1368
  117OSM   H14T12270   3.230   3.877   7.835 -2.0031  1.5113 -1.1177
  117OSM   C15S12271   3.155   3.702   7.936  0.3947 -0.0453 -0.4471
  117OSM   H15S12272   3.260   3.672   7.955  0.1353 -0.1433  0.8579
  117OSM   H15T12273   3.099   3.614   7.898  0.3164 -0.7467  1.2665
  117OSM   C16S12274   3.091   3.757   8.073 -0.4625 -1.1282  0.5384
  117OSM   H16S12275   3.068   3.672   8.141 -2.6343  1.5068  3.2328
  117OSM   H16T12276   2.996   3.811   8.055 -1.8392 -3.2985  1.1098
  117OSM   C17S12277   3.195   3.859   8.138  0.4729  0.7769 -0.2609
  117OSM   H17S12278   3.249   3.923   8.064  1.7860 -0.6725 -0.6064
  117OSM   H17T12279   3.280   3.797   8.175  0.1415 -1.5434 -3.1260
  117OSM   C18S12280   3.133   3.943   8.246  0.1465  0.2152 -0.2266
  117OSM   H18S12281   3.199   4.029   8.271  0.3457  0.2961 -1.0235
  117OSM   H18T12282   3.118   3.896   8.346 -1.0684  0.0803 -0.4752
  117OSM   H18U12283   3.032   3.983   8.224 -0.5428  0.2290  2.7244
  117OSM    C1F12284   3.579   3.562   6.874  0.1499  0.5709 -0.2029
  117OSM     OF12285   3.680   3.628   6.837  0.1835 -0.6482  0.6899
  117OSM    C2F12286   3.583   3.448   6.974  0.4442  0.2733  0.1008
  117OSM    H2F12287   3.680   3.402   6.946  1.9684  3.9524 -0.9013
  117OSM    H2G12288   3.500   3.376   6.954  0.2008  0.4650  0.4042
  117OSM    C3F12289   3.581   3.492   7.126  0.2655  0.2229 -0.1663
  117OSM    H3F12290   3.481   3.527   7.158  0.0770  0.3678 -0.9072
  117OSM    H3G12291   3.654   3.576   7.127 -0.3268  0.7423 -0.5535
  117OSM    C4F12292   3.620   3.377   7.219  0.3478  0.8262 -0.7206
  117OSM    H4F12293   3.720   3.337   7.193 -0.0439 -1.1011  0.6287
  117OSM    H4G12294   3.557   3.287   7.205 -1.0043  1.5133  0.8075
  117OSM    C5F12295   3.613   3.407   7.369  0.4247  0.6720  0.2434
  117OSM    H5F12296   3.660   3.507   7.380  1.0652  0.2644  1.2795
  117OSM    H5G12297   3.680   3.339   7.426  0.8606 -0.4515 -1.5842
  117OSM    C6F12298   3.471   3.410   7.426 -0.2263  0.1765 -0.4567
  117OSM    H6F12299   3.405   3.465   7.356  0.2750  0.2570 -0.8718
  117OSM    H6G12300   3.469   3.465   7.522 -2.4706  1.3669 -1.1608
  117OSM    C7F12301   3.413   3.276   7.471 -0.2627 -0.0604  0.0401
  117OSM    H7F12302   3.397   3.222   7.376  0.3425 -1.1799  0.5688
  117OSM    H7G12303   3.316   3.302   7.519  0.4975  0.8969  1.1161
  117OSM    C8F12304   3.488   3.184   7.576  0.6798  1.3817  0.5719
  117OSM    H8F12305   3.507   3.235   7.673  0.8336  1.2191  0.6270
  117OSM    H8G12306   3.586   3.154   7.534  0.2687 -0.5561  0.9507
  117OSM    C9F12307   3.411   3.055   7.599 -0.0453 -0.4099  0.5917
  117OSM    H9F12308   3.315   3.056   7.547  1.4468 -0.9111 -2.2947
  117OSM   C10F12309   3.438   2.952   7.675 -0.8277 -0.1902 -0.7675
  117OSM   H10F12310   3.360   2.875   7.681 -0.1888 -0.7429  0.9829
  117OSM   C11F12311   3.565   2.934   7.761 -0.1230 -0.3701  0.2779
  117OSM   H11F12312   3.634   3.021   7.760  1.3664 -1.5456 -0.1820
  117OSM   H11G12313   3.625   2.843   7.739  0.1766  0.1180 -0.9872
  117OSM   C12F12314   3.526   2.910   7.908 -0.7367  0.6930  0.2665
  117OSM   H12F12315   3.455   2.826   7.927 -0.9828  0.4922 -1.5347
  117OSM   H12G12316   3.477   3.005   7.939  1.9423  2.1804  0.1284
  117OSM   C13F12317   3.652   2.905   8.005  0.2067  0.9406  0.0016
  117OSM   H13F12318   3.702   3.004   7.997  2.6111 -0.2173  0.2958
  117OSM   H13G12319   3.726   2.828   7.975 -0.2755 -0.3875  2.1500
  117OSM   C14F12320   3.621   2.867   8.147  0.4123  0.2989 -0.5815
  117OSM   H14F12321   3.555   2.778   8.157 -0.1211  0.7358 -0.2245
  117OSM   H14G12322   3.562   2.947   8.195  2.5297  1.4572  0.1742
  117OSM   C15F12323   3.749   2.848   8.232 -0.1881  0.6732  0.1098
  117OSM   H15F12324   3.815   2.779   8.176 -4.5562 -0.8033 -3.5061
  117OSM   H15G12325   3.719   2.809   8.332  2.4341 -1.9252 -0.0439
  117OSM   C16F12326   3.838   2.971   8.242 -0.3127  0.9161  0.6025
  117OSM   H16F12327   3.770   3.052   8.273  1.0302  1.8774  1.0967
  117OSM   H16G12328   3.877   2.992   8.140 -0.7141 -0.9142  0.0555
  117OSM   C17F12329   3.959   2.965   8.336  0.5897 -0.0883  0.6431
  117OSM   H17F12330   4.008   2.868   8.313  2.4333  1.4934 -2.4503
  117OSM   H17G12331   4.025   3.046   8.300  0.4896  0.4811  1.7323
  117OSM   C18F12332   3.936   2.969   8.490  0.1184 -0.5143  0.2820
  117OSM   H18F12333   3.869   3.054   8.516  0.1666 -0.8987  1.7578
  117OSM   H18G12334   4.032   2.968   8.546  0.7741  1.3930 -0.7486
  117OSM   H18H12335   3.887   2.871   8.507  2.0088 -1.6450 -0.5822
  118OSM      N12336   5.862   6.159   6.001  0.1325 -0.5493 -0.0574
  118OSM    C1512337   5.763   6.051   6.019  0.4550  0.3983 -0.3746
  118OSM   H15A12338   5.817   5.965   6.056  0.9722  1.2738  0.9414
  118OSM   H15B12339   5.725   6.020   5.923 -2.4578 -0.0132  0.8431
  118OSM   H15C12340   5.685   6.076   6.090  0.3999  1.1340 -0.6896
  118OSM    C1412341   5.969   6.107   5.913  0.2650 -0.1694 -0.0605
  118OSM   H14A12342   6.021   6.180   5.852  1.9001  0.8442  2.4334
  118OSM   H14B12343   5.923   6.036   5.846  2.0074 -2.8543  1.4817
  118OSM   H14C12344   6.052   6.064   5.969  1.6526  0.6002 -1.4833
  118OSM    C1312345   5.793   6.265   5.921 -0.1897 -0.5636 -0.4014
  118OSM   H13A12346   5.731   6.328   5.982  0.2068 -2.6081  2.1780
  118OSM   H13B12347   5.727   6.227   5.844 -0.2092 -0.7994 -0.2692
  118OSM   H13C12348   5.864   6.329   5.870  2.6081 -1.6882  1.9208
  118OSM    C1212349   5.907   6.211   6.132  0.1404  0.1150 -0.3318
  118OSM   H12A12350   5.991   6.278   6.119  0.0621  0.4199  0.6624
  118OSM   H12B12351   5.933   6.124   6.190  0.8532  0.7874  0.3612
  118OSM    C1112352   5.804   6.277   6.219  0.2126 -0.3149 -0.1587
  118OSM   H11A12353   5.763   6.361   6.159 -1.3390 -0.4086  0.7457
  118OSM   H11B12354   5.850   6.320   6.311 -1.1089  1.9189 -0.5185
  118OSM      P12355   5.548   6.228   6.263 -0.1594  0.1421 -0.1254
  118OSM    O1312356   5.537   6.372   6.251 -1.0118  0.3562 -0.4060
  118OSM    O1412357   5.481   6.147   6.161 -0.4200  0.2619  0.7759
  118OSM    O1112358   5.500   6.177   6.405 -0.6111  0.5965  0.4714
  118OSM    O1212359   5.697   6.190   6.263 -0.6002 -0.2752 -0.0807
  118OSM    C1S12360   5.598   6.137   6.507 -0.4402  0.5894 -0.1610
  118OSM    H1S12361   5.700   6.175   6.482 -0.8747  1.2701 -0.9103
  118OSM    H1T12362   5.607   6.027   6.510 -0.2749  0.6601  3.6745
  118OSM     NF12363   5.667   6.154   6.738  0.6937  0.3263  0.2692
  118OSM    HNF12364   5.634   6.099   6.815  0.3490 -0.5405 -0.4890
  118OSM    C2S12365   5.568   6.198   6.646 -0.2217 -0.0816  0.2923
  118OSM    H2S12366   5.580   6.308   6.638 -0.8210  0.0202  0.7104
  118OSM    C3S12367   5.424   6.160   6.680 -0.9316 -1.0653 -0.1999
  118OSM    H3S12368   5.403   6.051   6.677 -1.0486 -1.0290 -0.6472
  118OSM     O312369   5.328   6.219   6.595 -0.0643 -0.2722 -0.0330
  118OSM    HO312370   5.390   6.250   6.529  0.1698  1.1046  0.8134
  118OSM    C4S12371   5.396   6.210   6.817 -0.4031  0.0008 -0.5825
  118OSM    H4S12372   5.427   6.130   6.886 -1.0934 -0.1079 -0.3940
  118OSM    C5S12373   5.346   6.324   6.872  1.0113 -0.8595  0.0038
  118OSM    H5S12374   5.309   6.394   6.796  1.1170 -0.2243  0.5318
  118OSM    C6S12375   5.328   6.345   7.014 -0.6645 -0.0149  0.0114
  118OSM    H6S12376   5.219   6.360   7.024 -0.8493 -0.8410 -0.7477
  118OSM    H6T12377   5.362   6.450   7.031 -2.0838  0.5856 -0.7800
  118OSM    C7S12378   5.385   6.242   7.117  0.3327  0.4679 -0.5217
  118OSM    H7S12379   5.495   6.235   7.100  0.6045  4.8780 -1.2666
  118OSM    H7T12380   5.353   6.141   7.084 -0.8898  0.9400 -0.8034
  118OSM    C8S12381   5.336   6.257   7.261  0.2048  0.3262 -0.4360
  118OSM    H8S12382   5.380   6.173   7.320  0.8020 -0.5482 -2.0915
  118OSM    H8T12383   5.225   6.250   7.262  0.0904  1.9819 -0.4227
  118OSM    C9S12384   5.378   6.387   7.327 -0.3787  0.3530  0.0946
  118OSM    H9S12385   5.344   6.476   7.271  0.4171  1.7771  1.8262
  118OSM    H9T12386   5.489   6.386   7.319 -0.3228  0.7945  0.8826
  118OSM   C10S12387   5.316   6.408   7.465 -0.2086  0.0655 -0.7268
  118OSM   H10S12388   5.213   6.368   7.455  0.5491 -1.8109 -1.1133
  118OSM   H10T12389   5.319   6.517   7.485 -0.0077 -0.1598  0.5247
  118OSM   C11S12390   5.375   6.339   7.584 -0.1386  0.2183  0.3305
  118OSM   H11S12391   5.481   6.370   7.589  0.1528 -0.8867  1.3389
  118OSM   H11T12392   5.372   6.228   7.580  0.5581  0.1029  2.5776
  118OSM   C12S12393   5.293   6.370   7.711 -0.7381  0.3458  0.8026
  118OSM   H12S12394   5.230   6.284   7.741  0.1287 -0.1497  1.2149
  118OSM   H12T12395   5.227   6.456   7.685  0.8034  1.4379  0.4520
  118OSM   C13S12396   5.385   6.404   7.829  0.4745 -0.0430  0.1010
  118OSM   H13S12397   5.450   6.492   7.812 -2.1087  1.4990 -2.1503
  118OSM   H13T12398   5.441   6.312   7.855 -2.5462 -2.2039 -0.6809
  118OSM   C14S12399   5.288   6.434   7.952  0.2942  0.8984  0.0106
  118OSM   H14S12400   5.243   6.335   7.974 -0.3039  0.7576 -1.7293
  118OSM   H14T12401   5.210   6.510   7.927 -0.7219 -0.5221 -1.2525
  118OSM   C15S12402   5.364   6.478   8.074 -0.1253 -0.4569  0.0136
  118OSM   H15S12403   5.427   6.567   8.052 -1.1976  0.4783  0.6457
  118OSM   H15T12404   5.431   6.399   8.114  0.1414 -0.2275  0.0213
  118OSM   C16S12405   5.254   6.541   8.169 -0.1782  0.1871  0.2481
  118OSM   H16S12406   5.180   6.462   8.192  2.3191 -2.2750  0.1232
  118OSM   H16T12407   5.199   6.612   8.104 -0.0776  1.7842  1.8739
  118OSM   C17S12408   5.311   6.616   8.289  0.2763 -0.9107  0.6669
  118OSM   H17S12409   5.394   6.684   8.259 -0.3972 -1.0575 -1.6598
  118OSM   H17T12410   5.344   6.534   8.356  1.2306 -0.1049  1.1984
  118OSM   C18S12411   5.197   6.694   8.362  0.1699 -0.3284 -0.1500
  118OSM   H18S12412   5.152   6.759   8.284  1.2996  0.3177 -0.2867
  118OSM   H18T12413   5.239   6.766   8.435  0.7729 -0.1700 -0.6444
  118OSM   H18U12414   5.129   6.627   8.419 -0.8199  2.0608  1.5262
  118OSM    C1F12415   5.795   6.192   6.736  0.1200  0.3608  0.5908
  118OSM     OF12416   5.837   6.279   6.656 -1.1201 -0.1908  0.6190
  118OSM    C2F12417   5.887   6.132   6.838  0.1004  0.1383 -0.2608
  118OSM    H2F12418   5.928   6.036   6.801 -2.6600  0.7609 -5.4332
  118OSM    H2G12419   5.821   6.124   6.927  0.0676 -0.3700 -0.3328
  118OSM    C3F12420   6.003   6.224   6.868 -0.6740 -0.0776  0.5807
  118OSM    H3F12421   6.050   6.238   6.768 -1.1095  0.6118  0.4711
  118OSM    H3G12422   6.073   6.169   6.935 -0.3569 -0.0302  0.2866
  118OSM    C4F12423   5.967   6.359   6.941  0.7101 -0.1926  0.9977
  118OSM    H4F12424   5.883   6.414   6.892  0.0020 -2.6904 -0.6739
  118OSM    H4G12425   6.057   6.423   6.944  1.5044 -1.2237 -0.3977
  118OSM    C5F12426   5.929   6.321   7.088  0.0083  0.3337 -0.1500
  118OSM    H5F12427   6.016   6.264   7.128  0.2163  1.6549  1.3178
  118OSM    H5G12428   5.840   6.254   7.089 -0.5078  1.0161 -0.5424
  118OSM    C6F12429   5.898   6.432   7.171  0.0453  0.3033 -0.4656
  118OSM    H6F12430   5.835   6.493   7.103 -1.5583  0.8056  1.4406
  118OSM    H6G12431   5.987   6.491   7.202 -0.7718  0.7014  1.1429
  118OSM    C7F12432   5.831   6.381   7.300 -0.2967 -0.2951  0.2540
  118OSM    H7F12433   5.910   6.339   7.366  0.1791 -2.2426 -1.5200
  118OSM    H7G12434   5.753   6.308   7.272 -0.6809  1.0980 -2.4924
  118OSM    C8F12435   5.762   6.497   7.381  0.0620 -0.4098  0.1721
  118OSM    H8F12436   5.697   6.443   7.452  0.0766 -1.3577 -0.5245
  118OSM    H8G12437   5.693   6.557   7.319  1.3907  1.4423  0.4112
  118OSM    C9F12438   5.869   6.587   7.440  0.2854 -0.5056  0.2141
  118OSM    H9F12439   5.906   6.665   7.371  1.4481 -0.0212  1.3764
  118OSM   C10F12440   5.915   6.575   7.565 -1.0267  0.4017 -0.3824
  118OSM   H10F12441   6.001   6.636   7.598 -0.1068 -1.2544  0.3293
  118OSM   C11F12442   5.878   6.467   7.664  0.5596 -0.0411 -0.1577
  118OSM   H11F12443   5.976   6.420   7.687  0.0934 -0.0674  1.8860
  118OSM   H11G12444   5.808   6.393   7.621  0.3149  0.0827  0.0282
  118OSM   C12F12445   5.826   6.530   7.789  1.0259 -0.3279 -0.9463
  118OSM   H12F12446   5.717   6.550   7.777  0.1906 -4.2475 -0.5143
  118OSM   H12G12447   5.884   6.619   7.821 -1.7976  0.5821  1.9694
  118OSM   C13F12448   5.824   6.436   7.911 -0.5133  0.3104 -0.6853
  118OSM   H13F12449   5.922   6.395   7.946 -1.6012  0.1952  2.3831
  118OSM   H13G12450   5.764   6.350   7.874 -0.1104 -1.2590  2.0979
  118OSM   C14F12451   5.759   6.495   8.033 -0.2309  0.0342 -0.3735
  118OSM   H14F12452   5.675   6.566   8.018 -1.3559 -1.7446 -2.7953
  118OSM   H14G12453   5.842   6.558   8.073  0.7431 -1.5284  0.1312
  118OSM   C15F12454   5.724   6.394   8.144  0.3965  0.3324 -1.1827
  118OSM   H15F12455   5.807   6.320   8.151  0.6315  0.6713 -0.2971
  118OSM   H15G12456   5.632   6.337   8.120 -1.8810  1.4068  4.4406
  118OSM   C16F12457   5.703   6.467   8.274  0.1431  0.2043 -0.0381
  118OSM   H16F12458   5.616   6.535   8.258 -0.6312 -0.5116  1.0285
  118OSM   H16G12459   5.796   6.525   8.290  1.0860 -1.1611 -0.5120
  118OSM   C17F12460   5.688   6.381   8.398 -0.8161 -0.0571  0.1152
  118OSM   H17F12461   5.774   6.312   8.407 -1.3614 -0.6147  1.1135
  118OSM   H17G12462   5.592   6.329   8.379 -1.0806  0.7744 -0.8573
  118OSM   C18F12463   5.693   6.459   8.524 -0.0723  0.2146  0.5397
  118OSM   H18F12464   5.690   6.391   8.612 -0.9634  1.6649  1.6582
  118OSM   H18G12465   5.617   6.539   8.535 -0.7873 -0.6113  1.6695
  118OSM   H18H12466   5.792   6.510   8.531 -1.0193  2.0558  0.8855
  119OSM      N12467   0.338   5.475   5.581  0.3911  0.5635 -0.3185
  119OSM    C1512468   0.343   5.619   5.530  0.2704  0.0269 -0.1113
  119OSM   H15A12469   0.415   5.686   5.573  0.1882  0.8802 -1.2743
  119OSM   H15B12470   0.246   5.662   5.548 -0.5233 -1.1978 -1.3224
  119OSM   H15C12471   0.356   5.613   5.423  0.6727 -4.0891  0.0987
  119OSM    C1412472   0.223   5.390   5.515 -0.1855 -0.0234 -0.3126
  119OSM   H14A12473   0.234   5.284   5.531 -1.9753 -0.4880 -1.9330
  119OSM   H14B12474   0.209   5.397   5.408  0.4066  1.8825 -0.2902
  119OSM   H14C12475   0.125   5.419   5.551 -0.8425 -1.8011 -0.6083
  119OSM    C1312476   0.462   5.402   5.551 -0.3784  0.5269  0.6515
  119OSM   H13A12477   0.548   5.461   5.579  1.6573 -1.6259 -0.8218
  119OSM   H13B12478   0.466   5.379   5.446  0.1094  2.6337  0.1890
  119OSM   H13C12479   0.470   5.313   5.611 -0.6856  0.5283  0.6974
  119OSM    C1212480   0.313   5.471   5.730  0.1831 -0.4646  0.4988
  119OSM   H12A12481   0.218   5.520   5.748 -0.8627 -2.8844  1.7138
  119OSM   H12B12482   0.381   5.535   5.785  1.4591 -1.4427  0.0869
  119OSM    C1112483   0.300   5.332   5.802 -0.1455  0.0837  1.3479
  119OSM   H11A12484   0.297   5.357   5.911  0.1976  1.1234  1.1245
  119OSM   H11B12485   0.396   5.282   5.780 -0.1242  0.7670 -0.1455
  119OSM      P12486   0.032   5.299   5.803 -0.3727  0.0083  0.2136
  119OSM    O1312487  -0.027   5.359   5.681  0.2611 -0.5295  0.4000
  119OSM    O1412488  -0.036   5.188   5.870 -0.4441  0.9802 -0.2834
  119OSM    O1112489   0.053   5.414   5.908 -0.2595  0.5630 -0.4739
  119OSM    O1212490   0.178   5.254   5.770 -0.2600  0.2546 -0.1103
  119OSM    C1S12491   0.043   5.380   6.047  0.3372  0.3064 -0.5818
  119OSM    H1S12492   0.107   5.290   6.063 -0.9700 -0.8808 -1.8449
  119OSM    H1T12493  -0.060   5.349   6.073  1.1581  0.2542  2.8690
  119OSM     NF12494   0.085   5.457   6.289 -0.0732  0.1728 -0.5776
  119OSM    HNF12495  -0.004   5.469   6.334 -0.0760  0.9962 -0.7882
  119OSM    C2S12496   0.090   5.492   6.147 -0.4186 -0.1985 -0.1162
  119OSM    H2S12497   0.193   5.524   6.124  0.2565 -1.6610  0.8385
  119OSM    C3S12498   0.005   5.625   6.125  0.0693  0.1976 -0.2866
  119OSM    H3S12499  -0.103   5.609   6.145  0.3991  0.9371  2.1970
  119OSM     O312500  -0.003   5.666   5.991 -0.0481 -0.0394  0.3217
  119OSM    HO312501   0.038   5.600   5.935  1.0238 -1.0520  2.2417
  119OSM    C4S12502   0.054   5.735   6.222 -0.5641 -0.3074  0.8500
  119OSM    H4S12503   0.162   5.743   6.238 -0.4375 -0.2132 -0.0308
  119OSM    C5S12504  -0.031   5.821   6.282 -1.6411  0.1869 -0.9066
  119OSM    H5S12505  -0.139   5.815   6.258 -1.4586 -0.5213 -1.5730
  119OSM    C6S12506   0.008   5.928   6.379 -0.9195 -0.5013  0.5996
  119OSM    H6S12507   0.003   6.029   6.335  0.4219 -0.9192 -0.5567
  119OSM    H6T12508   0.114   5.909   6.408 -1.3712 -2.0456  1.3369
  119OSM    C7S12509  -0.063   5.933   6.514 -0.5759  1.2994 -0.1412
  119OSM    H7S12510   0.017   5.974   6.579 -0.1393 -0.9927  0.8039
  119OSM    H7T12511  -0.078   5.828   6.545 -0.6608  1.0131 -1.1155
  119OSM    C8S12512  -0.193   6.001   6.526  0.1242 -0.6404 -0.1029
  119OSM    H8S12513  -0.264   6.008   6.441  0.9677  2.8769 -0.6318
  119OSM    H8T12514  -0.154   6.104   6.543  4.1431 -2.4188  2.2530
  119OSM    C9S12515  -0.281   5.956   6.651 -0.3307 -0.4488  0.0397
  119OSM    H9S12516  -0.325   5.856   6.636 -0.6136 -0.1694 -1.0537
  119OSM    H9T12517  -0.370   6.022   6.657  0.6303  0.9386 -0.6149
  119OSM   C10S12518  -0.198   5.966   6.783 -0.5208  0.3739 -0.1899
  119OSM   H10S12519  -0.158   6.069   6.794 -1.2628  0.7685 -1.1867
  119OSM   H10T12520  -0.110   5.899   6.785 -1.4217 -0.8060  0.3175
  119OSM   C11S12521  -0.300   5.937   6.898 -0.1180  0.6641  0.2700
  119OSM   H11S12522  -0.355   5.842   6.883 -1.9729  1.6173  0.8780
  119OSM   H11T12523  -0.377   6.017   6.903 -0.4295  0.3015  1.4964
  119OSM   C12S12524  -0.219   5.932   7.035  0.9656  0.0199  0.3805
  119OSM   H12S12525  -0.120   5.980   7.020 -0.1042  1.9657 -0.7237
  119OSM   H12T12526  -0.204   5.827   7.066  0.5412 -0.0223  0.4497
  119OSM   C13S12527  -0.295   6.012   7.141 -0.0569 -0.5347 -0.1492
  119OSM   H13S12528  -0.403   5.987   7.135 -1.2603  4.5244 -1.9083
  119OSM   H13T12529  -0.302   6.121   7.122 -2.2662 -0.7737 -0.9004
  119OSM   C14S12530  -0.234   5.994   7.283 -0.0079  0.2287  0.2439
  119OSM   H14S12531  -0.141   6.053   7.295  0.8128 -0.8750 -0.6452
  119OSM   H14T12532  -0.205   5.887   7.276 -0.4012  0.0527  1.2862
  119OSM   C15S12533  -0.341   6.019   7.389 -0.0996 -0.6183 -0.3467
  119OSM   H15S12534  -0.311   5.992   7.492 -0.4204 -0.2454 -0.1531
  119OSM   H15T12535  -0.429   5.960   7.355  0.8697 -0.0738 -4.0135
  119OSM   C16S12536  -0.402   6.160   7.403 -0.0852 -1.1217  0.0907
  119OSM   H16S12537  -0.417   6.206   7.303  0.6289 -2.4057 -0.6210
  119OSM   H16T12538  -0.320   6.216   7.451 -0.4632 -0.1083 -0.4440
  119OSM   C17S12539  -0.540   6.161   7.481 -0.7321 -0.5852  0.6710
  119OSM   H17S12540  -0.525   6.099   7.572 -3.0519 -1.1134  0.7196
  119OSM   H17T12541  -0.624   6.114   7.426 -0.9853  0.0088  0.5397
  119OSM   C18S12542  -0.577   6.301   7.528 -0.7197 -1.1145 -0.3026
  119OSM   H18S12543  -0.669   6.294   7.590 -1.3631 -0.7371 -1.2126
  119OSM   H18T12544  -0.594   6.358   7.434  0.6199  1.1893  0.7975
  119OSM   H18U12545  -0.496   6.341   7.593 -1.9568 -2.1233  1.9019
  119OSM    C1F12546   0.167   5.372   6.341  0.4386  0.2961 -0.4046
  119OSM     OF12547   0.277   5.352   6.286 -0.0035  0.1757  0.9990
  119OSM    C2F12548   0.130   5.310   6.471 -0.6523 -0.2443 -0.1012
  119OSM    H2F12549   0.117   5.201   6.455 -1.8935 -0.2385  0.7650
  119OSM    H2G12550   0.037   5.359   6.508 -1.2989  0.3618 -2.4220
  119OSM    C3F12551   0.246   5.339   6.576  0.4047 -0.4317  0.5058
  119OSM    H3F12552   0.228   5.446   6.601  1.8130  0.2246 -1.2584
  119OSM    H3G12553   0.347   5.314   6.538  0.6764 -0.2012  1.0743
  119OSM    C4F12554   0.223   5.261   6.714  0.3248 -0.1683  0.0439
  119OSM    H4F12555   0.301   5.300   6.783 -0.0163 -1.9621  1.4497
  119OSM    H4G12556   0.231   5.152   6.700  0.6266  0.0920 -2.0227
  119OSM    C5F12557   0.087   5.276   6.778 -0.2110  0.3485 -0.0931
  119OSM    H5F12558  -0.001   5.229   6.730 -0.1500 -0.9431  1.0086
  119OSM    H5G12559   0.055   5.382   6.790 -1.9397 -0.3520  1.9839
  119OSM    C6F12560   0.098   5.219   6.921 -0.5018 -0.4722  0.1507
  119OSM    H6F12561   0.178   5.266   6.983 -0.5881 -3.2964  2.5032
  119OSM    H6G12562   0.126   5.112   6.911 -0.6849 -0.3791 -1.5641
  119OSM    C7F12563  -0.037   5.229   6.998  0.1081 -0.7657 -0.2853
  119OSM    H7F12564  -0.111   5.153   6.965 -0.2450 -0.1871 -0.8538
  119OSM    H7G12565  -0.076   5.332   6.981 -0.6931 -1.1579 -0.8482
  119OSM    C8F12566  -0.012   5.216   7.145 -0.2191  0.1589 -0.7125
  119OSM    H8F12567  -0.109   5.231   7.196 -0.5034 -5.4552  0.7629
  119OSM    H8G12568   0.060   5.296   7.169  2.1319 -2.2887  0.6623
  119OSM    C9F12569   0.052   5.081   7.186  0.6921  0.8120  0.1137
  119OSM    H9F12570   0.156   5.072   7.151 -0.0604  2.2437 -2.6618
  119OSM   C10F12571  -0.013   4.977   7.253  0.3856  0.0577  0.9186
  119OSM   H10F12572   0.041   4.885   7.279 -0.1304 -0.8719 -1.2005
  119OSM   C11F12573  -0.155   4.977   7.303 -0.9147 -0.3800  0.1804
  119OSM   H11F12574  -0.170   4.870   7.331  0.9282 -1.0479 -1.3085
  119OSM   H11G12575  -0.230   4.979   7.221 -1.2401  0.5365  0.4992
  119OSM   C12F12576  -0.188   5.057   7.421 -0.2941 -0.0521 -0.3978
  119OSM   H12F12577  -0.295   5.066   7.449 -0.1466  0.2260  0.0879
  119OSM   H12G12578  -0.164   5.160   7.389 -0.1538  0.2072  0.5254
  119OSM   C13F12579  -0.108   5.004   7.545  0.0111  0.7222  0.5108
  119OSM   H13F12580  -0.003   4.980   7.518 -0.6982 -2.8114  0.7121
  119OSM   H13G12581  -0.160   4.912   7.579  1.0582  0.3774  1.1846
  119OSM   C14F12582  -0.114   5.100   7.659 -0.3157  0.8140  0.6500
  119OSM   H14F12583  -0.224   5.110   7.669 -0.8069 -2.2606 -0.9293
  119OSM   H14G12584  -0.050   5.186   7.631  0.3175 -0.3532 -1.6180
  119OSM   C15F12585  -0.071   5.037   7.793 -1.0719  0.3446 -0.0174
  119OSM   H15F12586   0.030   4.997   7.767 -0.7999  0.5599  0.7048
  119OSM   H15G12587  -0.135   4.946   7.800 -0.0802 -0.4715 -1.0771
  119OSM   C16F12588  -0.063   5.125   7.916 -0.8000 -0.1750  0.6644
  119OSM   H16F12589  -0.079   5.058   8.004 -1.6487  0.0731  0.7025
  119OSM   H16G12590  -0.153   5.190   7.924 -1.2086 -0.6368 -0.1319
  119OSM   C17F12591   0.071   5.194   7.932  0.2189 -0.0641 -0.2527
  119OSM   H17F12592   0.106   5.245   7.839 -0.0445  2.9067  1.2079
  119OSM   H17G12593   0.151   5.128   7.971 -0.4425 -1.6498 -1.5077
  119OSM   C18F12594   0.076   5.296   8.049  0.0976 -0.4933  0.3518
  119OSM   H18F12595   0.027   5.395   8.032  0.0255 -0.1997  2.1164
  119OSM   H18G12596   0.184   5.312   8.070 -0.0098  0.5200  0.1504
  119OSM   H18H12597   0.044   5.257   8.148 -0.0415  0.8278  0.8424
  120OSM      N12598   4.748   1.786   6.108 -0.0008 -0.3782 -0.1336
  120OSM    C1512599   4.724   1.920   6.044  0.2458 -0.1673 -0.1405
  120OSM   H15A12600   4.791   1.944   5.963  1.2579 -0.8135  0.4916
  120OSM   H15B12601   4.748   1.993   6.120  1.0492  0.0042 -0.5525
  120OSM   H15C12602   4.622   1.943   6.015 -0.3589 -2.8850 -0.3235
  120OSM    C1412603   4.682   1.679   6.023  0.3614 -0.5097 -0.0633
  120OSM   H14A12604   4.700   1.691   5.918 -1.0811 -2.3939 -0.5504
  120OSM   H14B12605   4.574   1.688   6.030  0.2416 -0.9438 -1.2236
  120OSM   H14C12606   4.721   1.584   6.057  3.6587  1.1364  0.9316
  120OSM    C1312607   4.897   1.775   6.107  0.0343  0.3702  1.1300
  120OSM   H13A12608   4.932   1.877   6.110  0.2484  0.2829  1.7332
  120OSM   H13B12609   4.946   1.736   6.019  3.0024  0.2625  2.7519
  120OSM   H13C12610   4.929   1.714   6.190  0.9958  3.0736  2.8188
  120OSM    C1212611   4.699   1.794   6.253  0.4815  0.3129  0.2391
  120OSM   H12A12612   4.695   1.689   6.279  0.2740 -0.0471 -1.1604
  120OSM   H12B12613   4.599   1.834   6.243 -0.5296 -2.5751 -2.1163
  120OSM    C1112614   4.774   1.881   6.357 -1.0835  0.5470 -0.7163
  120OSM   H11A12615   4.879   1.848   6.366 -1.6366 -0.8797  0.6787
  120OSM   H11B12616   4.725   1.858   6.453  1.9399 -2.2977  0.2397
  120OSM      P12617   4.635   2.105   6.346 -0.0308  0.4152  0.0130
  120OSM    O1312618   4.657   2.251   6.327 -0.1672 -0.5546 -0.8446
  120OSM    O1412619   4.523   2.040   6.271  0.5814 -0.2283  0.1225
  120OSM    O1112620   4.615   2.086   6.505  0.8541 -0.1598 -0.7752
  120OSM    O1212621   4.774   2.024   6.317  0.0476 -0.0454  0.3528
  120OSM    C1S12622   4.715   2.124   6.598 -0.0907 -0.5459 -0.3165
  120OSM    H1S12623   4.743   2.229   6.575  0.9829 -1.0158 -1.1921
  120OSM    H1T12624   4.806   2.061   6.587 -0.2522 -0.8390  0.0141
  120OSM     NF12625   4.777   2.149   6.833  0.1200  0.2582  0.3672
  120OSM    HNF12626   4.841   2.077   6.858  0.7402  0.7238  0.1116
  120OSM    C2S12627   4.666   2.112   6.742 -0.3373  0.1928  0.6111
  120OSM    H2S12628   4.587   2.189   6.753  1.7480  2.4089  0.4463
  120OSM    C3S12629   4.608   1.964   6.757 -0.2271 -0.0498 -0.2513
  120OSM    H3S12630   4.692   1.894   6.737  0.2780  0.7471 -0.9527
  120OSM     O312631   4.502   1.917   6.671 -0.0672  0.3337  0.0052
  120OSM    HO312632   4.522   1.951   6.584  1.7464  1.2202  0.7503
  120OSM    C4S12633   4.574   1.940   6.897  0.6897 -0.4867 -0.0200
  120OSM    H4S12634   4.515   2.022   6.941  0.8607  0.1991 -1.0632
  120OSM    C5S12635   4.599   1.829   6.970 -0.2790  0.3282  1.2130
  120OSM    H5S12636   4.636   1.740   6.917 -0.8320  0.9989 -0.3100
  120OSM    C6S12637   4.548   1.828   7.117  0.1939  0.1662 -0.2238
  120OSM    H6S12638   4.471   1.748   7.118  1.3532 -0.9578  1.8960
  120OSM    H6T12639   4.504   1.925   7.149 -1.0193  0.1785 -1.8553
  120OSM    C7S12640   4.670   1.784   7.193 -0.1159  0.2755 -0.1777
  120OSM    H7S12641   4.760   1.850   7.190  1.1817 -1.5102 -3.5500
  120OSM    H7T12642   4.697   1.682   7.158  0.1559  0.3900 -0.3019
  120OSM    C8S12643   4.635   1.772   7.340 -0.2654  0.4100  0.4264
  120OSM    H8S12644   4.620   1.878   7.365  2.0188  0.5729  1.2617
  120OSM    H8T12645   4.720   1.720   7.389 -0.9535 -2.3845 -1.1797
  120OSM    C9S12646   4.507   1.692   7.375  0.2973  0.3920  0.8194
  120OSM    H9S12647   4.511   1.593   7.324 -0.1072  0.6500  0.2736
  120OSM    H9T12648   4.413   1.731   7.331 -0.3710 -1.2040  0.8025
  120OSM   C10S12649   4.495   1.682   7.524  0.2455  0.1959  0.1811
  120OSM   H10S12650   4.592   1.640   7.558  0.6032  0.5122 -0.4501
  120OSM   H10T12651   4.412   1.614   7.555  0.0615 -0.4138 -1.5697
  120OSM   C11S12652   4.468   1.822   7.589  0.0375 -0.2744 -0.3857
  120OSM   H11S12653   4.384   1.868   7.532 -0.3600 -0.6199 -0.0804
  120OSM   H11T12654   4.554   1.890   7.576 -0.4553  0.5534  0.6353
  120OSM   C12S12655   4.425   1.821   7.738  0.2417 -0.1638  0.8290
  120OSM   H12S12656   4.328   1.775   7.764 -0.1567  1.7190  2.8723
  120OSM   H12T12657   4.416   1.929   7.764  1.1999  0.1346 -0.0502
  120OSM   C13S12658   4.538   1.768   7.829  0.3473 -0.1578  0.3672
  120OSM   H13S12659   4.632   1.820   7.802 -0.3705  0.2223 -1.4582
  120OSM   H13T12660   4.553   1.660   7.809 -0.1412  0.1748 -1.9601
  120OSM   C14S12661   4.505   1.778   7.972  0.1189 -0.3890 -0.3657
  120OSM   H14S12662   4.435   1.697   8.002 -0.3126  0.1679  0.1302
  120OSM   H14T12663   4.449   1.871   7.994 -2.2132 -1.7960 -0.2351
  120OSM   C15S12664   4.628   1.781   8.065  0.2080  0.0339 -0.1144
  120OSM   H15S12665   4.706   1.858   8.048 -0.7156  1.0318  0.1533
  120OSM   H15T12666   4.686   1.686   8.053 -1.4869 -0.9312 -0.9066
  120OSM   C16S12667   4.579   1.794   8.211  0.3754 -0.0900  0.5045
  120OSM   H16S12668   4.512   1.710   8.236 -0.2322  0.3683  0.4135
  120OSM   H16T12669   4.531   1.893   8.224  0.9783  0.3722 -0.6983
  120OSM   C17S12670   4.701   1.791   8.306  0.5232 -0.1364 -0.4967
  120OSM   H17S12671   4.772   1.869   8.273  1.2155 -0.9818 -1.0469
  120OSM   H17T12672   4.748   1.691   8.296  1.1430  0.1344 -0.2680
  120OSM   C18S12673   4.664   1.796   8.457  0.2814 -0.1033 -0.5865
  120OSM   H18S12674   4.606   1.709   8.495  2.0775 -0.4643  1.3581
  120OSM   H18T12675   4.607   1.890   8.470 -1.1052 -0.5824 -2.7717
  120OSM   H18U12676   4.757   1.803   8.516 -0.1108  1.6847 -0.1617
  120OSM    C1F12677   4.819   2.273   6.835 -0.3422 -0.4946 -0.4914
  120OSM     OF12678   4.740   2.360   6.804  0.4933 -0.0444  0.6003
  120OSM    C2F12679   4.962   2.301   6.856 -0.0086 -0.0698  0.1707
  120OSM    H2F12680   5.014   2.314   6.759  0.0731  2.6264  0.5330
  120OSM    H2G12681   5.016   2.215   6.901  1.1773  0.4125 -0.3048
  120OSM    C3F12682   4.980   2.431   6.936  0.5145 -0.0733 -0.3363
  120OSM    H3F12683   4.923   2.505   6.875 -1.7877 -2.1806 -0.8003
  120OSM    H3G12684   5.085   2.469   6.934  0.1960  1.0803  2.6828
  120OSM    C4F12685   4.928   2.430   7.080 -0.5654  0.4416  0.0111
  120OSM    H4F12686   4.995   2.356   7.129 -1.3302  0.7779  1.5743
  120OSM    H4G12687   4.823   2.394   7.086 -0.4456  0.5396  3.1231
  120OSM    C5F12688   4.946   2.564   7.144 -0.3627 -0.2507  0.5309
  120OSM    H5F12689   4.877   2.631   7.089 -0.4117  1.0236  2.1085
  120OSM    H5G12690   5.048   2.608   7.135 -0.6306  1.0335  3.1331
  120OSM    C6F12691   4.910   2.568   7.286  0.1224 -0.5279 -0.0961
  120OSM    H6F12692   4.969   2.493   7.344  2.4766  0.8888 -0.5767
  120OSM    H6G12693   4.805   2.531   7.292  0.5510 -1.5061  1.7913
  120OSM    C7F12694   4.932   2.711   7.346  0.3388  0.5274 -0.7171
  120OSM    H7F12695   4.849   2.769   7.299 -1.1057 -0.6031  0.3580
  120OSM    H7G12696   5.028   2.763   7.325 -0.3533  1.3172 -2.0385
  120OSM    C8F12697   4.913   2.716   7.499 -0.5446 -0.4546 -0.2882
  120OSM    H8F12698   4.819   2.667   7.533 -0.7142 -0.3601 -0.6116
  120OSM    H8G12699   4.900   2.824   7.518 -4.2620 -1.0743  1.0635
  120OSM    C9F12700   5.026   2.659   7.575 -0.2892 -0.1118 -0.2450
  120OSM    H9F12701   5.076   2.571   7.532  0.0617 -1.5489  2.9768
  120OSM   C10F12702   5.068   2.713   7.693 -0.8237 -0.0221 -0.4311
  120OSM   H10F12703   5.151   2.667   7.748 -0.2855  2.4886  0.9425
  120OSM   C11F12704   5.008   2.829   7.757  0.5131 -1.1002  0.1497
  120OSM   H11F12705   4.912   2.862   7.713  0.0199 -1.1346  1.1941
  120OSM   H11G12706   5.084   2.909   7.742 -0.6994  0.2048  0.8782
  120OSM   C12F12707   4.991   2.816   7.902 -0.5964 -0.5940  0.2238
  120OSM   H12F12708   5.077   2.847   7.965  0.9024 -1.0219 -1.5776
  120OSM   H12G12709   4.949   2.720   7.940 -2.9112 -0.1518 -1.1278
  120OSM   C13F12710   4.875   2.914   7.952  0.5714  0.4418  0.1353
  120OSM   H13F12711   4.786   2.913   7.886 -0.2184 -1.1891  1.1834
  120OSM   H13G12712   4.929   3.011   7.943  1.7635 -0.2055  0.2847
  120OSM   C14F12713   4.832   2.899   8.102  0.1142  0.0272  0.1136
  120OSM   H14F12714   4.924   2.870   8.157 -0.4898  0.7510  1.5548
  120OSM   H14G12715   4.761   2.813   8.104  1.6283 -1.2456 -0.0246
  120OSM   C15F12716   4.769   3.032   8.155  0.2107  0.3521  0.3252
  120OSM   H15F12717   4.764   3.032   8.266 -2.0077 -2.8385  0.2715
  120OSM   H15G12718   4.672   3.034   8.102  0.4175  0.7666 -0.0468
  120OSM   C16F12719   4.834   3.173   8.120  0.2585 -0.1173 -0.9917
  120OSM   H16F12720   4.938   3.148   8.092  1.5210  1.7206  1.8620
  120OSM   H16G12721   4.854   3.228   8.214  0.1968 -2.2310  0.2961
  120OSM   C17F12722   4.764   3.268   8.018 -0.5802  0.4151 -0.4263
  120OSM   H17F12723   4.734   3.220   7.922  1.7894 -0.2417 -0.8687
  120OSM   H17G12724   4.841   3.334   7.972 -1.9680  1.2704 -1.5825
  120OSM   C18F12725   4.651   3.349   8.086 -0.3638 -0.5505  0.9595
  120OSM   H18F12726   4.688   3.399   8.178 -2.4282 -0.2136  1.6265
  120OSM   H18G12727   4.560   3.292   8.113 -0.1633 -0.2766  2.2754
  120OSM   H18H12728   4.619   3.430   8.017  2.4847 -0.8604 -0.8216
  121OSM      N12729   5.864   4.296   6.060  0.5976 -0.0800 -0.9031
  121OSM    C1512730   5.725   4.242   6.080  0.6336 -0.3643  0.7684
  121OSM   H15A12731   5.687   4.209   5.985 -2.1706  0.0820  1.6941
  121OSM   H15B12732   5.656   4.318   6.114  2.1614  1.0354  0.8507
  121OSM   H15C12733   5.723   4.150   6.137 -1.0683 -1.7978 -1.5147
  121OSM    C1412734   5.949   4.179   6.010  0.0956  0.9121 -0.4485
  121OSM   H14A12735   6.055   4.179   6.033 -0.4686  0.1844  2.3634
  121OSM   H14B12736   5.931   4.165   5.905 -0.7390  0.5570 -0.2608
  121OSM   H14C12737   5.905   4.086   6.041 -0.7172  1.2300 -0.6455
  121OSM    C1312738   5.860   4.411   5.973  0.2076  0.0809 -0.0384
  121OSM   H13A12739   5.947   4.470   5.997  2.4260 -2.9668 -0.3721
  121OSM   H13B12740   5.784   4.487   5.987 -2.7507 -2.4880 -1.4747
  121OSM   H13C12741   5.872   4.382   5.870 -1.5352 -1.4913  0.1803
  121OSM    C1212742   5.922   4.342   6.195 -0.3198 -0.1156 -0.4435
  121OSM   H12A12743   5.929   4.250   6.251  0.1748  0.2502  0.1087
  121OSM   H12B12744   5.854   4.405   6.251 -0.7877 -0.8068 -0.2283
  121OSM    C1112745   6.066   4.416   6.198  0.0104  0.0607  0.2436
  121OSM   H11A12746   6.132   4.368   6.122  0.4774  2.9359 -1.2541
  121OSM   H11B12747   6.111   4.417   6.299 -1.7464  2.3172  1.0386
  121OSM      P12748   6.121   4.671   6.188 -0.4174  0.0186  0.7686
  121OSM    O1312749   6.262   4.641   6.161  0.1702 -0.0941 -0.4859
  121OSM    O1412750   6.069   4.790   6.114  0.0338 -0.0737  0.2912
  121OSM    O1112751   6.098   4.708   6.336  0.0199 -0.1277  0.1817
  121OSM    O1212752   6.033   4.550   6.158 -0.6214 -0.2024  0.1326
  121OSM    C1S12753   6.208   4.685   6.426 -0.7358  0.0556  0.3958
  121OSM    H1S12754   6.291   4.755   6.401  0.0361 -0.9825 -0.0161
  121OSM    H1T12755   6.248   4.582   6.414  0.1882  0.6884 -2.3937
  121OSM     NF12756   6.269   4.718   6.667  0.4656 -0.7960  0.5498
  121OSM    HNF12757   6.291   4.627   6.701 -1.0982 -1.5283 -0.3385
  121OSM    C2S12758   6.161   4.709   6.578 -0.0239 -0.0534  0.0825
  121OSM    H2S12759   6.096   4.798   6.585 -0.9312 -0.8051  1.6238
  121OSM    C3S12760   6.055   4.595   6.614 -0.1204 -0.4116 -0.8679
  121OSM    H3S12761   6.104   4.496   6.607 -1.2365 -1.0932  0.6373
  121OSM     O312762   5.938   4.589   6.532  0.0493 -0.6379  0.4183
  121OSM    HO312763   5.955   4.645   6.456  1.9143 -1.2945  0.3331
  121OSM    C4S12764   6.013   4.604   6.760 -0.2716 -0.4462 -0.5485
  121OSM    H4S12765   6.074   4.538   6.823 -0.8761 -0.4376  0.0454
  121OSM    C5S12766   5.908   4.675   6.816  0.1595  0.6114  0.6624
  121OSM    H5S12767   5.839   4.739   6.759 -1.2192  0.9052  2.5975
  121OSM    C6S12768   5.865   4.676   6.966 -0.4256  0.0023 -0.2064
  121OSM    H6S12769   5.766   4.627   6.967  0.2159 -1.3160 -0.3093
  121OSM    H6T12770   5.862   4.780   7.004 -1.0768 -0.6868  1.6957
  121OSM    C7S12771   5.947   4.603   7.072 -0.2652  0.3996  0.2391
  121OSM    H7S12772   6.053   4.630   7.054 -0.0537 -0.9668 -0.6036
  121OSM    H7T12773   5.942   4.495   7.046  0.4885  0.2905  0.5177
  121OSM    C8S12774   5.882   4.610   7.210 -0.8040 -0.8072 -0.1431
  121OSM    H8S12775   5.781   4.565   7.220 -0.7552 -0.2795  3.5898
  121OSM    H8T12776   5.864   4.715   7.243  2.6515 -0.1912  0.0180
  121OSM    C9S12777   5.978   4.541   7.314  0.8321  0.5891  0.0710
  121OSM    H9S12778   6.080   4.577   7.287  1.0152  0.2363  0.2831
  121OSM    H9T12779   5.957   4.432   7.309 -1.1805  0.8724  1.8053
  121OSM   C10S12780   5.949   4.582   7.460 -0.1118  0.4566 -0.2436
  121OSM   H10S12781   5.839   4.584   7.474  0.1611 -1.1985  2.5146
  121OSM   H10T12782   5.987   4.684   7.481  2.0234 -0.2183 -0.6078
  121OSM   C11S12783   6.010   4.497   7.564  0.0652 -0.1319  0.1864
  121OSM   H11S12784   6.114   4.492   7.524 -0.1398  1.2829 -0.5555
  121OSM   H11T12785   5.965   4.396   7.577 -0.5451  0.2628  1.2168
  121OSM   C12S12786   6.014   4.551   7.705 -1.1485 -0.7838 -0.2878
  121OSM   H12S12787   5.911   4.551   7.746 -1.1367 -2.1600 -0.2372
  121OSM   H12T12788   6.079   4.641   7.706 -0.5221 -1.2448  0.4110
  121OSM   C13S12789   6.086   4.456   7.806 -0.2413  0.0396  0.6864
  121OSM   H13S12790   6.195   4.474   7.809 -0.1210 -0.6788  0.8935
  121OSM   H13T12791   6.089   4.348   7.777  2.2347 -0.1546  1.5804
  121OSM   C14S12792   6.029   4.480   7.948  0.0786 -0.6245  0.4141
  121OSM   H14S12793   5.918   4.476   7.943  0.1391 -1.2478 -0.4468
  121OSM   H14T12794   6.046   4.584   7.985 -1.1414 -0.2471 -0.0594
  121OSM   C15S12795   6.087   4.371   8.042  0.0201  0.0936  1.1877
  121OSM   H15S12796   6.197   4.380   8.054 -0.1419  0.3115  2.6523
  121OSM   H15T12797   6.062   4.268   8.012  2.0639  0.2766 -1.2837
  121OSM   C16S12798   6.019   4.379   8.181 -0.0026  0.1031 -0.7362
  121OSM   H16S12799   5.910   4.372   8.161 -0.8594 -2.2740  3.9564
  121OSM   H16T12800   6.035   4.480   8.224  0.5174  0.0489 -0.8016
  121OSM   C17S12801   6.072   4.266   8.274 -0.4081  0.7084  0.2120
  121OSM   H17S12802   6.183   4.268   8.276 -0.3665 -0.0179 -0.7512
  121OSM   H17T12803   6.053   4.173   8.216  1.2498  1.7289 -2.0250
  121OSM   C18S12804   6.019   4.272   8.418 -0.5600 -0.5161 -0.6076
  121OSM   H18S12805   6.081   4.344   8.476 -1.8122  0.9299 -1.0281
  121OSM   H18T12806   6.022   4.172   8.466  0.7751 -0.6574 -0.9737
  121OSM   H18U12807   5.913   4.302   8.427  0.3063  2.5595 -0.0763
  121OSM    C1F12808   6.352   4.824   6.666 -0.0434 -0.9372 -0.2098
  121OSM     OF12809   6.315   4.936   6.625 -0.1243 -0.8970 -0.0910
  121OSM    C2F12810   6.492   4.789   6.700 -0.0222 -0.0162 -0.1989
  121OSM    H2F12811   6.553   4.769   6.609  2.3569  1.4124  1.0370
  121OSM    H2G12812   6.500   4.696   6.759  1.1743  0.2479  0.0793
  121OSM    C3F12813   6.565   4.902   6.782  0.8777  0.0820 -0.9760
  121OSM    H3F12814   6.519   4.933   6.879  3.1406 -0.5864  0.3504
  121OSM    H3G12815   6.570   4.997   6.725  0.3959  0.9996  0.4868
  121OSM    C4F12816   6.708   4.869   6.819 -0.0272  0.0357  0.8552
  121OSM    H4F12817   6.748   4.944   6.891  0.9887 -0.0178  0.3593
  121OSM    H4G12818   6.775   4.873   6.731 -1.8156 -0.8663 -0.5979
  121OSM    C5F12819   6.707   4.730   6.888  0.1972  0.2214 -0.0906
  121OSM    H5F12820   6.690   4.656   6.807 -1.5684 -0.5789  0.9707
  121OSM    H5G12821   6.623   4.732   6.961 -0.5279  1.7988 -0.9493
  121OSM    C6F12822   6.840   4.691   6.959  0.4912  0.3788  0.0665
  121OSM    H6F12823   6.893   4.777   7.006  0.8062  1.2547 -1.8237
  121OSM    H6G12824   6.909   4.652   6.881 -0.0975 -1.3157  0.3712
  121OSM    C7F12825   6.820   4.582   7.070 -0.2775  0.1383 -0.1188
  121OSM    H7F12826   6.919   4.545   7.104 -0.4158 -0.0075  0.1247
  121OSM    H7G12827   6.753   4.500   7.036 -0.7929  0.2461  0.6374
  121OSM    C8F12828   6.752   4.629   7.197 -0.7094 -0.3417  0.1743
  121OSM    H8F12829   6.661   4.681   7.161  2.3537  6.1227  0.9968
  121OSM    H8G12830   6.820   4.689   7.262  0.9738 -2.5311  0.4898
  121OSM    C9F12831   6.707   4.518   7.282 -0.3966  0.8271 -0.4620
  121OSM    H9F12832   6.641   4.446   7.232 -0.6777  1.8370 -1.5742
  121OSM   C10F12833   6.751   4.484   7.402  0.4292 -0.4149  0.2895
  121OSM   H10F12834   6.693   4.408   7.455  0.0464 -1.0173 -1.0001
  121OSM   C11F12835   6.845   4.565   7.493  0.5606  0.7601  0.1807
  121OSM   H11F12836   6.822   4.674   7.491  0.4869  0.7668  0.9970
  121OSM   H11G12837   6.950   4.556   7.460 -0.3885 -0.3073 -2.7200
  121OSM   C12F12838   6.840   4.539   7.647  0.1158  0.1544 -0.2567
  121OSM   H12F12839   6.909   4.617   7.685 -2.3700  1.4594  1.8006
  121OSM   H12G12840   6.884   4.439   7.668  2.0884  0.5227 -2.4813
  121OSM   C13F12841   6.705   4.568   7.711  0.5172 -0.0196 -0.1896
  121OSM   H13F12842   6.640   4.479   7.702  0.1603  0.0423  1.4717
  121OSM   H13G12843   6.663   4.663   7.670  0.8510 -0.7191 -2.1902
  121OSM   C14F12844   6.716   4.604   7.859  0.5646 -0.5590 -0.5416
  121OSM   H14F12845   6.759   4.706   7.867  0.2728 -0.3508 -1.5305
  121OSM   H14G12846   6.786   4.535   7.910  1.7184  0.3213 -0.9345
  121OSM   C15F12847   6.580   4.593   7.925  0.3590  0.4633  0.6253
  121OSM   H15F12848   6.533   4.495   7.900 -0.9055  0.7216  1.9250
  121OSM   H15G12849   6.519   4.684   7.906  0.8545  0.4797 -0.9956
  121OSM   C16F12850   6.594   4.576   8.076  0.1943 -0.0708 -0.0570
  121OSM   H16F12851   6.620   4.675   8.120 -1.6253 -0.1840  1.3569
  121OSM   H16G12852   6.674   4.502   8.094 -0.3647 -0.7753 -0.4632
  121OSM   C17F12853   6.464   4.524   8.135  0.4727 -0.2618 -0.7201
  121OSM   H17F12854   6.442   4.433   8.074 -0.7937 -0.6523  0.2903
  121OSM   H17G12855   6.385   4.595   8.102  0.4821 -1.1934 -2.8312
  121OSM   C18F12856   6.458   4.493   8.282 -0.2723 -0.3939 -0.0364
  121OSM   H18F12857   6.493   4.576   8.347  1.2349 -1.7964  0.9849
  121OSM   H18G12858   6.531   4.412   8.305  0.3442 -0.1949 -1.2881
  121OSM   H18H12859   6.356   4.459   8.310 -0.3704 -0.2584 -0.2297
  122OSM      N12860   5.044   6.185   5.639  0.7608 -0.0794  0.3671
  122OSM    C1512861   4.945   6.176   5.528 -0.7038  0.0136  0.6943
  122OSM   H15A12862   4.990   6.118   5.448  0.0685 -1.3287  2.0874
  122OSM   H15B12863   4.926   6.277   5.495 -0.7930  0.0875  0.9711
  122OSM   H15C12864   4.851   6.129   5.555 -0.1119 -0.3931  2.0516
  122OSM    C1412865   5.092   6.048   5.664 -0.7215 -0.3290  0.3744
  122OSM   H14A12866   5.146   6.051   5.757 -0.6265  2.1845  0.2778
  122OSM   H14B12867   5.151   6.008   5.582 -2.2550  0.4808 -1.1690
  122OSM   H14C12868   5.024   5.965   5.673  2.5085 -3.0294  1.0674
  122OSM    C1312869   5.154   6.278   5.592  0.1618 -0.2895  0.7567
  122OSM   H13A12870   5.106   6.367   5.554  0.0876 -1.0981 -1.0782
  122OSM   H13B12871   5.214   6.231   5.516  1.6169  0.2961  1.5243
  122OSM   H13C12872   5.232   6.303   5.663  0.2644  2.0812 -0.1366
  122OSM    C1212873   4.980   6.238   5.767 -0.4954  0.1577 -0.0972
  122OSM   H12A12874   4.889   6.189   5.797  0.3669 -1.4992 -0.1408
  122OSM   H12B12875   4.948   6.338   5.741  1.4093  0.7394 -0.2606
  122OSM    C1112876   5.074   6.234   5.895 -0.4378 -0.4596  0.1932
  122OSM   H11A12877   5.096   6.128   5.920  0.4145 -0.1391  0.8140
  122OSM   H11B12878   5.030   6.267   5.992 -0.5073 -2.3717  0.8386
  122OSM      P12879   5.204   6.462   5.907  0.0528 -0.3144 -0.0551
  122OSM    O1312880   5.345   6.509   5.898  0.2750 -0.6534 -0.4432
  122OSM    O1412881   5.110   6.524   5.812  0.0094  0.4391  0.0749
  122OSM    O1112882   5.149   6.491   6.049 -0.4871 -0.6913 -0.1798
  122OSM    O1212883   5.202   6.303   5.879  0.1605 -0.3152 -0.4530
  122OSM    C1S12884   5.234   6.460   6.165  0.0780  0.1569 -0.3557
  122OSM    H1S12885   5.328   6.518   6.152  0.7094 -0.8043 -0.0586
  122OSM    H1T12886   5.255   6.352   6.179 -1.1808  0.2815  2.9772
  122OSM     NF12887   5.255   6.499   6.413 -0.2405  0.3954 -0.1274
  122OSM    HNF12888   5.236   6.450   6.497 -1.9090  0.5044 -0.4255
  122OSM    C2S12889   5.165   6.504   6.298  0.0312 -0.7098 -0.5117
  122OSM    H2S12890   5.134   6.610   6.287  1.3328 -0.1164  1.1632
  122OSM    C3S12891   5.032   6.422   6.318 -0.0987 -0.5348 -0.2709
  122OSM    H3S12892   5.060   6.317   6.337 -0.3134 -0.5127  0.1810
  122OSM     O312893   4.938   6.430   6.209  0.0476  0.1219  0.1669
  122OSM    HO312894   4.978   6.487   6.143  0.4035 -0.3421 -0.0178
  122OSM    C4S12895   4.958   6.465   6.441  0.8256 -0.6894  0.1918
  122OSM    H4S12896   4.931   6.571   6.441  1.3177 -0.5573 -0.9100
  122OSM    C5S12897   4.937   6.392   6.551  0.8390  1.1360 -0.4725
  122OSM    H5S12898   4.984   6.292   6.556  0.0190  0.6635 -1.9587
  122OSM    C6S12899   4.859   6.426   6.674  0.8947  0.2007  0.4551
  122OSM    H6S12900   4.771   6.359   6.683  0.6926  0.6559  1.9490
  122OSM    H6T12901   4.809   6.525   6.672 -1.7057 -1.0961 -1.3544
  122OSM    C7S12902   4.947   6.414   6.799 -0.1005 -0.8026  0.3959
  122OSM    H7S12903   5.032   6.485   6.798  1.2588 -2.4278 -0.2340
  122OSM    H7T12904   4.986   6.311   6.807 -0.0767 -0.9485 -1.4541
  122OSM    C8S12905   4.860   6.423   6.923  0.5142 -0.3572  0.3444
  122OSM    H8S12906   4.785   6.342   6.924  3.1061 -2.8299  1.3059
  122OSM    H8T12907   4.794   6.512   6.924  0.2466 -0.5551  0.1350
  122OSM    C9S12908   4.945   6.418   7.044 -0.3856  0.0182 -0.0491
  122OSM    H9S12909   5.017   6.503   7.043 -1.0839  0.6046 -0.7296
  122OSM    H9T12910   5.000   6.321   7.046 -0.3978 -0.0135 -1.0003
  122OSM   C10S12911   4.853   6.419   7.172  0.3081 -0.1689 -0.2527
  122OSM   H10S12912   4.796   6.323   7.177 -1.0518  0.6683  0.4953
  122OSM   H10T12913   4.794   6.513   7.163 -1.9270 -1.5858 -1.0502
  122OSM   C11S12914   4.935   6.431   7.303  0.2738 -0.6408 -0.1053
  122OSM   H11S12915   4.990   6.524   7.276 -0.4375 -0.9414 -2.7268
  122OSM   H11T12916   5.010   6.349   7.298  1.8422  0.7654 -0.0709
  122OSM   C12S12917   4.854   6.444   7.431 -1.4333 -0.1774 -0.2110
  122OSM   H12S12918   4.785   6.359   7.443 -0.5234 -0.8915  0.0198
  122OSM   H12T12919   4.802   6.542   7.419  0.5263  0.6813 -2.2123
  122OSM   C13S12920   4.948   6.452   7.548 -0.2831 -0.1800  0.0923
  122OSM   H13S12921   5.016   6.538   7.530  1.5312 -1.7492 -0.6795
  122OSM   H13T12922   5.008   6.359   7.556  0.1539 -0.0325 -1.2817
  122OSM   C14S12923   4.874   6.463   7.683  0.7306 -0.2898  0.0820
  122OSM   H14S12924   4.792   6.388   7.681 -1.4646  2.0130  1.1841
  122OSM   H14T12925   4.831   6.566   7.686 -0.9755 -0.9661 -0.6449
  122OSM   C15S12926   4.959   6.440   7.806  0.7404  0.4899  0.3611
  122OSM   H15S12927   5.004   6.541   7.817  0.7646  0.3894  1.2519
  122OSM   H15T12928   5.045   6.370   7.796 -0.1450 -0.5913  0.2683
  122OSM   C16S12929   4.874   6.384   7.922 -0.3903 -0.1441  0.7665
  122OSM   H16S12930   4.856   6.280   7.887 -2.4478  0.4163  0.1032
  122OSM   H16T12931   4.779   6.437   7.942 -0.8879 -1.1659  1.1806
  122OSM   C17S12932   4.955   6.382   8.054  0.2494 -0.7501  0.9922
  122OSM   H17S12933   4.972   6.484   8.093 -1.0542 -1.0144  2.3076
  122OSM   H17T12934   5.057   6.345   8.030  1.3424  2.3124  0.8015
  122OSM   C18S12935   4.893   6.283   8.156 -0.0393  0.3351  0.2380
  122OSM   H18S12936   4.860   6.187   8.110  1.7848 -0.2366  0.0711
  122OSM   H18T12937   4.791   6.319   8.181  0.1476  0.8537  0.2558
  122OSM   H18U12938   4.952   6.258   8.247  0.2802  1.9182  0.4732
  122OSM    C1F12939   5.360   6.575   6.415  0.0310  0.4263 -0.0608
  122OSM     OF12940   5.369   6.664   6.333 -0.6305 -0.0330  0.2908
  122OSM    C2F12941   5.466   6.544   6.527 -0.1528 -0.3111 -0.0521
  122OSM    H2F12942   5.540   6.481   6.473 -0.7764 -0.6370 -0.5246
  122OSM    H2G12943   5.426   6.480   6.608  0.2326  0.9377  1.1315
  122OSM    C3F12944   5.541   6.668   6.579  0.0190  0.0158 -0.0646
  122OSM    H3F12945   5.471   6.727   6.642 -0.3425 -0.4083 -0.0732
  122OSM    H3G12946   5.578   6.723   6.490 -2.5651  1.3196 -0.3722
  122OSM    C4F12947   5.664   6.628   6.665  0.2064  0.1609 -0.3150
  122OSM    H4F12948   5.740   6.584   6.597  2.5708  2.7464  0.5694
  122OSM    H4G12949   5.626   6.561   6.745 -1.1976 -1.6178 -2.4005
  122OSM    C5F12950   5.739   6.748   6.720  0.0710  0.8900  0.6492
  122OSM    H5F12951   5.682   6.820   6.782  0.6078  2.6306 -0.8423
  122OSM    H5G12952   5.779   6.809   6.636 -1.0240  1.1522  0.3058
  122OSM    C6F12953   5.861   6.694   6.796  0.0891 -0.6970  0.2139
  122OSM    H6F12954   5.908   6.624   6.723 -0.1333  1.6999 -2.3534
  122OSM    H6G12955   5.830   6.640   6.888  2.6167 -2.7925 -0.1056
  122OSM    C7F12956   5.969   6.789   6.845 -0.4685 -0.1942  0.6281
  122OSM    H7F12957   5.924   6.825   6.940 -0.2721  1.2998  0.1742
  122OSM    H7G12958   5.978   6.876   6.776  0.2118 -0.7058  0.0602
  122OSM    C8F12959   6.105   6.729   6.860 -0.0497 -0.1388 -0.4429
  122OSM    H8F12960   6.127   6.682   6.761  1.0750 -0.5154 -0.0222
  122OSM    H8G12961   6.090   6.647   6.934  1.9470  1.7998  2.1838
  122OSM    C9F12962   6.220   6.809   6.911  0.1709  0.1249  0.4006
  122OSM    H9F12963   6.258   6.871   6.828 -1.5507 -2.5765 -2.5426
  122OSM   C10F12964   6.285   6.799   7.034 -0.2460  0.2740  0.2521
  122OSM   H10F12965   6.373   6.865   7.035  0.6037 -0.5523 -4.4057
  122OSM   C11F12966   6.252   6.722   7.155  0.5061 -0.3107  0.4927
  122OSM   H11F12967   6.324   6.637   7.155  0.2775 -0.5058  0.3194
  122OSM   H11G12968   6.153   6.674   7.147  0.3717 -0.1186  0.9745
  122OSM   C12F12969   6.272   6.789   7.289  0.0990 -0.4240  0.0544
  122OSM   H12F12970   6.193   6.863   7.316  1.3482  1.2405 -0.7892
  122OSM   H12G12971   6.371   6.838   7.295 -0.9282  2.2841 -3.2946
  122OSM   C13F12972   6.252   6.687   7.415 -0.3295 -0.2740  0.5620
  122OSM   H13F12973   6.299   6.590   7.388  0.5489  0.0680  0.8427
  122OSM   H13G12974   6.147   6.659   7.438 -0.1862 -0.7321  0.6732
  122OSM   C14F12975   6.315   6.755   7.538  0.1494  0.0603 -0.0860
  122OSM   H14F12976   6.271   6.856   7.556 -0.7153 -0.7592  2.6302
  122OSM   H14G12977   6.423   6.775   7.519  0.3014 -0.4480  0.2373
  122OSM   C15F12978   6.312   6.670   7.671 -0.0750  0.6031 -0.0777
  122OSM   H15F12979   6.325   6.564   7.641  0.8222  0.1710  1.8127
  122OSM   H15G12980   6.216   6.699   7.719  0.2755  0.0935  0.9400
  122OSM   C16F12981   6.430   6.715   7.758  0.6478  0.2515 -0.2381
  122OSM   H16F12982   6.427   6.825   7.774  0.8780  0.3883 -1.1051
  122OSM   H16G12983   6.521   6.691   7.700  0.8174 -2.2432  0.9933
  122OSM   C17F12984   6.439   6.653   7.898 -0.0905 -0.0030  0.5399
  122OSM   H17F12985   6.464   6.546   7.887 -0.3652 -0.3621  3.1649
  122OSM   H17G12986   6.345   6.658   7.956  0.6336 -0.1186  1.7287
  122OSM   C18F12987   6.549   6.717   7.990 -0.6317  0.5055  0.3979
  122OSM   H18F12988   6.515   6.823   7.990  0.6600  0.9630  2.4938
  122OSM   H18G12989   6.651   6.706   7.948 -0.4695  3.6429 -0.1542
  122OSM   H18H12990   6.558   6.684   8.096 -0.2280  0.7198  0.4305
  123OSM      N12991   3.387   2.246   6.195  0.1931  0.3074 -0.8440
  123OSM    C1512992   3.362   2.387   6.142 -0.0527 -0.1346 -0.5270
  123OSM   H15A12993   3.440   2.454   6.174  0.1145 -0.2854 -0.6121
  123OSM   H15B12994   3.266   2.430   6.165  1.2284  1.7332  1.4474
  123OSM   H15C12995   3.361   2.380   6.034 -1.1766  0.8979 -0.5854
  123OSM    C1412996   3.302   2.145   6.128  0.1875 -0.5145 -0.1579
  123OSM   H14A12997   3.337   2.044   6.146  1.6950 -0.0206 -0.2689
  123OSM   H14B12998   3.314   2.159   6.021  0.6085 -0.4579 -0.1036
  123OSM   H14C12999   3.199   2.152   6.161  0.1430  0.7834 -0.5411
  123OSM    C1313000   3.531   2.208   6.167 -0.1076 -0.4469  0.3497
  123OSM   H13A13001   3.553   2.111   6.209  1.4627 -0.7822 -1.1612
  123OSM   H13B13002   3.594   2.285   6.209 -2.4523  1.3282  0.7127
  123OSM   H13C13003   3.563   2.214   6.064 -0.1801  1.8992  0.4363
  123OSM    C1213004   3.375   2.251   6.350  0.9706 -1.4458  0.0335
  123OSM   H12A13005   3.437   2.331   6.387 -0.6627  0.4155 -1.1763
  123OSM   H12B13006   3.416   2.159   6.390  1.9711 -1.3854 -0.8171
  123OSM    C1113007   3.234   2.283   6.414 -0.2404 -0.1958 -0.5010
  123OSM   H11A13008   3.193   2.377   6.371 -1.3905 -1.3998 -2.1164
  123OSM   H11B13009   3.240   2.301   6.523 -2.5210  0.4183 -0.4527
  123OSM      P13010   3.154   2.040   6.439  0.1031  0.0347  0.0635
  123OSM    O1313011   3.023   1.977   6.410 -0.0556  0.6717  0.5827
  123OSM    O1413012   3.277   1.971   6.395 -0.6856 -0.2013 -0.5001
  123OSM    O1113013   3.161   2.075   6.594  0.1552 -0.2834 -0.4233
  123OSM    O1213014   3.142   2.184   6.373  0.5178  0.0107 -0.9826
  123OSM    C1S13015   3.154   1.970   6.691  0.2181 -0.0195  0.3215
  123OSM    H1S13016   3.257   1.933   6.707  0.1780 -0.1037  0.3862
  123OSM    H1T13017   3.085   1.887   6.663  0.4015  0.0910 -0.4609
  123OSM     NF13018   3.109   1.931   6.923 -0.5096  0.1070  0.4496
  123OSM    HNF13019   3.026   1.885   6.954 -0.5957  0.7205  1.1363
  123OSM    C2S13020   3.092   2.027   6.817 -0.4620 -0.0630 -0.3823
  123OSM    H2S13021   3.156   2.117   6.827 -1.0064  0.4852 -1.7335
  123OSM    C3S13022   2.946   2.066   6.791  0.4164 -0.1065  0.5851
  123OSM    H3S13023   2.895   1.974   6.755 -0.6073  0.9604 -0.7449
  123OSM     O313024   2.925   2.159   6.684 -0.3197  0.0860 -0.0675
  123OSM    HO313025   3.012   2.159   6.643 -0.0987  1.6221  0.3434
  123OSM    C4S13026   2.870   2.122   6.911  0.2632 -0.5127 -0.5845
  123OSM    H4S13027   2.820   2.041   6.966  1.0747 -0.1206  0.7628
  123OSM    C5S13028   2.853   2.253   6.951 -0.5889 -0.5364  0.5916
  123OSM    H5S13029   2.872   2.332   6.878 -1.5324 -0.4139  0.4677
  123OSM    C6S13030   2.782   2.299   7.077  0.2523  0.1961 -0.5755
  123OSM    H6S13031   2.688   2.351   7.051 -2.0388 -3.7923 -0.6367
  123OSM    H6T13032   2.842   2.366   7.143 -1.2864 -0.4546  1.5305
  123OSM    C7S13033   2.739   2.177   7.162  0.2657  0.3167  0.1064
  123OSM    H7S13034   2.823   2.105   7.176  0.7595  0.4254 -2.0896
  123OSM    H7T13035   2.655   2.123   7.113  1.1063 -1.5875  0.6965
  123OSM    C8S13036   2.694   2.238   7.297 -0.1932  0.2018 -0.0683
  123OSM    H8S13037   2.625   2.321   7.274  1.7240  1.3167 -1.9982
  123OSM    H8T13038   2.779   2.282   7.354  1.3209 -0.9286 -1.3851
  123OSM    C9S13039   2.623   2.138   7.387  0.5360 -1.1404 -0.2511
  123OSM    H9S13040   2.701   2.065   7.418 -0.4530 -1.8231  0.6716
  123OSM    H9T13041   2.537   2.091   7.336  0.0469  1.0105 -1.4338
  123OSM   C10S13042   2.578   2.206   7.521 -0.5477 -0.2494  0.1714
  123OSM   H10S13043   2.525   2.301   7.499  0.5787  0.3175 -0.1536
  123OSM   H10T13044   2.665   2.228   7.588  0.0866  0.5265 -0.8753
  123OSM   C11S13045   2.472   2.114   7.599 -0.3612  0.0835  0.7364
  123OSM   H11S13046   2.523   2.017   7.621  0.7924  0.7832  1.1782
  123OSM   H11T13047   2.387   2.095   7.531 -0.4841  0.0466  0.9006
  123OSM   C12S13048   2.431   2.182   7.730 -0.0253 -0.1359 -0.6192
  123OSM   H12S13049   2.403   2.286   7.705 -1.9577 -0.5261 -0.1873
  123OSM   H12T13050   2.515   2.175   7.803 -0.1355 -0.3988 -0.5173
  123OSM   C13S13051   2.317   2.106   7.804 -0.2291  0.4918  0.3729
  123OSM   H13S13052   2.329   1.998   7.824 -0.1061  0.4110 -0.1194
  123OSM   H13T13053   2.231   2.105   7.733  0.8245 -0.3531 -0.9259
  123OSM   C14S13054   2.272   2.177   7.935 -0.0533  0.4399  0.5934
  123OSM   H14S13055   2.266   2.284   7.908 -0.1607  0.3091  0.0911
  123OSM   H14T13056   2.360   2.172   8.002 -0.9633  0.1970  1.7949
  123OSM   C15S13057   2.138   2.122   7.990 -0.5081  0.4070 -0.0385
  123OSM   H15S13058   2.131   2.012   7.995 -1.3833  0.5613  2.8181
  123OSM   H15T13059   2.060   2.162   7.921  0.2294  0.0182 -1.1029
  123OSM   C16S13060   2.115   2.174   8.133 -0.1300  1.1312 -0.2900
  123OSM   H16S13061   2.203   2.169   8.201 -0.0637 -0.5241 -0.4542
  123OSM   H16T13062   2.027   2.128   8.184  0.7786  1.9090  2.0488
  123OSM   C17S13063   2.069   2.323   8.148  0.1599  0.0883 -0.0719
  123OSM   H17S13064   1.969   2.323   8.099 -0.4272 -2.4565  1.0299
  123OSM   H17T13065   2.133   2.388   8.086 -1.4916 -0.4528 -2.4294
  123OSM   C18S13066   2.045   2.367   8.294  0.5882  0.1007 -0.6404
  123OSM   H18S13067   1.968   2.309   8.349  0.3294  2.1627  1.2081
  123OSM   H18T13068   2.020   2.475   8.286  0.1432 -0.0505 -1.3328
  123OSM   H18U13069   2.145   2.370   8.341 -0.5425 -0.5861  1.8702
  123OSM    C1F13070   3.219   1.918   6.991  0.3374  0.8832 -0.5822
  123OSM     OF13071   3.324   1.964   6.944  0.3629 -0.3540  0.4281
  123OSM    C2F13072   3.213   1.852   7.126 -0.3975  0.1038 -0.1438
  123OSM    H2F13073   3.110   1.811   7.131 -0.9048  1.2922 -0.5354
  123OSM    H2G13074   3.233   1.920   7.212  3.2888 -1.2995  0.2025
  123OSM    C3F13075   3.301   1.730   7.136  0.1030 -0.1810 -0.3028
  123OSM    H3F13076   3.406   1.759   7.115  0.9205 -1.8822  1.2988
  123OSM    H3G13077   3.268   1.661   7.055 -0.0180 -2.8001  1.9168
  123OSM    C4F13078   3.291   1.644   7.269 -0.0730 -0.8861 -0.4270
  123OSM    H4F13079   3.356   1.556   7.246 -1.1561 -1.5684 -0.9208
  123OSM    H4G13080   3.185   1.611   7.276 -0.0335 -1.3342 -1.7853
  123OSM    C5F13081   3.347   1.718   7.395  0.0223 -0.0973 -0.3379
  123OSM    H5F13082   3.297   1.817   7.403  2.1813  1.0027 -0.2779
  123OSM    H5G13083   3.455   1.738   7.379  0.0693 -0.6907 -0.7882
  123OSM    C6F13084   3.310   1.630   7.522  0.2980 -0.1066 -0.3927
  123OSM    H6F13085   3.352   1.531   7.495 -0.4228 -0.2217 -1.0897
  123OSM    H6G13086   3.202   1.615   7.542  0.8234 -2.2421  0.9546
  123OSM    C7F13087   3.366   1.691   7.652 -0.0305 -0.9834  0.6866
  123OSM    H7F13088   3.339   1.798   7.665 -1.4049 -0.6126 -4.3909
  123OSM    H7G13089   3.475   1.709   7.638 -0.2255 -0.5534 -0.3456
  123OSM    C8F13090   3.338   1.625   7.786  0.4477 -0.1384  0.0619
  123OSM    H8F13091   3.398   1.681   7.861 -1.8929  1.3122  0.8783
  123OSM    H8G13092   3.357   1.515   7.795 -0.2255 -0.3639 -1.2546
  123OSM    C9F13093   3.201   1.635   7.830 -0.6630  0.0028  0.4481
  123OSM    H9F13094   3.136   1.635   7.741  0.4631 -3.1917 -0.4144
  123OSM   C10F13095   3.149   1.652   7.949  0.4669  0.6387 -0.1205
  123OSM   H10F13096   3.039   1.656   7.957  0.4569  1.7046 -0.6329
  123OSM   C11F13097   3.216   1.658   8.083  0.3290  0.4903 -0.0318
  123OSM   H11F13098   3.157   1.725   8.150 -1.0893 -0.9873  0.2385
  123OSM   H11G13099   3.309   1.717   8.075  0.0293  1.1062  0.9536
  123OSM   C12F13100   3.242   1.534   8.172  0.2506  0.0516  0.0685
  123OSM   H12F13101   3.317   1.481   8.111  0.1366  1.4845 -1.3596
  123OSM   H12G13102   3.148   1.476   8.181  0.9639 -1.0807  0.2268
  123OSM   C13F13103   3.316   1.571   8.303  0.2889  0.0647 -0.7003
  123OSM   H13F13104   3.249   1.632   8.367 -0.1088 -2.1600  1.0595
  123OSM   H13G13105   3.399   1.638   8.271  0.1672 -0.2715 -1.7213
  123OSM   C14F13106   3.355   1.451   8.394  0.3503 -0.0107 -0.9630
  123OSM   H14F13107   3.411   1.500   8.477 -0.0096  0.5575 -1.0540
  123OSM   H14G13108   3.425   1.382   8.343 -0.2245 -0.8313 -0.6648
  123OSM   C15F13109   3.231   1.389   8.464  0.4191  0.1996  0.4629
  123OSM   H15F13110   3.238   1.282   8.491  0.0297 -0.0613 -0.4354
  123OSM   H15G13111   3.153   1.385   8.384 -0.2764 -2.4501  1.2299
  123OSM   C16F13112   3.176   1.464   8.589  1.0287  0.0151  0.3103
  123OSM   H16F13113   3.090   1.405   8.625 -1.0338  2.2509 -0.8379
  123OSM   H16G13114   3.148   1.569   8.565  1.2022 -0.7542 -3.6536
  123OSM   C17F13115   3.282   1.457   8.702  0.2113 -0.6046 -0.5701
  123OSM   H17F13116   3.377   1.512   8.686  1.0904 -1.9075  0.0533
  123OSM   H17G13117   3.294   1.348   8.720 -0.5948 -0.4355  1.1755
  123OSM   C18F13118   3.228   1.525   8.829 -0.5604  0.4638 -0.3767
  123OSM   H18F13119   3.147   1.464   8.875  0.2825  0.3281  0.9467
  123OSM   H18G13120   3.188   1.628   8.819 -0.9880  0.4663  1.1095
  123OSM   H18H13121   3.302   1.534   8.911 -1.2588  2.5775  0.0534
  124OSM      N13122   4.211   4.768   6.085 -0.4300  0.0191 -0.0671
  124OSM    C1513123   4.279   4.854   5.981 -0.2512 -0.6775 -0.6573
  124OSM   H15A13124   4.273   4.810   5.883  2.7036  0.7033 -1.5053
  124OSM   H15B13125   4.384   4.865   6.002 -1.0631 -0.6278  4.0261
  124OSM   H15C13126   4.236   4.953   5.973 -1.6144 -0.9089  2.8370
  124OSM    C1413127   4.076   4.730   6.027  0.4875 -0.0226  0.0697
  124OSM   H14A13128   4.024   4.822   6.007 -0.4781 -0.3519  1.0132
  124OSM   H14B13129   4.029   4.660   6.094  2.1504  0.3458  1.6831
  124OSM   H14C13130   4.084   4.679   5.933  2.2319  2.2716 -1.0825
  124OSM    C1313131   4.296   4.641   6.095  0.2411 -0.6780 -0.0533
  124OSM   H13A13132   4.315   4.598   5.998 -0.4959  0.1919 -0.5877
  124OSM   H13B13133   4.248   4.565   6.154  2.8106 -1.2324  1.4005
  124OSM   H13C13134   4.390   4.662   6.144  1.5737 -0.1137 -2.7625
  124OSM    C1213135   4.204   4.833   6.217 -0.6421 -0.0229 -0.5254
  124OSM   H12A13136   4.306   4.850   6.249 -0.4320 -0.3389 -1.0213
  124OSM   H12B13137   4.165   4.757   6.283  1.2896 -1.1994 -0.7013
  124OSM    C1113138   4.115   4.957   6.239 -0.3924 -0.4402 -0.3527
  124OSM   H11A13139   4.111   4.980   6.347 -1.9971  1.1421 -0.7262
  124OSM   H11B13140   4.013   4.921   6.213 -0.7774 -1.2668  2.1828
  124OSM      P13141   4.254   5.174   6.214  0.2209  0.2290 -0.0867
  124OSM    O1313142   4.275   5.285   6.117  0.0744 -0.1182 -0.6349
  124OSM    O1413143   4.213   5.211   6.351  0.1431 -0.0855 -0.1945
  124OSM    O1113144   4.384   5.086   6.222  0.9308 -0.6666  0.1977
  124OSM    O1213145   4.155   5.064   6.152 -0.0436 -0.3467  0.2713
  124OSM    C1S13146   4.483   5.118   6.319  0.1012  0.1436 -0.3201
  124OSM    H1S13147   4.456   5.210   6.375  0.7812  1.7752 -2.5775
  124OSM    H1T13148   4.576   5.145   6.266  0.7488 -0.2008  0.6349
  124OSM     NF13149   4.611   5.038   6.511 -0.9572 -0.1950 -0.1624
  124OSM    HNF13150   4.704   5.004   6.512 -0.6095  0.2170 -5.3601
  124OSM    C2S13151   4.513   4.993   6.405 -0.1980 -0.3228  0.0265
  124OSM    H2S13152   4.417   4.951   6.443 -1.5142  0.3674 -2.4269
  124OSM    C3S13153   4.579   4.876   6.318  0.7503 -0.4033  0.4001
  124OSM    H3S13154   4.687   4.898   6.305  0.7108 -0.7249 -0.4766
  124OSM     O313155   4.516   4.864   6.187 -0.6919  0.1120  0.7218
  124OSM    HO313156   4.467   4.947   6.184 -0.3326  0.3100  0.2031
  124OSM    C4S13157   4.554   4.744   6.383 -0.8387  0.2354  0.4368
  124OSM    H4S13158   4.459   4.693   6.361 -0.3703 -0.0796 -0.9017
  124OSM    C5S13159   4.638   4.674   6.465 -0.3993 -0.5032  0.7288
  124OSM    H5S13160   4.732   4.727   6.489 -1.1241  1.3585 -0.4598
  124OSM    C6S13161   4.618   4.550   6.547  0.2350  0.1786  0.3787
  124OSM    H6S13162   4.708   4.485   6.552 -0.8412 -1.4027 -0.2580
  124OSM    H6T13163   4.537   4.480   6.518 -0.5631  2.1430 -2.3098
  124OSM    C7S13164   4.589   4.597   6.694 -0.5489 -0.1295 -0.3004
  124OSM    H7S13165   4.574   4.512   6.764 -1.3892 -0.3181 -0.7013
  124OSM    H7T13166   4.509   4.671   6.676  1.6838  1.8620 -2.3735
  124OSM    C8S13167   4.701   4.684   6.758  0.2357 -0.1857 -0.1641
  124OSM    H8S13168   4.708   4.780   6.703 -0.1958  0.1894  0.4233
  124OSM    H8T13169   4.794   4.624   6.752  0.4371  0.2051 -0.9512
  124OSM    C9S13170   4.689   4.713   6.911  1.2265  0.2406  0.3839
  124OSM    H9S13171   4.616   4.795   6.925  0.2356 -0.5590 -0.0596
  124OSM    H9T13172   4.789   4.752   6.942  1.5531 -0.4207  0.1807
  124OSM   C10S13173   4.630   4.598   7.002  0.2591 -0.0474 -0.4728
  124OSM   H10S13174   4.684   4.503   6.982  0.2444 -0.2310  0.3610
  124OSM   H10T13175   4.522   4.585   6.980  0.4050 -0.9311 -0.7107
  124OSM   C11S13176   4.646   4.620   7.154  0.7109 -0.5803  0.9529
  124OSM   H11S13177   4.586   4.710   7.181 -0.2603 -0.3677 -1.8181
  124OSM   H11T13178   4.751   4.642   7.182  1.0456  1.2313 -1.6571
  124OSM   C12S13179   4.596   4.505   7.239  0.2025 -0.2953  0.4062
  124OSM   H12S13180   4.672   4.425   7.229 -0.9158 -1.5288  1.5588
  124OSM   H12T13181   4.496   4.468   7.209 -1.1635  2.3728  1.4152
  124OSM   C13S13182   4.579   4.542   7.393  0.7883  0.5755 -0.5354
  124OSM   H13S13183   4.508   4.628   7.398  0.1367  0.0032  0.1533
  124OSM   H13T13184   4.679   4.578   7.427  0.5040  1.0575 -0.2041
  124OSM   C14S13185   4.513   4.430   7.473 -0.5641 -0.0805  0.2356
  124OSM   H14S13186   4.572   4.338   7.458  0.9732  0.6038  1.8926
  124OSM   H14T13187   4.409   4.404   7.443 -0.5843 -2.1030  1.9246
  124OSM   C15S13188   4.510   4.445   7.627  0.2551 -0.3783 -0.3949
  124OSM   H15S13189   4.612   4.445   7.671 -0.3111  1.0863  0.9827
  124OSM   H15T13190   4.465   4.351   7.668  3.0540 -0.1057  3.6979
  124OSM   C16S13191   4.427   4.570   7.669 -0.1090 -0.4774 -0.0530
  124OSM   H16S13192   4.344   4.574   7.596  1.3077 -0.6674 -1.7144
  124OSM   H16T13193   4.494   4.656   7.647 -1.4774  0.3769 -0.9207
  124OSM   C17S13194   4.380   4.573   7.817  0.2361 -0.2972  0.3579
  124OSM   H17S13195   4.347   4.475   7.857  1.0578  0.1852  2.3045
  124OSM   H17T13196   4.309   4.658   7.826  0.1164 -0.3111 -0.4156
  124OSM   C18S13197   4.500   4.606   7.911 -0.6370  0.3492  0.2990
  124OSM   H18S13198   4.575   4.525   7.917 -0.3826  0.5996  0.5536
  124OSM   H18T13199   4.461   4.622   8.013 -0.6259 -1.5504  0.6083
  124OSM   H18U13200   4.537   4.707   7.880  0.0790  0.2806  0.9059
  124OSM    C1F13201   4.569   5.114   6.609  0.0881 -0.1263 -0.3588
  124OSM     OF13202   4.451   5.151   6.618  0.0093 -0.2567 -0.6170
  124OSM    C2F13203   4.669   5.146   6.716  0.3775  0.2231 -0.1291
  124OSM    H2F13204   4.702   5.252   6.706 -1.1012  0.6055 -1.2060
  124OSM    H2G13205   4.750   5.070   6.714 -1.9826 -2.4608  1.7582
  124OSM    C3F13206   4.606   5.144   6.858 -0.0394  0.1477  0.3049
  124OSM    H3F13207   4.552   5.049   6.877  1.6158 -0.9784 -0.4796
  124OSM    H3G13208   4.531   5.226   6.870 -1.1922 -0.7745 -0.5229
  124OSM    C4F13209   4.713   5.147   6.958  0.6669  0.2229 -0.1852
  124OSM    H4F13210   4.742   5.250   6.985  0.1137  0.0470  1.0938
  124OSM    H4G13211   4.805   5.103   6.914  0.4352 -1.5865  1.1076
  124OSM    C5F13212   4.677   5.066   7.082 -0.3058 -0.1046  0.9142
  124OSM    H5F13213   4.680   4.957   7.065 -0.4402  0.0990 -0.4472
  124OSM    H5G13214   4.570   5.085   7.105 -0.5832  0.8010 -1.0400
  124OSM    C6F13215   4.755   5.108   7.201  0.2389 -0.0362  0.5867
  124OSM    H6F13216   4.715   5.211   7.216  1.0813 -0.0902  3.4692
  124OSM    H6G13217   4.864   5.121   7.183 -0.0671 -0.2641 -1.5031
  124OSM    C7F13218   4.743   5.002   7.326  0.3003 -0.6988  1.4271
  124OSM    H7F13219   4.798   4.909   7.298  1.9047  0.2411  1.3557
  124OSM    H7G13220   4.634   4.980   7.325  0.5625 -2.0490  1.1056
  124OSM    C8F13221   4.799   5.054   7.458  0.0028 -0.0478  0.3626
  124OSM    H8F13222   4.751   5.153   7.475 -1.7254 -1.3752  3.6978
  124OSM    H8G13223   4.907   5.080   7.460 -0.0925  0.2335  2.2010
  124OSM    C9F13224   4.753   4.970   7.572  0.3393 -0.0038 -1.2604
  124OSM    H9F13225   4.645   4.953   7.573  0.0147  1.8553 -2.3629
  124OSM   C10F13226   4.831   4.901   7.647  0.7900  0.7708  0.0375
  124OSM   H10F13227   4.791   4.846   7.734  3.0303  0.9561  1.2246
  124OSM   C11F13228   4.982   4.898   7.646 -0.4712 -1.0216 -0.0421
  124OSM   H11F13229   5.023   4.911   7.749 -0.4745 -2.4538  0.1497
  124OSM   H11G13230   5.025   4.990   7.599  0.1293 -0.2130  2.0279
  124OSM   C12F13231   5.050   4.776   7.580 -0.3420 -0.3776 -0.5013
  124OSM   H12F13232   5.039   4.676   7.628 -0.6139  0.0185  0.2656
  124OSM   H12G13233   5.158   4.798   7.595 -0.6019  1.9705 -1.9749
  124OSM   C13F13234   5.025   4.755   7.432  0.8785  0.5153  0.2172
  124OSM   H13F13235   4.915   4.757   7.414  0.8915  1.3658  0.2033
  124OSM   H13G13236   5.068   4.656   7.407 -0.9654 -0.7329  1.7673
  124OSM   C14F13237   5.090   4.855   7.341 -0.5594  0.2205  0.7682
  124OSM   H14F13238   5.199   4.846   7.361 -0.3811 -4.7290 -1.7057
  124OSM   H14G13239   5.045   4.954   7.362 -2.2104  0.3174 -2.8144
  124OSM   C15F13240   5.071   4.826   7.187 -0.2597  0.1006  0.0152
  124OSM   H15F13241   4.966   4.809   7.157  0.4516 -1.3326 -1.7302
  124OSM   H15G13242   5.127   4.730   7.178 -1.0522 -0.6384  2.3720
  124OSM   C16F13243   5.115   4.937   7.093 -0.1211  0.0952  0.2356
  124OSM   H16F13244   5.216   4.975   7.121  0.7926 -1.9881 -0.1319
  124OSM   H16G13245   5.049   5.026   7.092  0.4405  0.5146  0.0033
  124OSM   C17F13246   5.119   4.900   6.935 -0.2642 -0.1690 -0.0770
  124OSM   H17F13247   5.147   4.995   6.884 -2.3588  0.3459 -0.3283
  124OSM   H17G13248   5.018   4.864   6.905 -0.4176 -0.3517  0.6337
  124OSM   C18F13249   5.215   4.790   6.886 -0.2736 -0.2795  0.0628
  124OSM   H18F13250   5.317   4.827   6.908 -0.9094  1.2858  0.4437
  124OSM   H18G13251   5.206   4.788   6.776 -1.2201 -4.9522  0.1089
  124OSM   H18H13252   5.195   4.696   6.941  6.0132 -0.6095  2.1767
  125OSM      N13253   0.131   4.365   6.242 -0.0720 -0.6329  0.0249
  125OSM    C1513254   0.205   4.345   6.371  0.5470  0.1895  0.0810
  125OSM   H15A13255   0.303   4.388   6.366  0.4332  0.4914  0.3890
  125OSM   H15B13256   0.208   4.237   6.381 -1.8652  0.0494 -0.3260
  125OSM   H15C13257   0.146   4.385   6.453 -2.5786  0.7045 -2.3174
  125OSM    C1413258  -0.011   4.300   6.263 -0.0770  0.0848 -0.2557
  125OSM   H14A13259  -0.060   4.330   6.354 -0.0906  2.0051 -0.8585
  125OSM   H14B13260  -0.008   4.192   6.259  1.1244  0.1401 -1.4183
  125OSM   H14C13261  -0.068   4.337   6.178 -0.4371  1.7864  0.7079
  125OSM    C1313262   0.096   4.508   6.225  0.1051 -0.5514 -0.0531
  125OSM   H13A13263   0.022   4.538   6.298  0.9025 -1.8631  1.3273
  125OSM   H13B13264   0.059   4.525   6.125 -0.4103 -2.1729 -0.1425
  125OSM   H13C13265   0.174   4.583   6.235  0.0199 -0.3686 -0.7973
  125OSM    C1213266   0.204   4.307   6.125 -0.0967  0.2264 -0.1499
  125OSM   H12A13267   0.293   4.360   6.096  0.0859 -0.3736 -0.6988
  125OSM   H12B13268   0.140   4.321   6.039  0.2546 -0.1893 -0.4817
  125OSM    C1113269   0.239   4.156   6.121 -0.3686 -0.3595 -0.2478
  125OSM   H11A13270   0.289   4.141   6.023  1.8165  0.8733  0.6282
  125OSM   H11B13271   0.141   4.104   6.125 -2.0755  2.7046 -0.5595
  125OSM      P13272   0.377   3.989   6.283 -0.5279  0.0092  0.1977
  125OSM    O1313273   0.318   3.874   6.211 -0.6028 -0.7620 -0.5278
  125OSM    O1413274   0.522   3.990   6.295 -0.0186 -0.1998  0.1332
  125OSM    O1113275   0.325   3.996   6.431  0.4701  0.6324 -0.3712
  125OSM    O1213276   0.334   4.131   6.224  0.3524  0.0403 -0.4989
  125OSM    C1S13277   0.234   3.901   6.488 -0.2318 -0.3115  0.0748
  125OSM    H1S13278   0.242   3.805   6.433  3.9444 -2.3785  3.9340
  125OSM    H1T13279   0.130   3.935   6.472 -0.4227 -0.5746  0.7347
  125OSM     NF13280   0.221   3.761   6.691  0.0424  0.2482 -0.5642
  125OSM    HNF13281   0.142   3.769   6.752 -0.4327 -2.6153 -0.6924
  125OSM    C2S13282   0.266   3.889   6.639  0.3804 -0.5340 -0.2998
  125OSM    H2S13283   0.377   3.892   6.645  0.4175 -3.8478  2.1011
  125OSM    C3S13284   0.207   4.013   6.712  0.4932  0.0789 -0.0988
  125OSM    H3S13285   0.096   4.008   6.707  0.4618  1.1462 -0.7693
  125OSM     O313286   0.235   4.137   6.649 -0.0270  0.0507  0.6867
  125OSM    HO313287   0.277   4.110   6.567 -0.0027  0.9387  0.4112
  125OSM    C4S13288   0.258   4.016   6.849 -0.3146  0.2604 -0.3342
  125OSM    H4S13289   0.366   4.030   6.840 -0.2402  0.1281  0.3059
  125OSM    C5S13290   0.199   4.023   6.971  0.1194  0.5995  0.1342
  125OSM    H5S13291   0.090   4.018   6.985  0.0198 -0.4359 -0.9398
  125OSM    C6S13292   0.280   4.032   7.097 -0.2626  0.2344  0.5300
  125OSM    H6S13293   0.367   4.099   7.078 -0.4276 -0.3941 -2.6913
  125OSM    H6T13294   0.310   3.928   7.126  0.2300  0.5735  1.2599
  125OSM    C7S13295   0.218   4.111   7.210  0.2244 -0.5504 -0.4415
  125OSM    H7S13296   0.114   4.085   7.239  0.5098  1.5084  2.5951
  125OSM    H7T13297   0.211   4.221   7.193 -3.0032 -0.7067 -0.5166
  125OSM    C8S13298   0.303   4.099   7.338 -0.1900 -0.3033 -0.1208
  125OSM    H8S13299   0.391   4.167   7.335  0.9570 -1.6862  1.5037
  125OSM    H8T13300   0.336   3.994   7.345 -2.4858 -1.3092 -3.1888
  125OSM    C9S13301   0.226   4.127   7.459 -0.1094  0.0474 -0.2924
  125OSM    H9S13302   0.148   4.049   7.470  0.6637 -0.6332  0.4557
  125OSM    H9T13303   0.176   4.226   7.451 -1.9812 -0.9963 -1.8424
  125OSM   C10S13304   0.318   4.119   7.581 -0.1918 -0.6834 -0.1049
  125OSM   H10S13305   0.384   4.207   7.569  1.6019 -1.7579  1.6412
  125OSM   H10T13306   0.381   4.027   7.580 -2.6866 -2.4560  1.0858
  125OSM   C11S13307   0.236   4.132   7.705  1.0786 -0.0014 -0.5595
  125OSM   H11S13308   0.136   4.087   7.688 -0.2578  2.9460 -0.7377
  125OSM   H11T13309   0.229   4.242   7.718 -1.4726 -0.0279 -1.4527
  125OSM   C12S13310   0.293   4.073   7.842  0.4477  0.6760 -0.0886
  125OSM   H12S13311   0.397   4.114   7.844  1.4564 -1.7792 -0.8023
  125OSM   H12T13312   0.299   3.965   7.820  2.2029  0.6087  0.6592
  125OSM   C13S13313   0.205   4.092   7.967 -0.5876  0.2798 -0.0099
  125OSM   H13S13314   0.108   4.037   7.960  0.3033 -1.3770  0.2944
  125OSM   H13T13315   0.174   4.197   7.984 -1.0467  0.0777  0.4442
  125OSM   C14S13316   0.287   4.049   8.089 -0.2668  0.2601 -0.2946
  125OSM   H14S13317   0.259   4.121   8.169 -0.0617  0.5781 -0.5098
  125OSM   H14T13318   0.396   4.057   8.075 -0.1608  0.1482  0.4481
  125OSM   C15S13319   0.243   3.913   8.130 -0.3191  0.2047  0.5781
  125OSM   H15S13320   0.255   3.850   8.038  0.8846 -0.4348  1.1659
  125OSM   H15T13321   0.143   3.896   8.175 -0.6640 -2.2396 -0.9780
  125OSM   C16S13322   0.345   3.848   8.229 -0.0755 -0.2984 -0.1339
  125OSM   H16S13323   0.445   3.864   8.183 -0.4783 -0.7435 -1.1962
  125OSM   H16T13324   0.328   3.738   8.223  0.4447 -0.7050  4.6035
  125OSM   C17S13325   0.330   3.901   8.370  0.0699 -0.0399 -0.5881
  125OSM   H17S13326   0.225   3.892   8.403  0.4992  2.6503  1.7668
  125OSM   H17T13327   0.369   4.005   8.370  0.1076 -0.0497  0.1459
  125OSM   C18S13328   0.406   3.823   8.481 -0.1864 -0.0631  0.2418
  125OSM   H18S13329   0.355   3.856   8.574 -0.3606 -0.3169  0.2371
  125OSM   H18T13330   0.515   3.841   8.475 -0.3818  0.7050 -1.4064
  125OSM   H18U13331   0.391   3.717   8.453  1.7154 -0.3895  0.4054
  125OSM    C1F13332   0.269   3.646   6.647 -0.6559 -0.6477 -0.5200
  125OSM     OF13333   0.367   3.643   6.573  0.2336  0.2333 -0.2610
  125OSM    C2F13334   0.192   3.518   6.668  0.4560  0.0769 -0.2216
  125OSM    H2F13335   0.184   3.469   6.569 -0.9687 -2.2061  0.9619
  125OSM    H2G13336   0.083   3.536   6.680  0.2259 -1.4015  0.0990
  125OSM    C3F13337   0.239   3.427   6.779 -0.3288 -0.4917 -0.0446
  125OSM    H3F13338   0.219   3.485   6.871  2.2752 -0.8896  0.8059
  125OSM    H3G13339   0.349   3.415   6.774 -0.5489 -3.0174  0.6202
  125OSM    C4F13340   0.168   3.296   6.790 -0.2521  0.4247 -0.0625
  125OSM    H4F13341   0.149   3.253   6.689  0.9766  3.0006 -1.4293
  125OSM    H4G13342   0.063   3.321   6.820  0.3470  3.6986 -0.5606
  125OSM    C5F13343   0.222   3.196   6.892  0.0563 -0.3062  0.6702
  125OSM    H5F13344   0.322   3.168   6.853  0.5269  0.0126  1.6158
  125OSM    H5G13345   0.159   3.105   6.885 -2.8054  1.7776 -1.6029
  125OSM    C6F13346   0.243   3.239   7.036  0.0105  0.4768  0.6756
  125OSM    H6F13347   0.148   3.261   7.089  0.9816  1.5993  1.9902
  125OSM    H6G13348   0.300   3.334   7.026  2.4093 -0.7088  2.4775
  125OSM    C7F13349   0.306   3.138   7.132  0.6923  0.0418  0.6397
  125OSM    H7F13350   0.391   3.097   7.074 -0.9698  0.8017 -2.4487
  125OSM    H7G13351   0.235   3.053   7.143  2.1404 -1.4377 -1.1507
  125OSM    C8F13352   0.354   3.208   7.264  0.3770 -0.5211 -0.6985
  125OSM    H8F13353   0.269   3.266   7.304  1.9607  0.8463  0.7614
  125OSM    H8G13354   0.430   3.279   7.226  0.1022  0.3857  0.4197
  125OSM    C9F13355   0.416   3.113   7.367 -0.8725  0.2632 -0.7167
  125OSM    H9F13356   0.503   3.064   7.322  0.6838  1.7110  0.6710
  125OSM   C10F13357   0.357   3.079   7.482 -0.1655 -0.0452  0.5979
  125OSM   H10F13358   0.419   3.011   7.543  2.0077 -0.3525 -1.8943
  125OSM   C11F13359   0.233   3.139   7.541 -0.1635 -0.0031  0.1488
  125OSM   H11F13360   0.143   3.084   7.506  0.5664  0.2459 -2.2178
  125OSM   H11G13361   0.216   3.242   7.501 -0.7034 -0.1583 -0.0270
  125OSM   C12F13362   0.223   3.139   7.694 -0.6021  0.3458  0.5067
  125OSM   H12F13363   0.123   3.174   7.729 -1.1449 -0.6152 -0.0772
  125OSM   H12G13364   0.305   3.202   7.735 -1.8826  0.7122  2.6163
  125OSM   C13F13365   0.243   2.995   7.754  0.1772 -0.1752 -0.1017
  125OSM   H13F13366   0.351   2.967   7.748 -0.1561 -1.9917  1.8150
  125OSM   H13G13367   0.189   2.920   7.693 -1.0560  0.3736  0.3096
  125OSM   C14F13368   0.195   2.979   7.900  0.8460  0.0939  0.3005
  125OSM   H14F13369   0.268   3.035   7.962  0.8551  2.2201 -1.5663
  125OSM   H14G13370   0.184   2.873   7.931 -0.1694 -0.1762 -0.9368
  125OSM   C15F13371   0.055   3.037   7.932 -0.5106 -0.0441 -0.0735
  125OSM   H15F13372  -0.028   3.007   7.864 -0.1746 -2.0083  0.3495
  125OSM   H15G13373   0.058   3.148   7.923  2.3030 -0.1455 -0.7220
  125OSM   C16F13374   0.023   3.002   8.081 -0.3822  0.5187 -0.3110
  125OSM   H16F13375   0.050   2.899   8.111 -3.0968  0.2930  1.4959
  125OSM   H16G13376  -0.088   3.008   8.089 -0.2728 -0.2473  1.8985
  125OSM   C17F13377   0.084   3.107   8.181 -0.2816 -0.6068 -0.9347
  125OSM   H17F13378   0.110   3.203   8.131  2.0933 -1.2508 -1.0425
  125OSM   H17G13379   0.187   3.066   8.197 -0.6494 -2.0142 -2.0208
  125OSM   C18F13380   0.015   3.115   8.318  0.0893 -0.1326 -0.6635
  125OSM   H18F13381  -0.092   3.132   8.297 -0.1850 -2.3832 -1.3395
  125OSM   H18G13382   0.069   3.189   8.379 -2.8210  1.6700 -0.2021
  125OSM   H18H13383   0.028   3.022   8.377  2.0228  1.5385  1.6472
  126OSM      N13384   4.367   0.952   6.603  0.5592 -0.1609 -0.2772
  126OSM    C1513385   4.269   0.916   6.497  0.3470 -0.1707 -0.0257
  126OSM   H15A13386   4.169   0.945   6.524  0.8063 -0.0400  1.6468
  126OSM   H15B13387   4.264   0.809   6.491 -1.1804 -0.1425  0.5537
  126OSM   H15C13388   4.296   0.963   6.404 -2.8654 -0.0579 -0.9254
  126OSM    C1413389   4.337   0.870   6.725 -0.1474 -0.3520  0.6778
  126OSM   H14A13390   4.368   0.768   6.703  1.5510  0.3684 -0.3537
  126OSM   H14B13391   4.231   0.882   6.742 -0.1418 -0.9241  1.1669
  126OSM   H14C13392   4.393   0.907   6.809  0.5246 -0.6661  0.3773
  126OSM    C1313393   4.503   0.941   6.549  0.2599 -0.4158 -0.8117
  126OSM   H13A13394   4.574   0.953   6.629 -0.7990 -1.2770  0.2791
  126OSM   H13B13395   4.509   1.001   6.459  1.1440 -2.1848 -1.9765
  126OSM   H13C13396   4.511   0.837   6.522 -1.3991 -0.5665 -0.7501
  126OSM    C1213397   4.346   1.096   6.647 -0.1246  0.5793  0.1132
  126OSM   H12A13398   4.338   1.167   6.566 -1.0281  0.8123  0.4009
  126OSM   H12B13399   4.430   1.132   6.704  0.7249 -0.8433 -0.1916
  126OSM    C1113400   4.219   1.116   6.734 -0.7347  0.1114  0.2280
  126OSM   H11A13401   4.207   1.227   6.741 -2.7145 -0.1403  1.2974
  126OSM   H11B13402   4.219   1.072   6.836 -1.9438 -1.9705 -0.6398
  126OSM      P13403   3.997   1.163   6.603  0.1426 -0.2068 -0.3013
  126OSM    O1313404   4.058   1.268   6.519  0.2101  0.0775  0.0150
  126OSM    O1413405   3.907   1.069   6.533 -0.4357  0.4579  0.6921
  126OSM    O1113406   3.930   1.223   6.732  0.8395  0.1106 -0.4859
  126OSM    O1213407   4.101   1.065   6.666 -0.5339 -0.0898  0.0883
  126OSM    C1S13408   3.888   1.139   6.838  0.4305 -0.1518  0.8482
  126OSM    H1S13409   3.955   1.057   6.871  0.6030 -0.8211 -1.1222
  126OSM    H1T13410   3.790   1.093   6.811  0.8672 -0.8132  0.3571
  126OSM     NF13411   3.863   1.124   7.088 -0.4969  0.3578 -0.0711
  126OSM    HNF13412   3.779   1.113   7.141 -0.4027  1.6614  0.3644
  126OSM    C2S13413   3.870   1.214   6.973  0.3511 -0.0838 -0.6834
  126OSM    H2S13414   3.960   1.278   6.980  2.4549 -3.1155  0.9748
  126OSM    C3S13415   3.752   1.315   6.960  0.2863  0.2892  0.3222
  126OSM    H3S13416   3.654   1.266   6.941  1.5397 -2.0377 -0.3497
  126OSM     O313417   3.759   1.390   6.839  0.1829 -0.0620 -0.3418
  126OSM    HO313418   3.835   1.358   6.790  1.7123 -0.3469  2.1205
  126OSM    C4S13419   3.738   1.400   7.089 -0.3662  0.2510  0.1375
  126OSM    H4S13420   3.684   1.348   7.168 -0.5407  0.4131  0.1250
  126OSM    C5S13421   3.797   1.523   7.108  0.6042 -0.1936  0.2483
  126OSM    H5S13422   3.835   1.577   7.020 -3.8912  2.3217 -0.3394
  126OSM    C6S13423   3.789   1.619   7.228  0.1560 -0.5891  0.4509
  126OSM    H6S13424   3.732   1.711   7.202  1.0511 -0.1739 -0.0580
  126OSM    H6T13425   3.890   1.651   7.260  1.1310 -4.1314  1.0811
  126OSM    C7S13426   3.726   1.557   7.351 -0.4227  0.0020 -0.0919
  126OSM    H7S13427   3.799   1.480   7.383  1.1936  1.0838 -1.0448
  126OSM    H7T13428   3.620   1.525   7.346 -0.0298 -1.1803 -0.9151
  126OSM    C8S13429   3.742   1.656   7.468 -0.0120  0.1968 -0.0708
  126OSM    H8S13430   3.666   1.738   7.465  0.3376  0.5080 -0.4280
  126OSM    H8T13431   3.844   1.699   7.473  0.2079  0.0020 -2.3542
  126OSM    C9S13432   3.715   1.587   7.603  0.2191 -0.5971  0.0310
  126OSM    H9S13433   3.777   1.496   7.612  0.9426 -0.1188 -0.1357
  126OSM    H9T13434   3.614   1.540   7.597  0.0214 -0.2202  0.3107
  126OSM   C10S13435   3.733   1.679   7.728 -0.3178 -0.1150 -0.0273
  126OSM   H10S13436   3.658   1.761   7.730  0.8434  0.9550  2.6922
  126OSM   H10T13437   3.834   1.725   7.734  0.0096 -0.8233 -0.1268
  126OSM   C11S13438   3.700   1.599   7.851 -0.0314  0.5663  0.1157
  126OSM   H11S13439   3.751   1.503   7.828  0.5151  0.7169  0.6626
  126OSM   H11T13440   3.592   1.579   7.867  0.6547 -0.5347  4.0372
  126OSM   C12S13441   3.751   1.656   7.984 -0.6547 -0.2561  0.2889
  126OSM   H12S13442   3.709   1.759   7.991 -2.1127 -0.8198  0.0190
  126OSM   H12T13443   3.862   1.659   7.988 -0.6798 -0.5091  1.4569
  126OSM   C13S13444   3.701   1.576   8.104 -0.2167 -0.5678 -0.6655
  126OSM   H13S13445   3.752   1.477   8.095  1.8771  0.4354 -0.2638
  126OSM   H13T13446   3.591   1.569   8.109 -0.3985  1.7412 -1.3097
  126OSM   C14S13447   3.735   1.633   8.234  0.3264  0.3298 -0.2550
  126OSM   H14S13448   3.690   1.731   8.262 -1.0014 -0.8631  1.9362
  126OSM   H14T13449   3.843   1.659   8.224  0.1261  1.2888  0.0241
  126OSM   C15S13450   3.704   1.534   8.348 -0.2654  0.5374  0.1743
  126OSM   H15S13451   3.754   1.438   8.321  0.0774  0.3275  1.5124
  126OSM   H15T13452   3.600   1.494   8.348 -0.7547  1.7516 -1.1735
  126OSM   C16S13453   3.768   1.577   8.480 -0.2750  0.4240 -0.0500
  126OSM   H16S13454   3.837   1.662   8.458  0.5078 -0.1257  0.2569
  126OSM   H16T13455   3.819   1.491   8.528 -1.5022 -1.8716 -2.6795
  126OSM   C17S13456   3.654   1.637   8.565  0.7515 -0.2342  0.1931
  126OSM   H17S13457   3.577   1.557   8.574  0.5116  0.1019  1.2515
  126OSM   H17T13458   3.610   1.725   8.514  0.1748 -0.7135 -0.1489
  126OSM   C18S13459   3.685   1.696   8.702 -0.4604  0.2304  0.0594
  126OSM   H18S13460   3.777   1.757   8.707 -0.2419 -0.2713  2.7156
  126OSM   H18T13461   3.711   1.608   8.765  1.2483  1.5303  1.1903
  126OSM   H18U13462   3.591   1.741   8.741 -1.0162 -0.6974 -0.1817
  126OSM    C1F13463   3.964   1.058   7.129  0.2321  0.2667  0.2156
  126OSM     OF13464   4.081   1.098   7.117 -0.3583 -0.0359 -0.3942
  126OSM    C2F13465   3.938   0.930   7.194  0.2099  0.4523 -0.2292
  126OSM    H2F13466   3.972   0.852   7.123  1.0172  1.9780 -1.5383
  126OSM    H2G13467   3.829   0.916   7.212  0.1159  1.6501  0.1322
  126OSM    C3F13468   4.019   0.907   7.319 -0.3237  0.7477  0.4859
  126OSM    H3F13469   3.989   0.983   7.394  2.6870  3.3397 -0.8354
  126OSM    H3G13470   4.128   0.914   7.302  0.4156  1.3924  4.8507
  126OSM    C4F13471   3.983   0.763   7.373 -0.0062 -0.3912  0.1401
  126OSM    H4F13472   4.005   0.691   7.292  1.5053  1.6374 -1.3100
  126OSM    H4G13473   3.874   0.762   7.398  0.2057  0.2005  1.0885
  126OSM    C5F13474   4.062   0.714   7.490  0.2367 -0.4403  0.0463
  126OSM    H5F13475   4.171   0.723   7.471  0.5775  0.0666  2.1356
  126OSM    H5G13476   4.034   0.610   7.515 -1.6083  0.2806  1.0421
  126OSM    C6F13477   4.053   0.807   7.612  0.4188  1.3451  0.0145
  126OSM    H6F13478   3.950   0.816   7.653 -1.0936  4.2320 -4.1526
  126OSM    H6G13479   4.088   0.910   7.593  1.5464  0.6874 -1.6454
  126OSM    C7F13480   4.150   0.750   7.727  0.5206 -1.1742 -0.0320
  126OSM    H7F13481   4.248   0.745   7.675  0.4036 -1.0467 -0.2680
  126OSM    H7G13482   4.117   0.649   7.759 -0.0649 -0.3549  2.0995
  126OSM    C8F13483   4.169   0.837   7.850  0.0106  0.2563 -0.1073
  126OSM    H8F13484   4.216   0.926   7.802 -0.8492  0.9426  0.3136
  126OSM    H8G13485   4.240   0.791   7.921  0.8641 -1.8560 -2.2437
  126OSM    C9F13486   4.049   0.887   7.919 -0.5779  0.7841 -0.0776
  126OSM    H9F13487   3.967   0.933   7.863 -0.6015  1.0643  0.1813
  126OSM   C10F13488   4.017   0.872   8.048  0.3748  0.0399  0.8773
  126OSM   H10F13489   3.925   0.918   8.088 -1.6813 -0.1345 -3.3547
  126OSM   C11F13490   4.092   0.807   8.154 -1.3924  0.2376 -0.1051
  126OSM   H11F13491   4.155   0.722   8.120  0.3258  0.4539  2.3463
  126OSM   H11G13492   4.013   0.756   8.214  0.1701 -0.3916  1.4651
  126OSM   C12F13493   4.189   0.903   8.228  0.4633  0.0557  0.2830
  126OSM   H12F13494   4.132   0.997   8.241  1.5076  0.3294  3.1811
  126OSM   H12G13495   4.278   0.914   8.163 -1.0167 -0.0844 -1.8171
  126OSM   C13F13496   4.220   0.852   8.369 -0.8711 -0.1053 -0.1372
  126OSM   H13F13497   4.243   0.743   8.373 -0.5616  0.0222  3.1308
  126OSM   H13G13498   4.132   0.875   8.432 -1.0126  0.6618 -0.6108
  126OSM   C14F13499   4.348   0.918   8.424  0.2997  0.4442 -0.1345
  126OSM   H14F13500   4.323   1.025   8.436  1.3838  0.7082 -0.1285
  126OSM   H14G13501   4.424   0.900   8.345  0.1115  0.5309 -0.3355
  126OSM   C15F13502   4.375   0.858   8.556  0.1729  0.2054  0.6237
  126OSM   H15F13503   4.469   0.889   8.607 -1.6828  0.2016  4.1991
  126OSM   H15G13504   4.381   0.750   8.532 -1.5979  0.4391 -0.9234
  126OSM   C16F13505   4.265   0.884   8.663 -0.5929  0.0521 -0.2579
  126OSM   H16F13506   4.166   0.851   8.627  0.1033 -2.0766 -0.3174
  126OSM   H16G13507   4.260   0.993   8.680 -1.1609  0.1548 -1.0782
  126OSM   C17F13508   4.299   0.824   8.804 -0.2088 -0.1322  0.0105
  126OSM   H17F13509   4.214   0.853   8.869 -0.2792  0.7322 -0.4520
  126OSM   H17G13510   4.391   0.875   8.843 -0.5224  1.0551 -0.7674
  126OSM   C18F13511   4.306   0.667   8.804  0.1404 -0.7336 -0.1094
  126OSM   H18F13512   4.312   0.633   8.910 -0.9929 -1.0827 -0.1498
  126OSM   H18G13513   4.396   0.628   8.752  1.1954 -0.3593  1.3979
  126OSM   H18H13514   4.218   0.625   8.751 -0.4910 -1.0585  1.1816
  127OSM      N13515   2.347   2.779   5.975  0.8370 -0.3305 -0.0577
  127OSM    C1513516   2.488   2.805   5.997 -0.3784  0.1563  0.0654
  127OSM   H15A13517   2.511   2.911   5.996 -1.5720  0.4670  2.5086
  127OSM   H15B13518   2.556   2.764   5.924 -0.6741  0.5702 -0.4498
  127OSM   H15C13519   2.527   2.781   6.095  1.3452  3.0825  0.1762
  127OSM    C1413520   2.316   2.822   5.838  0.5796 -0.3892 -0.8290
  127OSM   H14A13521   2.317   2.930   5.836  1.7354 -0.3347  1.2508
  127OSM   H14B13522   2.221   2.781   5.808 -0.5440  0.3916  1.5424
  127OSM   H14C13523   2.380   2.776   5.764  1.1733 -2.8826  1.1784
  127OSM    C1313524   2.330   2.629   5.989 -0.0435 -0.6368  0.2092
  127OSM   H13A13525   2.386   2.581   5.910  0.9389  1.8176 -0.6241
  127OSM   H13B13526   2.227   2.600   5.974  0.0058  0.1891 -1.9775
  127OSM   H13C13527   2.366   2.610   6.089 -0.3876  1.7242  0.8267
  127OSM    C1213528   2.269   2.857   6.071  0.2531 -0.0938  0.6427
  127OSM   H12A13529   2.170   2.860   6.029  0.3562 -1.1084  0.3261
  127OSM   H12B13530   2.303   2.960   6.075  0.2414 -0.1174  1.7279
  127OSM    C1113531   2.256   2.819   6.219  0.2619  0.2193  0.2558
  127OSM   H11A13532   2.215   2.716   6.224  1.2092 -0.3433 -2.7757
  127OSM   H11B13533   2.191   2.879   6.287 -1.1068 -0.1188 -0.7478
  127OSM      P13534   2.445   2.964   6.312  0.1136 -0.3513  0.0747
  127OSM    O1313535   2.590   2.966   6.343  0.4423  0.3916 -0.0670
  127OSM    O1413536   2.408   3.059   6.207 -0.1561  0.5312 -0.0774
  127OSM    O1113537   2.367   3.001   6.443 -0.3041 -0.1464 -0.0984
  127OSM    O1213538   2.389   2.819   6.273 -0.4436  0.0972 -0.7145
  127OSM    C1S13539   2.365   2.905   6.548 -0.2052 -0.1821  0.8833
  127OSM    H1S13540   2.467   2.866   6.569  1.5173  2.5849 -1.9452
  127OSM    H1T13541   2.295   2.822   6.526  0.2019 -0.6978  1.4989
  127OSM     NF13542   2.350   2.858   6.784 -0.4520 -0.1981  0.0471
  127OSM    HNF13543   2.270   2.814   6.825  2.0362 -0.9636  4.3068
  127OSM    C2S13544   2.325   2.963   6.679 -0.0207 -0.1141  0.8572
  127OSM    H2S13545   2.390   3.050   6.699  2.5331 -1.8954  0.6121
  127OSM    C3S13546   2.188   3.021   6.673  0.5277 -0.3844  0.6777
  127OSM    H3S13547   2.114   2.939   6.655  1.3824 -0.7905 -1.0964
  127OSM     O313548   2.153   3.114   6.568  0.4959 -0.1436  0.0331
  127OSM    HO313549   2.221   3.115   6.501  2.3984 -1.4453  1.8718
  127OSM    C4S13550   2.145   3.083   6.810  0.4172  0.1032 -0.4300
  127OSM    H4S13551   2.139   3.001   6.882  2.3494  0.4376  0.1392
  127OSM    C5S13552   2.133   3.208   6.851  0.0975  0.0511  0.1195
  127OSM    H5S13553   2.178   3.285   6.786  2.8440 -1.2536  0.4173
  127OSM    C6S13554   2.105   3.252   6.996  0.6397 -0.3112  0.2819
  127OSM    H6S13555   2.010   3.309   6.989  1.0953  0.4275  0.0202
  127OSM    H6T13556   2.181   3.324   7.032  0.2076  0.1065  0.3572
  127OSM    C7S13557   2.097   3.144   7.109  0.0489 -0.4303  0.2785
  127OSM    H7S13558   2.176   3.071   7.083 -0.2013 -0.3533 -0.7150
  127OSM    H7T13559   1.999   3.092   7.098 -0.2037 -0.5530  2.8343
  127OSM    C8S13560   2.134   3.200   7.249 -0.1227 -0.3826  0.5982
  127OSM    H8S13561   2.068   3.290   7.252  2.2368  1.4226 -0.1091
  127OSM    H8T13562   2.239   3.236   7.262 -0.5564  1.5542 -0.9816
  127OSM    C9S13563   2.086   3.109   7.368  0.6715 -0.3344  0.1445
  127OSM    H9S13564   2.139   3.012   7.383  1.3599 -0.0300 -0.2818
  127OSM    H9T13565   1.982   3.074   7.347  0.4842  0.3776 -0.1372
  127OSM   C10S13566   2.092   3.185   7.501 -0.2743  0.0920  0.9856
  127OSM   H10S13567   2.009   3.258   7.500  0.9218  1.4852  1.7029
  127OSM   H10T13568   2.192   3.234   7.503  0.5587 -1.3380 -1.8063
  127OSM   C11S13569   2.066   3.098   7.629 -0.0831  0.1932 -0.6026
  127OSM   H11S13570   2.154   3.031   7.637 -1.7536 -2.1992 -1.9097
  127OSM   H11T13571   1.979   3.030   7.628  1.4013 -1.7428 -0.0459
  127OSM   C12S13572   2.051   3.207   7.740  0.3749 -0.7090  0.8362
  127OSM   H12S13573   1.954   3.256   7.715 -0.0402 -1.6632  0.5465
  127OSM   H12T13574   2.135   3.279   7.744  0.4287 -0.7299  0.1899
  127OSM   C13S13575   2.051   3.127   7.870 -0.0187 -0.2221  0.8220
  127OSM   H13S13576   2.154   3.084   7.879  0.5784  1.0072  0.0759
  127OSM   H13T13577   1.958   3.068   7.869 -1.4807  2.0276  1.0408
  127OSM   C14S13578   2.041   3.226   7.991  0.3800 -0.2577 -0.3963
  127OSM   H14S13579   1.949   3.287   7.984  0.8106  0.4368 -0.0078
  127OSM   H14T13580   2.134   3.286   7.983  0.9988 -1.2624 -0.9039
  127OSM   C15S13581   2.054   3.154   8.121 -0.4540 -0.5935 -0.1789
  127OSM   H15S13582   2.139   3.084   8.139 -0.1912 -0.0550  0.7144
  127OSM   H15T13583   1.959   3.101   8.138 -0.2667 -0.4513  1.3945
  127OSM   C16S13584   2.076   3.257   8.234  0.2598 -0.3406 -0.5577
  127OSM   H16S13585   1.985   3.321   8.227  0.6690  0.2224 -0.8026
  127OSM   H16T13586   2.166   3.318   8.214  0.0792  0.4456  0.9887
  127OSM   C17S13587   2.056   3.206   8.380 -0.2877  0.1796  0.4040
  127OSM   H17S13588   2.145   3.149   8.414 -1.1332 -0.3990  1.6744
  127OSM   H17T13589   1.959   3.153   8.388  0.1297 -0.5689  0.5166
  127OSM   C18S13590   2.057   3.324   8.477  0.7636  0.3153 -0.8162
  127OSM   H18S13591   2.081   3.285   8.578 -2.0190  1.0601  0.1768
  127OSM   H18T13592   1.962   3.382   8.479 -0.2868 -1.3704 -0.6064
  127OSM   H18U13593   2.142   3.385   8.437  1.7149  0.3358  1.1990
  127OSM    C1F13594   2.471   2.814   6.824  0.1923  0.3845  0.0945
  127OSM     OF13595   2.570   2.863   6.781  0.6776  0.7263 -0.1598
  127OSM    C2F13596   2.489   2.703   6.925  0.4361 -0.1499  0.0188
  127OSM    H2F13597   2.595   2.670   6.919  0.1377 -0.7346 -2.5086
  127OSM    H2G13598   2.427   2.615   6.896 -0.8154  0.2271  1.4753
  127OSM    C3F13599   2.453   2.733   7.072 -0.4371  0.1151  0.1867
  127OSM    H3F13600   2.463   2.635   7.125  0.2059  0.5659  0.9144
  127OSM    H3G13601   2.349   2.772   7.080 -0.5274  0.0554 -0.7210
  127OSM    C4F13602   2.556   2.823   7.141 -0.2811 -0.0179  0.8044
  127OSM    H4F13603   2.553   2.927   7.104 -1.2054  0.3265  1.8199
  127OSM    H4G13604   2.656   2.786   7.108 -1.3162 -0.1772 -2.2730
  127OSM    C5F13605   2.538   2.817   7.290 -0.1829 -0.9970  0.4113
  127OSM    H5F13606   2.631   2.856   7.337 -0.9711 -0.4867  1.5759
  127OSM    H5G13607   2.519   2.712   7.322  2.7763 -1.5947  0.3481
  127OSM    C6F13608   2.433   2.910   7.349 -0.1246 -0.2960 -0.6331
  127OSM    H6F13609   2.338   2.857   7.327 -0.2951  0.6654 -2.2497
  127OSM    H6G13610   2.422   3.008   7.299  0.8094  0.3670  0.4520
  127OSM    C7F13611   2.437   2.935   7.500 -0.0852 -0.0226  0.1360
  127OSM    H7F13612   2.368   3.019   7.526  1.5879  1.2759  0.5164
  127OSM    H7G13613   2.533   2.982   7.529 -0.3424  0.0989  0.8195
  127OSM    C8F13614   2.384   2.823   7.594 -0.2168  0.3789 -0.0200
  127OSM    H8F13615   2.284   2.802   7.550 -0.6906  1.4335  0.5445
  127OSM    H8G13616   2.360   2.856   7.697 -0.3332  0.6631 -0.1383
  127OSM    C9F13617   2.472   2.702   7.593 -0.3712 -0.1671  0.0687
  127OSM    H9F13618   2.576   2.720   7.562 -1.5276  2.4567 -2.5385
  127OSM   C10F13619   2.434   2.576   7.628 -0.1349 -0.6861 -0.5411
  127OSM   H10F13620   2.510   2.499   7.650  0.9635  0.2824 -0.9121
  127OSM   C11F13621   2.297   2.545   7.677 -0.4190  0.0667  0.4118
  127OSM   H11F13622   2.264   2.449   7.633 -0.3366 -0.0355  0.5715
  127OSM   H11G13623   2.215   2.617   7.658 -0.7514  0.0094  1.5691
  127OSM   C12F13624   2.300   2.536   7.833  0.3485  1.1604 -0.1422
  127OSM   H12F13625   2.386   2.475   7.866  1.3343  2.3023 -0.5623
  127OSM   H12G13626   2.213   2.473   7.863  1.3165 -0.2728 -0.3168
  127OSM   C13F13627   2.300   2.666   7.907 -0.0538  0.3788  0.6702
  127OSM   H13F13628   2.219   2.734   7.874 -1.5037 -1.0895  1.1256
  127OSM   H13G13629   2.400   2.715   7.898 -0.8225  1.8548  0.0523
  127OSM   C14F13630   2.269   2.650   8.061 -0.5031  0.3116 -0.1877
  127OSM   H14F13631   2.338   2.568   8.093 -0.0195  0.4748 -0.8133
  127OSM   H14G13632   2.165   2.611   8.064 -0.3960 -0.2276 -2.4476
  127OSM   C15F13633   2.286   2.781   8.148 -0.4209  0.2712 -0.0382
  127OSM   H15F13634   2.221   2.855   8.096  0.0687  0.0523 -0.9676
  127OSM   H15G13635   2.390   2.817   8.135  0.0206 -1.3440 -1.2497
  127OSM   C16F13636   2.240   2.749   8.289  0.4557 -0.4506 -0.4936
  127OSM   H16F13637   2.325   2.693   8.334  0.0040  1.0388  2.3567
  127OSM   H16G13638   2.149   2.687   8.278  0.8866 -1.4623  1.3348
  127OSM   C17F13639   2.223   2.879   8.366  0.8768 -0.5437 -0.1383
  127OSM   H17F13640   2.120   2.919   8.353  0.7390 -0.6903  0.4930
  127OSM   H17G13641   2.282   2.956   8.311  0.9258  0.1560  0.8793
  127OSM   C18F13642   2.281   2.868   8.503  0.0451  0.1481 -0.3962
  127OSM   H18F13643   2.389   2.856   8.484  0.2766  1.0447  0.2903
  127OSM   H18G13644   2.241   2.777   8.553  0.3287 -1.6931 -3.4170
  127OSM   H18H13645   2.263   2.953   8.573  0.0289 -1.1475  1.2164
  128OSM      N13646   2.434   5.222   6.087 -0.1108  0.8050  0.2045
  128OSM    C1513647   2.411   5.077   6.108  0.7472 -0.4002  0.5577
  128OSM   H15A13648   2.316   5.063   6.158  0.3744 -1.3466 -0.3999
  128OSM   H15B13649   2.492   5.035   6.166  1.6118 -2.8709 -2.2984
  128OSM   H15C13650   2.384   5.031   6.014 -1.2305  2.7263 -0.4785
  128OSM    C1413651   2.340   5.276   5.990 -0.0225  0.7607  0.2292
  128OSM   H14A13652   2.368   5.379   5.976 -0.0756  0.5690 -1.3011
  128OSM   H14B13653   2.240   5.275   6.033 -1.1349  2.5731 -2.1866
  128OSM   H14C13654   2.320   5.214   5.904  0.6546  0.7763  0.0649
  128OSM    C1313655   2.414   5.298   6.212 -0.6922 -0.4379  0.1142
  128OSM   H13A13656   2.431   5.405   6.212 -0.7111 -0.4311  0.6691
  128OSM   H13B13657   2.484   5.260   6.285 -1.3132 -1.3396  0.2420
  128OSM   H13C13658   2.325   5.286   6.272  0.0864  0.0240  1.3893
  128OSM    C1213659   2.577   5.251   6.044  0.3625  0.1053  0.4813
  128OSM   H12A13660   2.594   5.358   6.047  1.4438 -0.0446 -0.0993
  128OSM   H12B13661   2.579   5.228   5.938  0.6778  1.5156  0.1716
  128OSM    C1113662   2.704   5.184   6.119  0.1809 -0.0881 -0.1910
  128OSM   H11A13663   2.787   5.190   6.046 -1.3337  0.4331 -1.8927
  128OSM   H11B13664   2.685   5.076   6.139 -0.5520  0.0576 -0.0695
  128OSM      P13665   2.857   5.347   6.258 -0.0327  0.1038 -0.3494
  128OSM    O1313666   2.970   5.253   6.312  0.1520 -0.4990  0.6055
  128OSM    O1413667   2.889   5.430   6.137  0.0454 -0.0518 -0.6741
  128OSM    O1113668   2.817   5.446   6.371  0.1547 -0.1657 -0.2654
  128OSM    O1213669   2.728   5.262   6.241 -0.4690  0.5604  0.1959
  128OSM    C1S13670   2.752   5.382   6.489 -0.2591  0.0921 -0.2883
  128OSM    H1S13671   2.808   5.293   6.524 -0.4669 -0.0234 -0.2483
  128OSM    H1T13672   2.648   5.354   6.462 -1.4577  2.2941  1.8277
  128OSM     NF13673   2.709   5.412   6.739  0.6643 -0.6139  0.3023
  128OSM    HNF13674   2.611   5.415   6.757  0.7333 -0.6821  0.6979
  128OSM    C2S13675   2.752   5.479   6.613  0.4426  0.0219 -0.1780
  128OSM    H2S13676   2.851   5.527   6.626  0.3467 -0.4128  2.4954
  128OSM    C3S13677   2.665   5.604   6.589 -1.2335 -0.0130 -0.0533
  128OSM    H3S13678   2.559   5.576   6.573 -1.8965  3.1697 -1.5049
  128OSM     O313679   2.698   5.688   6.479  0.0239  0.0514  0.3637
  128OSM    HO313680   2.757   5.630   6.430 -0.8304 -2.4679  2.2573
  128OSM    C4S13681   2.677   5.686   6.713 -0.0222  0.1799  0.1911
  128OSM    H4S13682   2.599   5.663   6.787 -1.8221 -1.6219 -2.2021
  128OSM    C5S13683   2.776   5.779   6.741 -0.2700  0.0678 -0.1137
  128OSM    H5S13684   2.857   5.796   6.668 -1.0216  1.3139 -0.6768
  128OSM    C6S13685   2.773   5.860   6.863  0.0004 -0.2397 -0.0099
  128OSM    H6S13686   2.748   5.963   6.831  0.8476  0.0272  0.1752
  128OSM    H6T13687   2.875   5.868   6.906  0.7135  0.6062 -1.7883
  128OSM    C7S13688   2.700   5.814   6.993  0.6351 -0.2779 -0.9910
  128OSM    H7S13689   2.740   5.715   7.026 -2.6534 -0.8443  1.6476
  128OSM    H7T13690   2.593   5.786   6.983  0.9826 -1.3994 -1.6415
  128OSM    C8S13691   2.731   5.912   7.101 -0.3543  0.5683 -0.0331
  128OSM    H8S13692   2.719   6.020   7.079  1.0461  0.6383 -0.5146
  128OSM    H8T13693   2.841   5.903   7.116 -0.2836  1.1913 -0.1794
  128OSM    C9S13694   2.665   5.887   7.241  0.6213  0.2172  0.1354
  128OSM    H9S13695   2.684   5.784   7.277 -0.4024  0.2078  0.6500
  128OSM    H9T13696   2.558   5.898   7.216  1.3585 -1.6098 -4.4440
  128OSM   C10S13697   2.714   5.984   7.344  0.2236  0.2418 -0.4394
  128OSM   H10S13698   2.697   6.089   7.314  1.9827  0.7605  0.3477
  128OSM   H10T13699   2.823   5.980   7.365 -0.2239  2.6271  2.6137
  128OSM   C11S13700   2.643   5.961   7.481  0.3132 -0.4308  0.2141
  128OSM   H11S13701   2.671   5.861   7.521  1.6312 -0.9665 -1.9548
  128OSM   H11T13702   2.537   5.977   7.450  0.4646 -0.2609 -0.2253
  128OSM   C12S13703   2.705   6.058   7.585  0.3098  0.9199  0.4635
  128OSM   H12S13704   2.683   6.163   7.554 -2.0061  0.5542  0.7715
  128OSM   H12T13705   2.814   6.041   7.576  0.2201  1.0471 -1.0253
  128OSM   C13S13706   2.653   6.024   7.726 -0.8148  0.3274  0.5195
  128OSM   H13S13707   2.691   5.926   7.763 -0.9232  0.1908  0.2638
  128OSM   H13T13708   2.542   6.023   7.727 -0.8398 -0.1048 -1.5806
  128OSM   C14S13709   2.687   6.130   7.833  0.4526  0.1911  0.5108
  128OSM   H14S13710   2.643   6.227   7.802 -0.8034 -0.3049  0.7252
  128OSM   H14T13711   2.798   6.131   7.841  0.4771  0.0079  0.1860
  128OSM   C15S13712   2.624   6.098   7.975  0.3539  0.0536 -0.4320
  128OSM   H15S13713   2.677   6.003   8.000  1.4963  1.2096  1.6377
  128OSM   H15T13714   2.520   6.058   7.970 -0.6134  2.5143 -0.3340
  128OSM   C16S13715   2.652   6.198   8.087 -0.4139  0.0300  0.5961
  128OSM   H16S13716   2.762   6.213   8.093 -0.2694 -1.2256  1.3187
  128OSM   H16T13717   2.620   6.142   8.178  2.8376 -3.3368 -0.1887
  128OSM   C17S13718   2.594   6.337   8.054 -0.0715 -1.0543 -0.2647
  128OSM   H17S13719   2.483   6.342   8.056 -0.1879 -1.8867 -2.5497
  128OSM   H17T13720   2.628   6.358   7.951  1.3811 -0.6975  0.2775
  128OSM   C18S13721   2.655   6.434   8.155 -0.6781 -0.3920 -0.5322
  128OSM   H18S13722   2.614   6.426   8.258  0.7588 -0.4968  0.0388
  128OSM   H18T13723   2.642   6.539   8.121 -0.7744  0.7207  2.8132
  128OSM   H18U13724   2.764   6.416   8.158 -0.6750 -0.3992 -0.6649
  128OSM    C1F13725   2.793   5.327   6.789  0.0282 -0.0435 -0.2351
  128OSM     OF13726   2.907   5.329   6.747 -0.7749 -0.4619 -0.1349
  128OSM    C2F13727   2.759   5.218   6.893  0.0411  0.8392  0.3666
  128OSM    H2F13728   2.820   5.227   6.986 -1.7685 -0.2766  1.6845
  128OSM    H2G13729   2.787   5.125   6.839 -2.3493  0.0593  0.4304
  128OSM    C3F13730   2.608   5.211   6.930 -0.2538 -1.0807  0.1397
  128OSM    H3F13731   2.595   5.130   7.004 -1.1006 -0.8966  0.1975
  128OSM    H3G13732   2.543   5.187   6.843 -0.6425 -2.2027  0.7304
  128OSM    C4F13733   2.581   5.340   7.005 -1.2235  0.3490  0.5066
  128OSM    H4F13734   2.551   5.415   6.929  0.7738 -0.1044 -0.7832
  128OSM    H4G13735   2.670   5.376   7.062 -0.0352 -1.0961 -0.3740
  128OSM    C5F13736   2.448   5.329   7.088 -0.4316  0.9256 -0.0766
  128OSM    H5F13737   2.450   5.230   7.139  1.3741  1.0098  0.0501
  128OSM    H5G13738   2.353   5.342   7.031 -1.6693 -0.9095  1.5163
  128OSM    C6F13739   2.453   5.444   7.194 -0.2120 -0.1238  0.2275
  128OSM    H6F13740   2.459   5.541   7.139 -2.4876 -0.2562 -0.3166
  128OSM    H6G13741   2.552   5.440   7.243 -0.5106  0.2467  0.8645
  128OSM    C7F13742   2.340   5.437   7.301  0.6031  0.0567 -0.1660
  128OSM    H7F13743   2.241   5.465   7.258  0.4324  2.8701  1.8871
  128OSM    H7G13744   2.352   5.519   7.376  1.4660 -0.4529  0.2537
  128OSM    C8F13745   2.320   5.293   7.359  0.0620  0.1041  0.5947
  128OSM    H8F13746   2.284   5.224   7.280  1.2655 -0.6789  0.7124
  128OSM    H8G13747   2.232   5.303   7.425 -0.3001  0.9307 -0.0144
  128OSM    C9F13748   2.448   5.249   7.423 -0.5228  0.0695 -0.5833
  128OSM    H9F13749   2.488   5.175   7.352 -1.5568 -0.2276 -0.8589
  128OSM   C10F13750   2.498   5.287   7.533  0.4519  0.2846  0.1561
  128OSM   H10F13751   2.598   5.251   7.563  0.3288 -0.4281 -0.2601
  128OSM   C11F13752   2.436   5.383   7.626  0.6551 -0.6384 -0.1638
  128OSM   H11F13753   2.449   5.352   7.732 -2.1126  3.1685  1.4055
  128OSM   H11G13754   2.327   5.396   7.611  0.4106 -2.9839 -0.6578
  128OSM   C12F13755   2.511   5.521   7.622 -0.9094  0.1449 -0.3046
  128OSM   H12F13756   2.445   5.590   7.680 -1.3345 -0.1896 -0.3910
  128OSM   H12G13757   2.508   5.561   7.519  0.0512  0.4710 -0.2133
  128OSM   C13F13758   2.652   5.524   7.688 -0.2124 -0.1888  0.3640
  128OSM   H13F13759   2.690   5.626   7.667  1.5299 -1.1520 -1.2996
  128OSM   H13G13760   2.717   5.452   7.634 -0.2848 -0.3761  0.5220
  128OSM   C14F13761   2.649   5.491   7.838  0.1824 -0.3889 -0.2521
  128OSM   H14F13762   2.649   5.381   7.857 -1.6250 -0.3282  0.1699
  128OSM   H14G13763   2.558   5.526   7.891  1.1556  2.4432 -0.3704
  128OSM   C15F13764   2.773   5.557   7.904  0.1574  0.2928  0.5214
  128OSM   H15F13765   2.754   5.666   7.914 -0.0959  0.3810 -0.7458
  128OSM   H15G13766   2.861   5.531   7.841 -0.3414 -0.3049  0.0554
  128OSM   C16F13767   2.795   5.493   8.043  0.2238  0.2538  0.3402
  128OSM   H16F13768   2.807   5.383   8.031 -0.3137  0.0209  1.7426
  128OSM   H16G13769   2.701   5.517   8.097 -0.0023  2.5246 -1.0076
  128OSM   C17F13770   2.917   5.543   8.121  0.2287  0.5414  0.3460
  128OSM   H17F13771   2.992   5.536   8.040 -2.6481 -0.7791 -2.3169
  128OSM   H17G13772   2.954   5.481   8.205 -1.0731 -0.7880 -0.0454
  128OSM   C18F13773   2.899   5.684   8.179 -0.2808 -0.2181 -0.1575
  128OSM   H18F13774   2.852   5.754   8.107  0.8624  1.3732  0.6162
  128OSM   H18G13775   2.996   5.730   8.211  1.3396 -2.6089 -1.4649
  128OSM   H18H13776   2.834   5.684   8.269  1.6515 -1.3719  1.2821
  129OSM      N13777   0.016   1.015   5.934  0.7767 -0.3148  0.0997
  129OSM    C1513778  -0.103   0.974   6.013 -0.3025  0.0830 -0.8329
  129OSM   H15A13779  -0.199   1.010   5.981 -0.0683  0.6593 -0.9022
  129OSM   H15B13780  -0.097   1.013   6.114  1.3298 -1.6994 -0.2075
  129OSM   H15C13781  -0.104   0.866   6.023 -2.0232  0.2290  0.8286
  129OSM    C1413782   0.016   0.951   5.798 -0.1957  0.4018  0.4417
  129OSM   H14A13783   0.114   0.968   5.755 -0.8251 -0.6865 -1.4650
  129OSM   H14B13784  -0.062   0.988   5.733  0.7897 -0.5632 -1.3497
  129OSM   H14C13785  -0.004   0.845   5.794  0.0641  0.3774 -0.3314
  129OSM    C1313786   0.021   1.161   5.913  0.2379  0.3097 -0.7294
  129OSM   H13A13787  -0.063   1.192   5.852  0.5216 -0.2700 -1.4190
  129OSM   H13B13788   0.106   1.212   5.872  0.0071  1.2982  0.0124
  129OSM   H13C13789   0.011   1.211   6.008  0.5967  1.5672 -1.3480
  129OSM    C1213790   0.141   0.961   6.005 -0.7564  0.1004 -0.3443
  129OSM   H12A13791   0.229   0.993   5.952 -0.0949  1.9539  1.8339
  129OSM   H12B13792   0.142   0.854   5.988  1.1418  0.0385  0.0584
  129OSM    C1113793   0.179   0.996   6.154 -0.4749  0.8080  0.2233
  129OSM   H11A13794   0.264   0.936   6.192 -1.0016 -0.8876 -1.1839
  129OSM   H11B13795   0.086   0.981   6.214 -0.5263 -0.7615 -0.2339
  129OSM      P13796   0.339   1.187   6.093  0.0163 -0.2177 -0.3219
  129OSM    O1313797   0.388   1.099   5.982 -0.0599  0.3173  0.0699
  129OSM    O1413798   0.323   1.335   6.063  0.5912  0.1062 -0.4751
  129OSM    O1113799   0.437   1.176   6.216 -0.3334  0.2234 -0.3800
  129OSM    O1213800   0.213   1.136   6.153 -0.1032  0.5421  0.1742
  129OSM    C1S13801   0.404   1.238   6.346  0.1598  0.0118  0.0115
  129OSM    H1S13802   0.309   1.294   6.343 -0.2452 -0.7338 -2.1889
  129OSM    H1T13803   0.489   1.306   6.369  1.3799 -1.5618  0.2607
  129OSM     NF13804   0.379   1.176   6.586 -0.0427 -0.4130  0.0149
  129OSM    HNF13805   0.458   1.190   6.645 -0.1825 -0.8476  0.3063
  129OSM    C2S13806   0.417   1.120   6.456  0.1205 -0.5296 -0.0135
  129OSM    H2S13807   0.343   1.042   6.429 -1.6390  0.9912  0.2868
  129OSM    C3S13808   0.554   1.049   6.451 -0.2181  0.3144  0.3941
  129OSM    H3S13809   0.638   1.122   6.459 -0.1436  0.3284 -0.4692
  129OSM     O313810   0.567   0.977   6.330 -0.4271  0.6203 -0.2082
  129OSM    HO313811   0.515   1.031   6.270  1.3273  1.0010 -1.4056
  129OSM    C4S13812   0.561   0.950   6.560 -0.2594 -1.1565 -0.0705
  129OSM    H4S13813   0.462   0.912   6.589 -0.9320  0.7660  0.2278
  129OSM    C5S13814   0.658   0.936   6.649 -0.5703 -0.1495 -0.1201
  129OSM    H5S13815   0.749   0.998   6.650  1.3310 -2.7881 -0.6651
  129OSM    C6S13816   0.659   0.834   6.763 -0.2976 -0.0899  0.0703
  129OSM    H6S13817   0.766   0.817   6.788 -0.3777  0.1924  0.6039
  129OSM    H6T13818   0.615   0.738   6.729  0.1196  0.5511 -2.4002
  129OSM    C7S13819   0.590   0.888   6.886  0.3934  0.7063 -0.1070
  129OSM    H7S13820   0.482   0.907   6.869  0.4659  0.1708 -1.2695
  129OSM    H7T13821   0.626   0.992   6.903 -0.8874  0.8914  1.5947
  129OSM    C8S13822   0.598   0.810   7.018 -0.4403 -0.4579 -0.4461
  129OSM    H8S13823   0.581   0.705   6.983  0.4881 -1.2425  1.3899
  129OSM    H8T13824   0.514   0.842   7.083 -0.3710 -0.4220 -0.3747
  129OSM    C9S13825   0.737   0.814   7.083 -0.3575  0.9228  0.0734
  129OSM    H9S13826   0.760   0.922   7.091  0.5407  0.6210  1.9067
  129OSM    H9T13827   0.816   0.769   7.020 -0.4912  0.3793  0.2859
  129OSM   C10S13828   0.760   0.741   7.221 -0.1610  0.2243  0.2433
  129OSM   H10S13829   0.753   0.633   7.195 -1.2372 -0.0175  1.4995
  129OSM   H10T13830   0.671   0.758   7.284 -0.3147 -2.2034  0.7274
  129OSM   C11S13831   0.890   0.778   7.295  0.8329  0.2830 -0.5668
  129OSM   H11S13832   0.883   0.877   7.346 -2.8667 -0.1118 -0.1596
  129OSM   H11T13833   0.975   0.784   7.223  1.9599 -0.3018  0.6995
  129OSM   C12S13834   0.919   0.691   7.411  0.1262  0.1056 -0.3010
  129OSM   H12S13835   0.977   0.599   7.386 -0.4591  0.1896 -2.0771
  129OSM   H12T13836   0.827   0.645   7.454  0.2662  0.3968  0.3109
  129OSM   C13S13837   0.979   0.755   7.531 -0.2908 -0.2061 -0.2620
  129OSM   H13S13838   0.904   0.832   7.561 -1.7439 -1.2815 -1.0865
  129OSM   H13T13839   1.074   0.802   7.498 -0.1631 -0.2797  0.0017
  129OSM   C14S13840   1.019   0.657   7.644  0.2598  0.2553 -0.5068
  129OSM   H14S13841   1.056   0.566   7.592 -0.9978 -1.2626  1.1933
  129OSM   H14T13842   0.936   0.630   7.713  1.2514 -0.6707  0.3391
  129OSM   C15S13843   1.124   0.718   7.734  0.0235 -0.8356  0.2019
  129OSM   H15S13844   1.095   0.818   7.772 -0.7959 -1.4882  1.3499
  129OSM   H15T13845   1.214   0.733   7.671 -1.4415 -1.0502 -1.9827
  129OSM   C16S13846   1.151   0.629   7.852 -0.9562  0.5724  0.4440
  129OSM   H16S13847   1.156   0.523   7.820  1.2295  1.2198 -1.5181
  129OSM   H16T13848   1.068   0.631   7.927 -0.5927 -1.3846  0.9298
  129OSM   C17S13849   1.289   0.660   7.921  0.0969 -0.1018 -0.1259
  129OSM   H17S13850   1.366   0.671   7.841 -2.3773 -1.5021 -2.8228
  129OSM   H17T13851   1.320   0.577   7.988 -0.1302 -0.4495 -0.4448
  129OSM   C18S13852   1.282   0.782   8.007  0.0529  0.5340  0.3720
  129OSM   H18S13853   1.269   0.871   7.943 -0.9517  0.8562  1.0070
  129OSM   H18T13854   1.379   0.802   8.056  0.9782 -1.4796 -0.5859
  129OSM   H18U13855   1.200   0.772   8.081  0.8097 -0.6339  1.0731
  129OSM    C1F13856   0.251   1.210   6.613 -0.3585  0.0982 -0.1099
  129OSM     OF13857   0.158   1.173   6.544 -0.3243 -0.2679 -0.5136
  129OSM    C2F13858   0.234   1.287   6.741  0.3576  0.5243  0.0668
  129OSM    H2F13859   0.131   1.270   6.778  0.6415  0.7961  0.9978
  129OSM    H2G13860   0.242   1.395   6.714 -2.8545  0.3129 -2.0776
  129OSM    C3F13861   0.324   1.252   6.860  0.4244  0.2858  0.1537
  129OSM    H3F13862   0.431   1.254   6.830  0.6280  2.9601  0.9890
  129OSM    H3G13863   0.312   1.149   6.902  0.2610 -1.0469 -2.9940
  129OSM    C4F13864   0.314   1.356   6.969  0.2099 -0.9714  0.7730
  129OSM    H4F13865   0.209   1.346   7.006 -0.3818 -0.5475 -0.7799
  129OSM    H4G13866   0.333   1.456   6.926 -0.4194 -0.9042  0.6487
  129OSM    C5F13867   0.414   1.343   7.085 -0.0095 -0.3427  0.1654
  129OSM    H5F13868   0.403   1.433   7.150 -0.4017  0.1424 -0.5594
  129OSM    H5G13869   0.514   1.349   7.038  0.4578 -2.9500  0.7847
  129OSM    C6F13870   0.404   1.208   7.150  0.2898  0.5700 -0.7922
  129OSM    H6F13871   0.460   1.128   7.097 -0.6778 -0.1185 -0.7965
  129OSM    H6G13872   0.299   1.172   7.151 -0.1127  1.5902 -3.6794
  129OSM    C7F13873   0.453   1.227   7.298  0.7433 -0.0244 -0.3127
  129OSM    H7F13874   0.371   1.278   7.353 -0.2703 -0.4419 -1.4144
  129OSM    H7G13875   0.542   1.294   7.290  0.0298  0.7898 -1.6056
  129OSM    C8F13876   0.509   1.103   7.372  0.6092  0.0842 -0.5359
  129OSM    H8F13877   0.562   1.144   7.461  1.8922  0.9470 -1.6753
  129OSM    H8G13878   0.588   1.056   7.310  1.2949 -0.4777  0.7457
  129OSM    C9F13879   0.402   1.006   7.405  0.7685  0.1604  0.3890
  129OSM    H9F13880   0.309   1.020   7.348  0.9547 -3.3022 -0.8791
  129OSM   C10F13881   0.402   0.898   7.482 -0.0819 -0.2549  0.3160
  129OSM   H10F13882   0.307   0.841   7.482 -1.0536  1.2941 -2.3747
  129OSM   C11F13883   0.531   0.854   7.557 -0.3323  0.1514  0.5790
  129OSM   H11F13884   0.616   0.916   7.523  1.2464 -2.6069 -0.6673
  129OSM   H11G13885   0.555   0.753   7.515  0.1942  0.4829  0.0752
  129OSM   C12F13886   0.512   0.845   7.706  0.2652  0.3535 -0.1108
  129OSM   H12F13887   0.425   0.777   7.717 -0.9234  1.9543  0.4375
  129OSM   H12G13888   0.493   0.944   7.751  1.6846  0.7675 -0.3863
  129OSM   C13F13889   0.638   0.801   7.770  0.1537 -0.1453  0.0732
  129OSM   H13F13890   0.721   0.875   7.760 -1.1383  1.2921 -0.2240
  129OSM   H13G13891   0.664   0.709   7.713 -1.1311 -1.6828  1.9385
  129OSM   C14F13892   0.629   0.771   7.919 -0.1078 -0.9295  0.1951
  129OSM   H14F13893   0.572   0.679   7.944  0.3312 -0.8418  1.5710
  129OSM   H14G13894   0.577   0.858   7.963 -0.0654  0.0022 -1.5315
  129OSM   C15F13895   0.759   0.744   8.004  0.1603  0.2353  0.2707
  129OSM   H15F13896   0.815   0.838   8.022  0.4224  0.3431 -1.0804
  129OSM   H15G13897   0.821   0.668   7.953 -1.0151 -0.3231 -0.3573
  129OSM   C16F13898   0.731   0.669   8.135  0.1796  0.4069 -0.1141
  129OSM   H16F13899   0.726   0.564   8.099  1.2223  0.0544  0.7505
  129OSM   H16G13900   0.633   0.705   8.173 -0.0854  2.5906 -2.7097
  129OSM   C17F13901   0.842   0.689   8.239 -0.4561 -0.5698 -0.1624
  129OSM   H17F13902   0.846   0.793   8.279  2.1885 -0.8225  0.3490
  129OSM   H17G13903   0.946   0.660   8.211 -0.2235 -0.2455  0.3558
  129OSM   C18F13904   0.811   0.607   8.364 -0.3836  0.3327  0.1630
  129OSM   H18F13905   0.884   0.622   8.447 -0.0615 -1.8959  0.3199
  129OSM   H18G13906   0.797   0.499   8.342 -0.9243  0.5793 -0.7019
  129OSM   H18H13907   0.719   0.649   8.409 -0.5204  0.6261 -0.3969
  130OSM      N13908   1.448   3.994   6.034  0.0623 -0.4742 -0.4308
  130OSM    C1513909   1.522   3.865   5.998  0.1611 -0.4941 -0.0893
  130OSM   H15A13910   1.629   3.870   6.009  0.0968 -1.6989  1.3391
  130OSM   H15B13911   1.507   3.839   5.895  0.7774  1.1681 -0.6146
  130OSM   H15C13912   1.488   3.798   6.077 -0.5246  0.1369  0.1563
  130OSM    C1413913   1.506   4.099   5.956  0.8364 -0.0859  0.6927
  130OSM   H14A13914   1.453   4.193   5.956 -1.9197 -1.5957  1.1399
  130OSM   H14B13915   1.499   4.067   5.853 -1.1434  0.4461  0.6448
  130OSM   H14C13916   1.608   4.117   5.987  0.5102  1.3649  0.9471
  130OSM    C1313917   1.297   3.979   6.013  0.2210 -0.2379  0.1112
  130OSM   H13A13918   1.238   4.043   6.078  0.0763 -0.7799  0.5124
  130OSM   H13B13919   1.260   3.880   6.032 -0.5020 -0.2000 -0.9863
  130OSM   H13C13920   1.280   4.007   5.910  1.7207  2.0257  0.4333
  130OSM    C1213921   1.472   4.028   6.176 -0.0178 -0.1161 -0.1029
  130OSM   H12A13922   1.577   4.052   6.178  0.1638 -0.8068 -1.1377
  130OSM   H12B13923   1.456   3.940   6.236  0.9357  0.5692  1.2186
  130OSM    C1113924   1.404   4.146   6.242  0.0951 -0.0498  0.1621
  130OSM   H11A13925   1.457   4.154   6.339  2.4603  2.4363 -1.2647
  130OSM   H11B13926   1.302   4.110   6.267 -0.0547  0.4726  0.3102
  130OSM      P13927   1.512   4.367   6.181  0.0400  0.5297  0.2450
  130OSM    O1313928   1.635   4.295   6.151 -0.3449  0.4302  0.3004
  130OSM    O1413929   1.468   4.485   6.109  0.2665 -0.7353  0.1472
  130OSM    O1113930   1.521   4.399   6.331 -0.1965 -0.3296 -0.6036
  130OSM    O1213931   1.397   4.268   6.160 -0.1348  0.6296  0.2905
  130OSM    C1S13932   1.399   4.445   6.402 -0.0079 -0.4393  0.4450
  130OSM    H1S13933   1.350   4.353   6.442  1.0633 -0.7509  1.0842
  130OSM    H1T13934   1.322   4.488   6.335 -0.5634 -1.9032  0.1272
  130OSM     NF13935   1.287   4.590   6.564  0.3286 -0.1410 -0.0232
  130OSM    HNF13936   1.253   4.681   6.541  0.2557 -0.3423 -0.7272
  130OSM    C2S13937   1.423   4.554   6.516  0.6662 -1.0973 -0.0933
  130OSM    H2S13938   1.477   4.517   6.606 -0.6805  1.6677  1.9296
  130OSM    C3S13939   1.509   4.668   6.455 -0.4702  0.1951 -0.1438
  130OSM    H3S13940   1.453   4.718   6.373 -0.9917  1.0764  0.7297
  130OSM     O313941   1.633   4.620   6.412  0.1093 -0.3317  0.1019
  130OSM    HO313942   1.613   4.540   6.362  4.1346 -0.7082 -1.0538
  130OSM    C4S13943   1.525   4.772   6.563 -0.5193  0.1439  0.6362
  130OSM    H4S13944   1.565   4.727   6.655  0.0838 -0.0213  0.2986
  130OSM    C5S13945   1.469   4.897   6.562 -0.0491  0.5903  0.1553
  130OSM    H5S13946   1.406   4.930   6.478 -0.2098  0.1123  0.0860
  130OSM    C6S13947   1.477   4.994   6.675  0.2101 -0.6578 -0.2787
  130OSM    H6S13948   1.402   5.076   6.666  1.6116  0.5360 -1.2459
  130OSM    H6T13949   1.576   5.044   6.667  0.6629 -1.1809  1.7973
  130OSM    C7S13950   1.464   4.935   6.818 -0.6568 -0.6062 -0.0778
  130OSM    H7S13951   1.544   4.865   6.851  1.0468  1.1691 -0.3871
  130OSM    H7T13952   1.372   4.873   6.821 -0.0105 -1.5812 -0.0423
  130OSM    C8S13953   1.457   5.049   6.924  0.2204  0.3371 -0.6688
  130OSM    H8S13954   1.394   5.134   6.892 -1.8391 -0.6187  0.7795
  130OSM    H8T13955   1.562   5.084   6.939 -0.0889  0.5036  1.1706
  130OSM    C9S13956   1.396   5.014   7.058 -0.2599  0.3246  0.6658
  130OSM    H9S13957   1.458   4.936   7.107  0.0996 -0.8087 -1.5427
  130OSM    H9T13958   1.291   4.982   7.041  0.3454 -0.4781 -1.7733
  130OSM   C10S13959   1.387   5.136   7.160 -1.2234 -0.2943  0.2558
  130OSM   H10S13960   1.333   5.223   7.114 -1.1048 -1.6255 -2.5297
  130OSM   H10T13961   1.494   5.157   7.181 -0.8805 -1.2958 -0.4462
  130OSM   C11S13962   1.308   5.097   7.288  0.3092 -0.4337 -0.0056
  130OSM   H11S13963   1.344   4.994   7.309 -1.6636 -0.8679  1.3424
  130OSM   H11T13964   1.197   5.096   7.284  0.2139 -3.6445  1.7914
  130OSM   C12S13965   1.346   5.192   7.402 -0.4787  0.5279  0.5360
  130OSM   H12S13966   1.313   5.293   7.371 -0.2733  0.0728 -1.2480
  130OSM   H12T13967   1.456   5.182   7.403 -0.5758 -0.5440  0.9421
  130OSM   C13S13968   1.299   5.146   7.539  0.4834  0.3202 -0.0003
  130OSM   H13S13969   1.333   5.044   7.564 -1.9811 -1.1094 -2.2110
  130OSM   H13T13970   1.191   5.119   7.541  0.5447 -0.0189 -1.2868
  130OSM   C14S13971   1.344   5.245   7.642 -0.6909 -1.0268  0.6893
  130OSM   H14S13972   1.316   5.351   7.628 -1.2437 -0.8172  3.1492
  130OSM   H14T13973   1.455   5.237   7.633 -0.7087  1.4330 -2.2523
  130OSM   C15S13974   1.287   5.220   7.784 -0.3637  0.1316  0.1956
  130OSM   H15S13975   1.311   5.112   7.798  0.5187  0.2261 -0.5630
  130OSM   H15T13976   1.177   5.231   7.777  0.0293  4.7230 -0.4743
  130OSM   C16S13977   1.372   5.296   7.890  0.5263  0.4165  0.1652
  130OSM   H16S13978   1.342   5.402   7.890  0.4923  0.4067  0.0928
  130OSM   H16T13979   1.480   5.278   7.871  0.2718 -1.8487  0.6180
  130OSM   C17S13980   1.344   5.243   8.031  0.6414  0.6166 -0.2671
  130OSM   H17S13981   1.390   5.142   8.038  0.2806  0.4671 -0.0146
  130OSM   H17T13982   1.234   5.227   8.035  0.3848  2.0229 -1.2200
  130OSM   C18S13983   1.397   5.324   8.146  0.1775  0.0805  0.1108
  130OSM   H18S13984   1.508   5.332   8.137  0.2908  4.0592  3.6833
  130OSM   H18T13985   1.376   5.273   8.242  1.5604  0.3624  0.5744
  130OSM   H18U13986   1.359   5.428   8.144  0.7793  0.3021 -0.2387
  130OSM    C1F13987   1.210   4.503   6.625 -0.1849 -0.5296  0.6401
  130OSM     OF13988   1.267   4.407   6.687 -0.4154  0.3252 -0.5531
  130OSM    C2F13989   1.063   4.520   6.623  0.4335 -0.3456  0.4359
  130OSM    H2F13990   1.005   4.425   6.629 -1.1865  0.2713 -3.7806
  130OSM    H2G13991   1.033   4.551   6.521  0.3547  0.1394  0.6069
  130OSM    C3F13992   1.011   4.627   6.720  0.1296 -0.1948  0.7355
  130OSM    H3F13993   0.922   4.675   6.675  1.1322 -0.1922 -1.3249
  130OSM    H3G13994   1.078   4.716   6.720  1.2176 -0.9948  1.9900
  130OSM    C4F13995   0.988   4.579   6.865  0.1736 -0.3381  0.4190
  130OSM    H4F13996   1.092   4.563   6.899  0.4328  0.9189  0.2442
  130OSM    H4G13997   0.930   4.485   6.850 -0.5768  0.5437 -2.6020
  130OSM    C5F13998   0.908   4.684   6.944  0.1694  0.2255  0.1301
  130OSM    H5F13999   0.802   4.678   6.913  0.4553 -3.3257 -0.3698
  130OSM    H5G14000   0.931   4.790   6.921 -0.0571 -0.1273 -1.8256
  130OSM    C6F14001   0.923   4.670   7.093  0.3482 -0.5918 -0.0134
  130OSM    H6F14002   0.901   4.564   7.119  0.8895 -0.7880 -0.3609
  130OSM    H6G14003   0.854   4.746   7.135  1.7423  0.4627  0.4196
  130OSM    C7F14004   1.072   4.690   7.132 -0.3700 -0.1250  0.0506
  130OSM    H7F14005   1.101   4.784   7.080 -3.0908  0.2000 -0.9655
  130OSM    H7G14006   1.122   4.599   7.094  0.3841  0.5646 -0.6552
  130OSM    C8F14007   1.096   4.720   7.282 -0.7404 -0.1776 -0.9173
  130OSM    H8F14008   1.023   4.802   7.301  0.6277  0.6100  1.1281
  130OSM    H8G14009   1.191   4.770   7.307 -2.4673  3.0593 -0.5777
  130OSM    C9F14010   1.071   4.596   7.366  0.0587  0.8560 -0.1787
  130OSM    H9F14011   0.997   4.529   7.319 -0.7344  0.2420  1.8853
  130OSM   C10F14012   1.123   4.575   7.489 -0.4545  0.3829  0.4718
  130OSM   H10F14013   1.093   4.483   7.540 -1.8693  0.6919  0.2282
  130OSM   C11F14014   1.208   4.657   7.580  0.0474  0.1031  0.0879
  130OSM   H11F14015   1.238   4.745   7.518 -4.0164  2.3983  1.2130
  130OSM   H11G14016   1.302   4.601   7.598 -1.8167 -2.3467  2.4886
  130OSM   C12F14017   1.165   4.703   7.721 -0.5492 -0.3266  0.3403
  130OSM   H12F14018   1.254   4.751   7.767 -0.1176  0.9541 -1.7704
  130OSM   H12G14019   1.139   4.614   7.783 -0.4766 -0.8119 -0.3291
  130OSM   C13F14020   1.046   4.805   7.718  0.5586 -0.3564  0.2367
  130OSM   H13F14021   0.956   4.743   7.701  1.0032 -1.1258  0.6431
  130OSM   H13G14022   1.073   4.873   7.634  0.4339  0.0275  0.5091
  130OSM   C14F14023   1.025   4.899   7.843  0.6245 -0.0647  0.1144
  130OSM   H14F14024   0.975   4.991   7.808 -0.0872 -0.2786  0.5463
  130OSM   H14G14025   1.125   4.931   7.880 -0.3486  1.6620  1.2989
  130OSM   C15F14026   0.944   4.850   7.961  0.1302  0.2733 -0.4247
  130OSM   H15F14027   0.996   4.766   8.011 -1.3459 -1.7416 -2.1759
  130OSM   H15G14028   0.856   4.806   7.909  1.9737 -2.2671 -1.4913
  130OSM   C16F14029   0.913   4.969   8.054 -0.7388  0.8013 -0.2814
  130OSM   H16F14030   0.860   5.048   7.997 -1.1199  0.2393 -0.7143
  130OSM   H16G14031   1.012   5.012   8.081 -1.0169  1.6397 -0.5872
  130OSM   C17F14032   0.828   4.928   8.178  0.0766  0.6855 -0.3394
  130OSM   H17F14033   0.741   4.868   8.145 -1.4771  0.6708  3.5502
  130OSM   H17G14034   0.794   5.023   8.225  0.0416  0.3950  0.2244
  130OSM   C18F14035   0.912   4.841   8.274  0.2595 -0.1150  0.7607
  130OSM   H18F14036   0.857   4.820   8.368 -0.0237  1.0104  0.8542
  130OSM   H18G14037   1.005   4.889   8.309 -1.8340  2.6381  2.7169
  130OSM   H18H14038   0.924   4.738   8.232 -0.2917  0.2469 -0.3191
  131OSM      N14039   1.992   1.984   6.159  0.2451  0.0637  0.0505
  131OSM    C1514040   2.004   1.850   6.110 -0.3257  0.9253 -0.1908
  131OSM   H15A14041   2.021   1.774   6.185 -3.4568  1.3244  1.0349
  131OSM   H15B14042   2.088   1.824   6.048  0.7537 -4.2644  3.1500
  131OSM   H15C14043   1.913   1.822   6.058 -0.5077  2.4703 -0.7481
  131OSM    C1414044   2.120   2.009   6.241  0.0579  0.0818  1.8431
  131OSM   H14A14045   2.202   2.028   6.174 -1.8559 -0.2517 -0.6875
  131OSM   H14B14046   2.144   1.923   6.302 -1.8036 -0.2309  2.1881
  131OSM   H14C14047   2.116   2.093   6.309 -0.2767  1.0806  0.5998
  131OSM    C1314048   1.977   2.088   6.050 -0.0456  0.1550  0.1063
  131OSM   H13A14049   2.065   2.085   5.987  0.5538 -2.7095  1.0090
  131OSM   H13B14050   1.968   2.185   6.097 -1.0623 -0.6840  1.7211
  131OSM   H13C14051   1.898   2.058   5.984  0.4194  1.2522 -0.9546
  131OSM    C1214052   1.884   1.995   6.263  0.1666  0.3297  0.4763
  131OSM   H12A14053   1.896   1.911   6.330  0.7061 -0.9527 -1.1903
  131OSM   H12B14054   1.788   1.984   6.215 -0.1556 -0.7303  1.3528
  131OSM    C1114055   1.877   2.121   6.348  0.3150  0.0307  0.8616
  131OSM   H11A14056   1.970   2.130   6.407 -0.0196  0.6950  1.3045
  131OSM   H11B14057   1.796   2.105   6.423 -2.3517  0.2002 -1.9035
  131OSM      P14058   1.698   2.273   6.221  0.0670  0.4927 -0.2849
  131OSM    O1314059   1.690   2.404   6.156  0.5121 -0.3876 -0.3459
  131OSM    O1414060   1.649   2.156   6.142  0.0537 -0.1431 -0.4881
  131OSM    O1114061   1.619   2.277   6.357 -0.2438  0.0414  0.1748
  131OSM    O1214062   1.846   2.239   6.269 -0.1008 -0.4155  0.4876
  131OSM    C1S14063   1.641   2.398   6.440 -0.7471  0.3373 -0.1250
  131OSM    H1S14064   1.604   2.490   6.388 -0.0004 -0.7194 -2.6256
  131OSM    H1T14065   1.748   2.409   6.466 -0.9517  0.6482  0.5909
  131OSM     NF14066   1.597   2.524   6.657  0.5026  0.1455  0.2347
  131OSM    HNF14067   1.642   2.513   6.745  0.7917  0.4706  0.1268
  131OSM    C2S14068   1.570   2.400   6.582 -0.0630  1.3159  0.1627
  131OSM    H2S14069   1.461   2.386   6.570 -0.0333  0.9153  0.3377
  131OSM    C3S14070   1.617   2.274   6.662 -0.8911 -0.7149 -0.3293
  131OSM    H3S14071   1.724   2.295   6.682 -1.0851 -1.1837  1.2649
  131OSM     O314072   1.614   2.150   6.588 -0.1124 -0.3585 -0.5780
  131OSM    HO314073   1.598   2.179   6.498  0.1413  0.6260 -0.3076
  131OSM    C4S14074   1.536   2.268   6.782 -0.6514 -0.2537 -0.1517
  131OSM    H4S14075   1.432   2.294   6.759 -0.3833 -0.1767 -1.3058
  131OSM    C5S14076   1.576   2.241   6.909 -0.7415 -0.1562 -0.1922
  131OSM    H5S14077   1.681   2.217   6.934 -0.3614  1.2109 -0.4373
  131OSM    C6S14078   1.473   2.223   7.030 -0.2162 -0.1916 -0.3644
  131OSM    H6S14079   1.535   2.247   7.120 -1.3368 -2.2621  0.9959
  131OSM    H6T14080   1.446   2.116   7.040 -2.5219  0.3064 -1.0384
  131OSM    C7S14081   1.346   2.307   7.035 -0.0764  0.6228 -0.3482
  131OSM    H7S14082   1.274   2.282   6.954 -1.5237  1.0150  0.7850
  131OSM    H7T14083   1.375   2.414   7.027  0.9722  0.2860 -1.1527
  131OSM    C8S14084   1.259   2.286   7.162  0.3589 -0.7719  0.1548
  131OSM    H8S14085   1.217   2.184   7.151  1.1284 -1.1231  0.4544
  131OSM    H8T14086   1.171   2.352   7.176  0.9602  0.0226  0.2275
  131OSM    C9S14087   1.343   2.304   7.287 -0.6776  0.3053 -0.5705
  131OSM    H9S14088   1.371   2.410   7.305  0.8292 -0.4443  1.7330
  131OSM    H9T14089   1.440   2.251   7.278 -0.5839  0.3406  0.2632
  131OSM   C10S14090   1.268   2.257   7.414 -0.7295  0.4740  0.4716
  131OSM   H10S14091   1.281   2.147   7.423 -0.1887  0.1786 -3.1481
  131OSM   H10T14092   1.159   2.277   7.412 -0.4870  2.0004  1.5140
  131OSM   C11S14093   1.322   2.338   7.537  0.4437 -0.2983  0.7628
  131OSM   H11S14094   1.302   2.446   7.520  0.5001 -0.5706 -1.1674
  131OSM   H11T14095   1.433   2.336   7.546  0.4975  0.2413  0.2922
  131OSM   C12S14096   1.259   2.295   7.675 -0.1040  0.0781  0.1481
  131OSM   H12S14097   1.150   2.290   7.652 -0.0980  2.3931 -0.4929
  131OSM   H12T14098   1.281   2.363   7.759  0.7660 -1.7368  1.4284
  131OSM   C13S14099   1.312   2.157   7.729  0.6110  0.5156 -0.2619
  131OSM   H13S14100   1.421   2.153   7.707  1.2241 -1.3578  2.8902
  131OSM   H13T14101   1.271   2.074   7.668 -3.1177  1.4968  0.8022
  131OSM   C14S14102   1.286   2.127   7.876 -0.3329  0.5426  0.2954
  131OSM   H14S14103   1.187   2.167   7.906 -0.0344  0.5007  1.3339
  131OSM   H14T14104   1.349   2.191   7.940  1.6142  0.1270 -1.1434
  131OSM   C15S14105   1.310   1.984   7.932  0.0145 -0.0859 -0.2989
  131OSM   H15S14106   1.237   1.909   7.895  0.5894 -0.3081 -0.9801
  131OSM   H15T14107   1.285   2.002   8.039  4.4498  0.5158  0.7332
  131OSM   C16S14108   1.456   1.928   7.922 -0.1745  0.1963 -0.6315
  131OSM   H16S14109   1.465   1.895   7.816 -1.2238 -0.1251 -0.6319
  131OSM   H16T14110   1.457   1.842   7.992 -4.3047  0.2777 -0.3338
  131OSM   C17S14111   1.573   2.031   7.946 -0.0019  0.5427 -0.3533
  131OSM   H17S14112   1.552   2.082   8.043 -3.7393  1.5287 -1.6156
  131OSM   H17T14113   1.571   2.108   7.866  1.1466 -0.2391 -1.1365
  131OSM   C18S14114   1.709   1.963   7.942  0.6734  0.2214  0.2421
  131OSM   H18S14115   1.788   2.031   7.981  1.5133  0.9850 -2.6349
  131OSM   H18T14116   1.735   1.943   7.836  0.3679 -0.0482  0.2150
  131OSM   H18U14117   1.707   1.875   8.009 -1.8327  0.1436  0.1150
  131OSM    C1F14118   1.572   2.648   6.621 -0.5066  0.8160 -0.1509
  131OSM     OF14119   1.508   2.672   6.518  0.4752 -0.3773  0.3919
  131OSM    C2F14120   1.620   2.756   6.716 -0.0265  1.0306  0.0578
  131OSM    H2F14121   1.684   2.714   6.796  0.4596 -2.0910 -1.8667
  131OSM    H2G14122   1.527   2.786   6.768 -0.1691  1.7376 -0.6018
  131OSM    C3F14123   1.697   2.869   6.648 -0.2698 -0.2746  0.2777
  131OSM    H3F14124   1.620   2.929   6.596  0.2738  0.0742 -0.1370
  131OSM    H3G14125   1.769   2.852   6.565  1.0400 -0.2375  1.3788
  131OSM    C4F14126   1.768   2.955   6.755 -0.0633 -0.3038  0.0446
  131OSM    H4F14127   1.844   3.018   6.704  1.1583 -1.8508 -0.0995
  131OSM    H4G14128   1.827   2.876   6.807  0.5910 -0.2926 -0.6759
  131OSM    C5F14129   1.668   3.028   6.844 -0.2352 -0.5616 -0.2947
  131OSM    H5F14130   1.617   2.948   6.900 -0.0434  1.3221  2.6679
  131OSM    H5G14131   1.595   3.088   6.786  0.1759  0.6299  0.4000
  131OSM    C6F14132   1.744   3.116   6.945 -0.6665 -0.0905  0.0748
  131OSM    H6F14133   1.809   3.188   6.890  1.3943 -0.4519  1.9597
  131OSM    H6G14134   1.805   3.033   6.986 -1.9961 -1.3591 -0.4765
  131OSM    C7F14135   1.653   3.177   7.055  0.3624  0.1976 -0.0349
  131OSM    H7F14136   1.600   3.094   7.105 -0.9140  0.6052 -0.6880
  131OSM    H7G14137   1.577   3.240   7.005  0.9217 -0.4621 -1.7596
  131OSM    C8F14138   1.721   3.275   7.153 -0.2285 -0.1516 -0.1350
  131OSM    H8F14139   1.794   3.342   7.103  1.3380 -1.6698  0.0399
  131OSM    H8G14140   1.785   3.216   7.222 -0.5528  0.7552  0.9437
  131OSM    C9F14141   1.616   3.352   7.229  0.1973  0.1778 -0.5160
  131OSM    H9F14142   1.529   3.385   7.170 -0.8563 -1.5599  0.0149
  131OSM   C10F14143   1.635   3.391   7.356 -0.2006 -0.5461  0.5332
  131OSM   H10F14144   1.558   3.453   7.404 -1.1685 -2.2009  1.1765
  131OSM   C11F14145   1.752   3.358   7.453  0.5567 -0.0481  1.0105
  131OSM   H11F14146   1.805   3.448   7.489  1.2355 -0.0763  0.1151
  131OSM   H11G14147   1.822   3.292   7.397 -1.5409 -2.1340  0.7630
  131OSM   C12F14148   1.694   3.287   7.577 -0.5104  0.0049 -0.5662
  131OSM   H12F14149   1.777   3.230   7.625 -0.3418  0.9523  0.2908
  131OSM   H12G14150   1.611   3.215   7.563  1.0095 -1.9081  0.0411
  131OSM   C13F14151   1.653   3.382   7.691 -0.8546  0.0035  0.0144
  131OSM   H13F14152   1.565   3.443   7.659 -0.8704 -0.4042 -0.7347
  131OSM   H13G14153   1.734   3.458   7.694  1.5799 -2.3820 -1.8603
  131OSM   C14F14154   1.652   3.315   7.826 -0.0867 -0.8187  0.0041
  131OSM   H14F14155   1.748   3.264   7.849 -0.5782 -1.8215 -0.1332
  131OSM   H14G14156   1.569   3.242   7.811 -0.4088  0.0378 -2.7466
  131OSM   C15F14157   1.627   3.417   7.930 -0.2067  0.6364  0.4414
  131OSM   H15F14158   1.528   3.464   7.914  0.2046  2.1827  2.2456
  131OSM   H15G14159   1.711   3.489   7.915 -1.3291  1.5349 -1.9292
  131OSM   C16F14160   1.629   3.363   8.077  0.3455  0.1934 -0.1964
  131OSM   H16F14161   1.732   3.323   8.089  0.2752 -0.5571 -1.9088
  131OSM   H16G14162   1.554   3.282   8.096 -1.1326  2.0103  2.0448
  131OSM   C17F14163   1.603   3.470   8.181  0.2995  0.7142 -0.2145
  131OSM   H17F14164   1.499   3.504   8.164  0.2682  0.9359  0.3836
  131OSM   H17G14165   1.670   3.556   8.157  1.6482 -0.6661 -1.5396
  131OSM   C18F14166   1.626   3.421   8.322  0.5979  0.3404 -0.1832
  131OSM   H18F14167   1.561   3.331   8.332  1.6145 -0.2869  0.8489
  131OSM   H18G14168   1.593   3.504   8.388 -0.9913  0.0762 -0.6201
  131OSM   H18H14169   1.732   3.391   8.338  0.6166  1.8265  2.7422
  132OSM      N14170   3.684   0.614   6.398  0.1609 -0.0437 -0.0209
  132OSM    C1514171   3.649   0.642   6.255 -0.0604  0.5952  0.1620
  132OSM   H15A14172   3.624   0.744   6.231 -2.4567 -0.1588 -0.7108
  132OSM   H15B14173   3.575   0.570   6.224 -0.3535  1.1141 -0.3414
  132OSM   H15C14174   3.737   0.618   6.197 -0.7244  0.3234 -0.7343
  132OSM    C1414175   3.804   0.700   6.445 -0.0641  0.3516  0.5991
  132OSM   H14A14176   3.783   0.801   6.415  3.2812  1.0409  0.4310
  132OSM   H14B14177   3.898   0.666   6.404 -0.2124  2.7903 -1.8913
  132OSM   H14C14178   3.803   0.703   6.553 -0.6089  0.3826  0.5940
  132OSM    C1314179   3.566   0.659   6.474 -0.3029 -0.0144  0.3437
  132OSM   H13A14180   3.539   0.758   6.441 -2.5657 -0.4952  0.7102
  132OSM   H13B14181   3.594   0.670   6.578 -0.2009 -0.3466  0.3505
  132OSM   H13C14182   3.482   0.592   6.474 -0.3269 -0.0118  2.2211
  132OSM    C1214183   3.716   0.467   6.423  0.0729 -0.1369  0.7029
  132OSM   H12A14184   3.739   0.457   6.528  1.6082 -2.7869  0.1567
  132OSM   H12B14185   3.810   0.440   6.376 -0.8531  0.5691 -1.6283
  132OSM    C1114186   3.611   0.356   6.385  0.3279 -0.4569 -0.1453
  132OSM   H11A14187   3.516   0.379   6.438  0.5866 -0.4290  0.3079
  132OSM   H11B14188   3.639   0.268   6.447 -1.9844 -1.0790  0.0642
  132OSM      P14189   3.443   0.266   6.211 -0.4490  0.1568 -0.2193
  132OSM    O1314190   3.339   0.371   6.205  0.1943 -1.0637 -0.0919
  132OSM    O1414191   3.458   0.177   6.095 -0.0792 -0.0346 -0.5312
  132OSM    O1114192   3.414   0.186   6.345 -0.1314  0.3714 -0.1352
  132OSM    O1214193   3.585   0.332   6.242  0.3167 -0.2231 -0.0572
  132OSM    C1S14194   3.372   0.049   6.329 -0.4469  0.4135 -0.4601
  132OSM    H1S14195   3.457  -0.008   6.285  0.5733  0.3410  1.5638
  132OSM    H1T14196   3.284   0.041   6.261 -1.2079 -1.4563  0.7201
  132OSM     NF14197   3.303  -0.154   6.465 -0.2899 -0.2188 -0.0277
  132OSM    HNF14198   3.207  -0.180   6.477 -0.3302 -0.8226 -1.5754
  132OSM    C2S14199   3.334  -0.014   6.474 -0.5935  0.3252  0.1615
  132OSM    H2S14200   3.431  -0.001   6.526 -0.6245  2.2868 -0.2272
  132OSM    C3S14201   3.217   0.072   6.533 -0.5387  0.4893  0.5071
  132OSM    H3S14202   3.138   0.057   6.457 -1.6820 -1.3654  2.0213
  132OSM     O314203   3.228   0.214   6.537  0.8404  0.5686  0.4269
  132OSM    HO314204   3.303   0.236   6.482  0.4880  0.7040 -0.0047
  132OSM    C4S14205   3.184   0.013   6.666  0.1877  0.1244  0.0007
  132OSM    H4S14206   3.261   0.041   6.739  0.7010 -1.1101 -0.0555
  132OSM    C5S14207   3.068  -0.052   6.702  0.4966 -0.1114 -0.1300
  132OSM    H5S14208   2.983  -0.044   6.632  0.5162 -0.1057 -0.1532
  132OSM    C6S14209   3.034  -0.108   6.836  0.1186 -0.1219  0.1262
  132OSM    H6S14210   2.994  -0.210   6.824  4.2586 -1.8936  0.5242
  132OSM    H6T14211   2.951  -0.052   6.885  0.7142  1.3317 -0.4885
  132OSM    C7S14212   3.148  -0.097   6.936  0.6012 -0.0535  0.0489
  132OSM    H7S14213   3.165   0.010   6.961  2.3671 -0.6628  1.5346
  132OSM    H7T14214   3.234  -0.155   6.897  1.3854  1.3134 -0.2864
  132OSM    C8S14215   3.126  -0.159   7.076  0.2903 -0.4912 -0.2822
  132OSM    H8S14216   3.127  -0.270   7.079 -3.7292 -0.6720 -1.9609
  132OSM    H8T14217   3.030  -0.116   7.111  0.4834 -0.1672 -0.1455
  132OSM    C9S14218   3.235  -0.108   7.166  1.0290  0.7092 -0.1699
  132OSM    H9S14219   3.247   0.002   7.151 -3.3330  1.4905  1.5018
  132OSM    H9T14220   3.329  -0.156   7.131 -0.2625 -2.0460  0.1014
  132OSM   C10S14221   3.202  -0.130   7.311 -0.0136 -0.0741  0.6535
  132OSM   H10S14222   3.223  -0.237   7.329 -0.5482 -0.4411 -0.8224
  132OSM   H10T14223   3.096  -0.109   7.335 -0.5858 -1.1688 -0.8624
  132OSM   C11S14224   3.296  -0.044   7.398  0.6328  0.3833 -0.9826
  132OSM   H11S14225   3.269   0.063   7.381 -1.5575  0.5139  2.7738
  132OSM   H11T14226   3.401  -0.059   7.364  1.6684 -0.6602  2.4415
  132OSM   C12S14227   3.273  -0.086   7.546 -0.1604  0.0759 -0.0382
  132OSM   H12S14228   3.285  -0.197   7.549 -0.5356  0.0614  1.2930
  132OSM   H12T14229   3.173  -0.055   7.584  0.1019  0.3302  0.4500
  132OSM   C13S14230   3.365  -0.044   7.662  0.3329  0.7008 -0.5312
  132OSM   H13S14231   3.468  -0.085   7.645 -0.4972 -0.2691 -3.4343
  132OSM   H13T14232   3.327  -0.082   7.760  0.5856 -0.6796 -0.9463
  132OSM   C14S14233   3.392   0.106   7.675  0.0568  0.2382 -0.8868
  132OSM   H14S14234   3.299   0.164   7.657  0.3937  1.4692  1.1763
  132OSM   H14T14235   3.474   0.125   7.603  0.2444 -3.9725 -1.9411
  132OSM   C15S14236   3.428   0.143   7.821  0.2628 -0.2095  0.7542
  132OSM   H15S14237   3.462   0.249   7.821  2.8438 -0.9916 -1.5549
  132OSM   H15T14238   3.516   0.085   7.856  0.3655 -0.0304  0.7941
  132OSM   C16S14239   3.317   0.139   7.921 -0.1620 -0.8835  0.7562
  132OSM   H16S14240   3.264   0.041   7.921  0.5328 -1.2709  1.4307
  132OSM   H16T14241   3.235   0.205   7.886  2.3703  1.5383 -0.7687
  132OSM   C17S14242   3.362   0.162   8.064 -0.8541 -0.2246 -0.3220
  132OSM   H17S14243   3.269   0.153   8.124 -1.2249  4.3963 -0.0611
  132OSM   H17T14244   3.392   0.268   8.072 -0.2479 -0.3446 -0.9317
  132OSM   C18S14245   3.476   0.078   8.121 -0.2284 -0.3229 -0.2231
  132OSM   H18S14246   3.570   0.100   8.066 -0.5381  1.9889  0.1467
  132OSM   H18T14247   3.464  -0.032   8.106 -1.7225 -0.2633  0.4514
  132OSM   H18U14248   3.489   0.085   8.231  0.9226 -2.6351 -0.1789
  132OSM    C1F14249   3.396  -0.253   6.450  0.0279 -0.2739  0.4723
  132OSM     OF14250   3.510  -0.220   6.442 -0.2085  0.3649 -0.2788
  132OSM    C2F14251   3.354  -0.394   6.452  1.0143  0.0106 -0.6114
  132OSM    H2F14252   3.355  -0.427   6.346  0.5899  0.2351 -0.6847
  132OSM    H2G14253   3.249  -0.397   6.487  1.5359  0.0589  1.0036
  132OSM    C3F14254   3.438  -0.489   6.545  0.2883 -0.3958  0.3061
  132OSM    H3F14255   3.539  -0.495   6.499  0.3105 -1.6524  0.4930
  132OSM    H3G14256   3.399  -0.593   6.538  1.2040 -0.5995 -2.1048
  132OSM    C4F14257   3.448  -0.439   6.689 -0.0825 -0.4052 -0.3245
  132OSM    H4F14258   3.342  -0.420   6.718  0.2802 -2.2323  2.2993
  132OSM    H4G14259   3.517  -0.352   6.690 -1.7790  0.9776  2.1993
  132OSM    C5F14260   3.503  -0.549   6.776  0.2165  0.3218  0.1990
  132OSM    H5F14261   3.586  -0.600   6.722  0.7490 -0.2768  1.5618
  132OSM    H5G14262   3.420  -0.621   6.790 -0.9527  1.2265 -1.8665
  132OSM    C6F14263   3.564  -0.507   6.907 -0.3058 -0.4765 -0.4433
  132OSM    H6F14264   3.654  -0.446   6.889 -0.6882  0.2911  0.2173
  132OSM    H6G14265   3.599  -0.599   6.958 -0.0020 -0.8763 -1.3645
  132OSM    C7F14266   3.472  -0.429   6.994 -0.4885  0.3427 -0.5407
  132OSM    H7F14267   3.368  -0.457   6.967 -0.8482 -0.1472  1.2932
  132OSM    H7G14268   3.477  -0.320   6.973 -0.3899  0.2372 -1.0872
  132OSM    C8F14269   3.493  -0.464   7.139 -0.0911  0.8053 -0.7682
  132OSM    H8F14270   3.485  -0.574   7.152  0.9068  0.8732  0.4436
  132OSM    H8G14271   3.408  -0.430   7.203 -1.7878 -3.1433 -0.8248
  132OSM    C9F14272   3.625  -0.423   7.191 -1.1693  0.0207  0.0072
  132OSM    H9F14273   3.691  -0.393   7.108 -0.5580 -2.4022 -0.4227
  132OSM   C10F14274   3.651  -0.389   7.316 -0.0373 -0.3284  0.3820
  132OSM   H10F14275   3.753  -0.353   7.337 -0.8394  1.4068  1.3917
  132OSM   C11F14276   3.549  -0.387   7.434  0.2248  0.6045 -0.1333
  132OSM   H11F14277   3.472  -0.465   7.416 -0.3265  0.9305  0.8041
  132OSM   H11G14278   3.497  -0.290   7.441 -1.0513  0.0569 -1.8301
  132OSM   C12F14279   3.612  -0.423   7.568 -0.0434  0.1472  0.2720
  132OSM   H12F14280   3.686  -0.342   7.582 -1.6169  1.4428  1.2174
  132OSM   H12G14281   3.670  -0.518   7.570  0.1250  0.1855 -2.0574
  132OSM   C13F14282   3.508  -0.409   7.684  0.1344 -0.0450 -0.3478
  132OSM   H13F14283   3.421  -0.474   7.663  1.0286 -1.4778  0.2705
  132OSM   H13G14284   3.474  -0.304   7.689  0.1636 -0.0549  0.0813
  132OSM   C14F14285   3.560  -0.453   7.821 -0.1817  0.7590 -0.1545
  132OSM   H14F14286   3.651  -0.396   7.846  0.2128  0.6936 -1.4032
  132OSM   H14G14287   3.607  -0.552   7.808  1.4999  1.4721  0.4204
  132OSM   C15F14288   3.453  -0.450   7.937 -0.0063  0.4727  0.2970
  132OSM   H15F14289   3.362  -0.507   7.908  0.9855 -0.4172 -1.0943
  132OSM   H15G14290   3.416  -0.345   7.943 -0.6809  0.2275  0.5019
  132OSM   C16F14291   3.501  -0.499   8.071 -0.6609 -0.0594  0.3740
  132OSM   H16F14292   3.527  -0.607   8.059  1.0457  0.1140  2.2756
  132OSM   H16G14293   3.428  -0.488   8.153  0.3822 -0.4048  1.3650
  132OSM   C17F14294   3.616  -0.409   8.127  0.3104 -0.4394  0.4994
  132OSM   H17F14295   3.581  -0.305   8.108 -1.3325 -1.2287 -0.9532
  132OSM   H17G14296   3.711  -0.415   8.069 -1.4907 -2.4375 -2.3481
  132OSM   C18F14297   3.636  -0.421   8.277  0.0549 -0.2168 -0.3790
  132OSM   H18F14298   3.682  -0.515   8.316 -1.1309  0.0125  1.6736
  132OSM   H18G14299   3.547  -0.400   8.341  0.4683  1.0132 -0.2053
  132OSM   H18H14300   3.709  -0.345   8.311 -0.2997  0.3916 -0.9854
  133SAPE     N14301   6.295   4.623  10.799 -0.3881 -0.2467  0.3469
  133SAPE   HN114302   6.194   4.620  10.825 -0.3292  0.1920  0.6532
  133SAPE   HN214303   6.353   4.608  10.884 -0.9402  2.2594  1.2345
  133SAPE   HN314304   6.325   4.717  10.765  0.4514 -1.0064 -1.0367
  133SAPE   C1214305   6.328   4.522  10.700 -0.2513 -0.4382  0.1726
  133SAPE  H12A14306   6.267   4.540  10.609 -1.8735 -0.7256  1.1934
  133SAPE  H12B14307   6.301   4.421  10.735 -1.6699  0.6580  2.3744
  133SAPE   C1114308   6.474   4.541  10.646 -0.0907  0.8795 -0.4706
  133SAPE  H11A14309   6.491   4.636  10.591  0.3287  2.1641  1.8216
  133SAPE  H11B14310   6.493   4.459  10.573  1.2166  0.5837  0.1947
  133SAPE     P14311   6.698   4.644  10.770  0.2054 -0.1915 -0.0586
  133SAPE   O1314312   6.647   4.782  10.787 -0.1535 -0.2914 -0.7228
  133SAPE   O1414313   6.782   4.599  10.882 -0.4868 -0.5034  0.0682
  133SAPE   O1214314   6.576   4.537  10.743 -0.5132 -0.0687  0.3379
  133SAPE   O1114315   6.789   4.640  10.638 -0.1645 -0.7035 -0.3784
  133SAPE    C114316   6.823   4.509  10.592  0.5621 -0.2509  0.8467
  133SAPE    HA14317   6.910   4.477  10.653  0.7031  1.2093  1.4317
  133SAPE    HB14318   6.741   4.435  10.594  0.4832 -0.2457 -0.8756
  133SAPE    C214319   6.871   4.519  10.439 -0.0653  0.4541  0.2160
  133SAPE    HS14320   6.944   4.601  10.423  0.7065 -0.5047 -1.2328
  133SAPE   O2114321   6.751   4.546  10.360  0.2102  0.2239 -0.6657
  133SAPE   C2114322   6.722   4.674  10.347 -0.6747  0.4993 -0.2079
  133SAPE   O2214323   6.802   4.765  10.371 -0.2856  0.1063  0.7881
  133SAPE   C2214324   6.575   4.695  10.296 -0.2268 -0.9933  0.6002
  133SAPE   H2R14325   6.515   4.722  10.386 -1.3608 -0.0374 -0.4155
  133SAPE   H2S14326   6.576   4.779  10.223 -2.5702  0.7060  2.4093
  133SAPE    C314327   6.919   4.378  10.397 -0.2711 -0.0471  0.3614
  133SAPE    HX14328   6.842   4.298  10.400 -0.7601  0.2622 -2.3257
  133SAPE    HY14329   6.994   4.356  10.476 -0.6163  3.6789  1.8055
  133SAPE   O3114330   6.977   4.376  10.266 -0.4171  0.1195 -0.0585
  133SAPE   C3114331   7.113   4.376  10.268  0.1011  0.4025 -0.9624
  133SAPE   O3214332   7.186   4.409  10.358  0.8737  0.6724 -0.2642
  133SAPE   C3214333   7.153   4.340  10.128 -0.6323 -0.0392 -0.4009
  133SAPE   H2X14334   7.252   4.385  10.108 -1.1095  1.8944  1.4046
  133SAPE   H2Y14335   7.076   4.383  10.061 -0.5202 -1.4823 -1.4854
  133SAPE   C2314336   6.507   4.573  10.241  0.6796 -0.2123 -0.9052
  133SAPE   H3R14337   6.399   4.595  10.230  0.6498 -0.0792 -0.3952
  133SAPE   H3S14338   6.517   4.479  10.300 -2.3957  0.5325  0.9310
  133SAPE   C2414339   6.570   4.537  10.103 -0.1921  0.2163  0.1223
  133SAPE   H4R14340   6.676   4.508  10.118  0.7966  2.5520 -1.9384
  133SAPE   H4S14341   6.583   4.627  10.039 -0.5094 -0.2570 -0.6167
  133SAPE   C2514342   6.488   4.423  10.034  0.0112 -0.3274 -0.0251
  133SAPE   H5R14343   6.463   4.343  10.105  0.7111  0.8371  1.5718
  133SAPE   C2614344   6.456   4.405   9.904  0.4157  0.0346 -0.5313
  133SAPE   H6R14345   6.389   4.324   9.874 -0.3952  0.7152 -0.5591
  133SAPE   C2714346   6.496   4.499   9.797  0.0438 -0.0507  0.0178
  133SAPE   H7R14347   6.495   4.428   9.711  2.5112  0.7942 -0.7245
  133SAPE   H7S14348   6.598   4.537   9.818  0.5047 -0.2550 -1.8289
  133SAPE   C2814349   6.411   4.626   9.781 -0.3778 -0.3203 -0.5309
  133SAPE   H8R14350   6.394   4.685   9.872 -1.8814  1.5399 -1.9592
  133SAPE   C2914351   6.361   4.677   9.667  0.7147 -0.7188  0.0108
  133SAPE   H9R14352   6.295   4.764   9.673  2.5711  0.7271 -0.3476
  133SAPE  C21014353   6.358   4.620   9.527  0.0721 -0.3098 -0.1563
  133SAPE  H10R14354   6.280   4.678   9.474  0.1151  1.0930  1.2698
  133SAPE  H10S14355   6.330   4.512   9.535  1.6785 -0.7078  0.2255
  133SAPE  C21114356   6.487   4.628   9.445 -0.4777 -0.4857  0.6442
  133SAPE  H11R14357   6.579   4.617   9.504 -1.4713 -1.4636  2.0395
  133SAPE  C21214358   6.494   4.646   9.305 -0.2578 -1.0957 -0.5653
  133SAPE  H12R14359   6.596   4.632   9.268  0.1030 -1.1180  0.4314
  133SAPE  C21314360   6.376   4.665   9.207  0.2982 -0.4291 -0.3266
  133SAPE  H13R14361   6.286   4.634   9.263  0.6967 -0.3703  0.3601
  133SAPE  H13S14362   6.367   4.602   9.116 -0.9186  0.1940 -0.6492
  133SAPE  C21414363   6.368   4.812   9.170 -0.0173  0.0708  0.3363
  133SAPE  H14R14364   6.366   4.879   9.257 -1.3557 -1.9204  1.9115
  133SAPE  C21514365   6.381   4.857   9.049  0.6064 -0.5131  0.0626
  133SAPE  H15R14366   6.388   4.967   9.040  0.5132 -0.5376 -0.3486
  133SAPE  C21614367   6.413   4.781   8.922 -0.3811  0.4627  0.3480
  133SAPE  H16R14368   6.350   4.690   8.913  2.6155 -1.5926 -0.7538
  133SAPE  H16S14369   6.513   4.736   8.937 -0.2213  1.2096  1.5675
  133SAPE  C21714370   6.404   4.846   8.780  0.2942 -0.0069 -0.2967
  133SAPE  H17R14371   6.418   4.753   8.720  2.6789  0.2699 -0.1877
  133SAPE  H17S14372   6.496   4.906   8.770 -1.0010  2.1282  0.2416
  133SAPE  C21814373   6.263   4.902   8.751  0.0726 -0.0854 -0.0984
  133SAPE  H18R14374   6.227   4.967   8.833 -0.9078  0.0716 -0.6429
  133SAPE  H18S14375   6.197   4.813   8.752 -0.0570 -0.0071 -0.9974
  133SAPE  C21914376   6.242   4.974   8.615 -0.5814  1.0162 -0.1117
  133SAPE  H19R14377   6.315   5.057   8.607 -0.7770  1.0807 -1.2276
  133SAPE  H19S14378   6.140   5.019   8.612 -0.0915  2.1920  0.5758
  133SAPE  C22014379   6.237   4.889   8.485 -0.2886 -0.3643  0.2388
  133SAPE  H20R14380   6.320   4.815   8.479  0.6197  0.6996 -0.4010
  133SAPE  H20S14381   6.223   4.959   8.401  2.7937  1.0728  0.8456
  133SAPE  H20T14382   6.154   4.815   8.484  1.1168 -1.9913  0.7183
  133SAPE   C3314383   7.142   4.187  10.103 -0.2427  0.5633  0.0472
  133SAPE   H3X14384   7.039   4.145  10.111 -0.0311 -0.6882 -3.0957
  133SAPE   H3Y14385   7.212   4.132  10.169  2.2919  0.6771 -2.4534
  133SAPE   C3414386   7.203   4.146   9.966 -0.0921  0.6004 -0.7863
  133SAPE   H4X14387   7.179   4.039   9.947 -0.6371  0.8437 -1.4759
  133SAPE   H4Y14388   7.313   4.158   9.972  0.0206 -0.7746  0.0385
  133SAPE   C3514389   7.138   4.228   9.850 -0.0439 -0.0466 -0.7015
  133SAPE   H5X14390   7.180   4.173   9.763 -0.7643 -0.6612 -0.6739
  133SAPE   H5Y14391   7.159   4.336   9.835 -2.9708  0.4257 -1.8120
  133SAPE   C3614392   6.982   4.224   9.836 -0.3750  0.5197  0.2415
  133SAPE   H6X14393   6.923   4.277   9.913 -1.0601 -0.8046  0.6494
  133SAPE   H6Y14394   6.958   4.116   9.844  0.8260  0.2406  0.1874
  133SAPE   C3714395   6.942   4.275   9.705 -0.1353 -0.0067  0.8439
  133SAPE   H7X14396   7.007   4.239   9.622 -0.3665  1.2187  0.1077
  133SAPE   H7Y14397   6.965   4.384   9.700  0.4435  0.0063  3.2028
  133SAPE   C3814398   6.794   4.258   9.672  0.9046  0.9422  0.7727
  133SAPE   H8X14399   6.726   4.312   9.741 -0.4590 -0.7461  0.7812
  133SAPE   H8Y14400   6.777   4.148   9.669  2.7584  0.5378  3.1869
  133SAPE   C3914401   6.771   4.299   9.523  0.1825 -1.2685 -0.4101
  133SAPE   H9X14402   6.842   4.235   9.465 -1.2835 -0.7734 -2.8157
  133SAPE   H9Y14403   6.805   4.404   9.509 -0.3580 -1.2032 -1.2790
  133SAPE  C31014404   6.633   4.276   9.457 -0.3191  0.5331 -1.1449
  133SAPE  H10X14405   6.567   4.365   9.468 -0.9848 -0.3087  2.5778
  133SAPE  H10Y14406   6.587   4.185   9.501  0.7388  0.4242 -0.2483
  133SAPE  C31114407   6.642   4.239   9.309 -0.4348  0.2938 -0.4459
  133SAPE  H11X14408   6.684   4.137   9.302  0.3398  0.5518  0.2581
  133SAPE  H11Y14409   6.698   4.316   9.251 -0.2313  0.1562 -0.4321
  133SAPE  C31214410   6.501   4.218   9.254  0.8727 -0.7558  0.1836
  133SAPE  H12X14411   6.430   4.303   9.264  1.3868 -0.2175 -0.6511
  133SAPE  H12Y14412   6.449   4.132   9.300  1.2836 -0.2158  1.6675
  133SAPE  C31314413   6.494   4.209   9.103 -0.2019  0.1987  0.2232
  133SAPE  H13X14414   6.384   4.211   9.088 -0.3328 -0.2802  1.1166
  133SAPE  H13Y14415   6.535   4.113   9.062 -0.7464 -0.0843  0.3400
  133SAPE  C31414416   6.542   4.326   9.016  0.1852 -0.4155  0.7327
  133SAPE  H14X14417   6.653   4.317   9.011 -0.0597 -3.7236  0.7693
  133SAPE  H14Y14418   6.519   4.428   9.055  1.8629 -0.1251  1.0201
  133SAPE  C31514419   6.497   4.310   8.861 -0.1662 -0.1061 -0.5285
  133SAPE  H15X14420   6.508   4.202   8.836  1.3977 -0.4094  1.3384
  133SAPE  H15Y14421   6.574   4.366   8.803 -0.1004 -0.3249 -0.6550
  133SAPE  C31614422   6.362   4.364   8.833 -0.0029  0.7134  0.0580
  133SAPE  H16X14423   6.346   4.470   8.861 -2.2860 -0.1047  1.9964
  133SAPE  H16Y14424   6.290   4.307   8.896  0.6501 -1.1336 -0.8052
  133SAPE  C31714425   6.299   4.341   8.699  0.5497  0.1723 -0.4479
  133SAPE  H17X14426   6.188   4.340   8.708  0.5303  0.7958 -0.6310
  133SAPE  H17Y14427   6.315   4.243   8.650 -2.7535 -0.2343 -0.8635
  133SAPE  C31814428   6.329   4.451   8.603  0.0985  0.7148  1.2345
  133SAPE  H18X14429   6.271   4.465   8.509  2.4938 -2.9361 -0.9081
  133SAPE  H18Y14430   6.436   4.445   8.576 -0.4816 -2.0492 -0.6520
  133SAPE  H18Z14431   6.325   4.541   8.668 -0.1125  0.7162  1.2197
  134SAPE     N14432   3.329   5.445  10.711 -0.8462 -0.1994  0.2350
  134SAPE   HN114433   3.385   5.443  10.799  3.0771 -0.8235 -2.1548
  134SAPE   HN214434   3.382   5.510  10.649 -1.3374  1.7246  1.7533
  134SAPE   HN314435   3.247   5.509  10.718 -0.3576  0.9903 -3.5047
  134SAPE   C1214436   3.292   5.308  10.655 -0.1474 -0.0326  0.3483
  134SAPE  H12A14437   3.387   5.252  10.643  0.2056  0.1777  2.0445
  134SAPE  H12B14438   3.256   5.317  10.551  1.7372  1.0076 -0.2371
  134SAPE   C1114439   3.204   5.225  10.752  0.3375 -0.2036  0.4395
  134SAPE  H11A14440   3.260   5.216  10.848  0.6752  2.0633  0.4744
  134SAPE  H11B14441   3.187   5.119  10.725 -2.1807  1.0678 -3.2272
  134SAPE     P14442   2.949   5.296  10.692 -0.4896  0.2544  0.2146
  134SAPE   O1314443   2.871   5.176  10.728  0.0392 -0.1626 -0.4588
  134SAPE   O1414444   2.884   5.427  10.699  0.2433  0.0447  0.0111
  134SAPE   O1214445   3.087   5.301  10.781 -0.1009 -0.4123 -0.2082
  134SAPE   O1114446   3.007   5.271  10.550  0.1040 -0.3976 -0.0807
  134SAPE    C114447   2.997   5.344  10.424 -0.1427 -0.3117 -0.3779
  134SAPE    HA14448   2.927   5.430  10.427 -1.2022 -1.1928  0.5705
  134SAPE    HB14449   3.093   5.392  10.393  1.0731 -1.9396  0.7752
  134SAPE    C214450   2.954   5.237  10.320  0.1066  0.4930  0.0861
  134SAPE    HS14451   2.996   5.275  10.225 -0.7732  1.9404  0.2527
  134SAPE   O2114452   2.812   5.220  10.304  0.4622 -0.0546  0.1165
  134SAPE   C2114453   2.739   5.304  10.242  0.4415  0.0412  0.5586
  134SAPE   O2214454   2.772   5.414  10.197 -0.0910  0.7639 -0.0683
  134SAPE   C2214455   2.587   5.265  10.234 -0.2188  0.7185 -0.5901
  134SAPE   H2R14456   2.550   5.313  10.327 -0.5514  1.9169 -1.3199
  134SAPE   H2S14457   2.548   5.317  10.144 -0.0236  0.5536 -0.7710
  134SAPE    C314458   3.033   5.101  10.336 -0.1735 -0.0900  0.1345
  134SAPE    HX14459   3.012   5.052  10.433 -0.6753 -0.4362 -0.1518
  134SAPE    HY14460   3.139   5.135  10.331 -0.5495  0.8686 -2.2704
  134SAPE   O3114461   3.012   5.020  10.216 -0.4350 -0.2167 -0.3487
  134SAPE   C3114462   2.912   4.933  10.223  0.1644 -0.5471  0.5383
  134SAPE   O3214463   2.836   4.916  10.315 -0.5535  0.1011  0.4254
  134SAPE   C3214464   2.907   4.858  10.086  0.2330 -0.3525 -0.0680
  134SAPE   H2X14465   3.005   4.810  10.065  0.8222  1.1222 -0.7856
  134SAPE   H2Y14466   2.889   4.937  10.010 -0.4708 -1.9294 -1.5821
  134SAPE   C2314467   2.553   5.118  10.216  0.2430 -0.9916 -0.6699
  134SAPE   H3R14468   2.444   5.095  10.214 -0.2302  0.9880  1.2918
  134SAPE   H3S14469   2.602   5.062  10.298 -0.0030  0.1020  0.2332
  134SAPE   C2414470   2.607   5.065  10.083 -0.1102 -0.1354 -0.1016
  134SAPE   H4R14471   2.588   4.956  10.090  0.8426 -0.0858  4.0959
  134SAPE   H4S14472   2.717   5.080  10.075 -0.0161 -0.4274  0.6170
  134SAPE   C2514473   2.525   5.122   9.967  0.0992 -0.0616  0.2013
  134SAPE   H5R14474   2.420   5.142   9.991 -0.2586 -0.6842 -0.8271
  134SAPE   C2614475   2.570   5.151   9.852  0.3033  0.0918 -0.3106
  134SAPE   H6R14476   2.511   5.202   9.774 -1.0617 -2.1161 -0.7590
  134SAPE   C2714477   2.713   5.143   9.810  0.4539  0.3015 -0.3043
  134SAPE   H7R14478   2.786   5.124   9.892 -0.1911 -0.9662 -0.0110
  134SAPE   H7S14479   2.731   5.231   9.744 -2.5393  1.3258  0.1572
  134SAPE   C2814480   2.732   5.019   9.722 -0.2552 -0.3687 -0.1281
  134SAPE   H8R14481   2.737   4.920   9.770  2.5051  0.3380  1.1362
  134SAPE   C2914482   2.749   5.020   9.591  0.7374 -0.2538 -0.6295
  134SAPE   H9R14483   2.778   4.926   9.540  0.7391 -1.0619  0.8456
  134SAPE  C21014484   2.753   5.138   9.491 -0.1716 -1.1355 -0.4068
  134SAPE  H10R14485   2.795   5.104   9.393  0.2716  1.0521 -0.9870
  134SAPE  H10S14486   2.813   5.220   9.535 -0.7291 -1.2760  0.6228
  134SAPE  C21114487   2.613   5.184   9.465  0.1906 -0.1694  0.0591
  134SAPE  H11R14488   2.546   5.217   9.546  0.2050  2.2100 -0.8743
  134SAPE  C21214489   2.568   5.200   9.340 -0.3516  0.3368  0.2503
  134SAPE  H12R14490   2.458   5.207   9.337 -0.4560  0.1707  2.6380
  134SAPE  C21314491   2.639   5.179   9.209 -0.1982  1.0639  0.3141
  134SAPE  H13R14492   2.680   5.076   9.201  0.9170  1.3774  1.8442
  134SAPE  H13S14493   2.725   5.247   9.222 -0.7653  1.5242  1.7871
  134SAPE  C21414494   2.556   5.218   9.085 -0.2619 -0.1718 -0.5416
  134SAPE  H14R14495   2.447   5.205   9.076 -0.3783  1.3765 -1.6961
  134SAPE  C21514496   2.615   5.265   8.980  0.4352  0.6112  0.2583
  134SAPE  H15R14497   2.545   5.296   8.900 -0.0680 -0.4224  0.2978
  134SAPE  C21614498   2.764   5.286   8.956 -0.8329  0.2724  0.1909
  134SAPE  H16R14499   2.823   5.242   9.039  0.8738  1.0012 -0.6114
  134SAPE  H16S14500   2.783   5.395   8.963  0.0151  0.2104 -0.8808
  134SAPE  C21714501   2.812   5.239   8.814 -0.0153 -0.2567 -0.4205
  134SAPE  H17R14502   2.803   5.129   8.800  0.8625 -0.2998 -0.6724
  134SAPE  H17S14503   2.919   5.259   8.794  0.2272 -0.1322  0.9073
  134SAPE  C21814504   2.740   5.322   8.699  0.1583  0.4816 -0.6469
  134SAPE  H18R14505   2.753   5.429   8.729  1.6003  0.2641 -0.4474
  134SAPE  H18S14506   2.632   5.297   8.691  0.4597 -1.8663  1.8614
  134SAPE  C21914507   2.802   5.294   8.555  0.2835  0.2804 -0.2902
  134SAPE  H19R14508   2.791   5.190   8.518  3.1059 -0.1253 -0.0925
  134SAPE  H19S14509   2.910   5.318   8.560  0.6933 -1.2110 -1.6200
  134SAPE  C22014510   2.749   5.391   8.449 -0.0143 -0.2771  1.1328
  134SAPE  H20R14511   2.643   5.374   8.423  0.3441 -0.6653 -0.1229
  134SAPE  H20S14512   2.810   5.376   8.356 -1.7393 -1.3886  0.1535
  134SAPE  H20T14513   2.757   5.495   8.488  1.3203 -0.2963  0.9276
  134SAPE   C3314514   2.788   4.758  10.071 -0.2578  0.0388  0.4564
  134SAPE   H3X14515   2.721   4.812  10.000  0.3869  1.3492  0.8387
  134SAPE   H3Y14516   2.736   4.745  10.169 -0.8659 -0.3670  0.0786
  134SAPE   C3414517   2.817   4.619  10.016  0.2858 -0.1111 -0.1492
  134SAPE   H4X14518   2.736   4.546  10.039 -1.1010  1.2962 -0.4786
  134SAPE   H4Y14519   2.906   4.589  10.075  1.0882 -0.1109 -1.3514
  134SAPE   C3514520   2.848   4.617   9.862 -0.3697 -0.7292 -0.2923
  134SAPE   H5X14521   2.955   4.636   9.841 -0.8002  0.9380 -1.0938
  134SAPE   H5Y14522   2.796   4.702   9.812 -0.7636 -1.7757 -1.7249
  134SAPE   C3614523   2.798   4.485   9.794 -0.5530  0.1669  0.0138
  134SAPE   H6X14524   2.692   4.475   9.825 -0.0175  0.4088  2.0620
  134SAPE   H6Y14525   2.847   4.397   9.840  1.2596  2.0389  1.7936
  134SAPE   C3714526   2.818   4.488   9.648  0.6430  0.1582 -0.6667
  134SAPE   H7X14527   2.926   4.473   9.627  0.7002 -0.2724 -0.0739
  134SAPE   H7Y14528   2.784   4.588   9.614 -0.6659  0.0340  0.2366
  134SAPE   C3814529   2.723   4.384   9.583 -0.0874 -0.1132  0.0004
  134SAPE   H8X14530   2.618   4.375   9.618 -0.7887 -1.8038 -2.4321
  134SAPE   H8Y14531   2.761   4.284   9.613 -0.4773 -0.0438  0.7412
  134SAPE   C3914532   2.721   4.375   9.427  0.3313  0.1274 -0.0246
  134SAPE   H9X14533   2.695   4.477   9.390 -1.0654  0.0086  0.6094
  134SAPE   H9Y14534   2.645   4.302   9.391  1.2730 -1.3556  0.9470
  134SAPE  C31014535   2.856   4.342   9.363 -0.1980  0.0051  0.4562
  134SAPE  H10X14536   2.900   4.253   9.412  0.2161  1.0553  2.0487
  134SAPE  H10Y14537   2.931   4.419   9.393  0.2237  0.4722 -1.7115
  134SAPE  C31114538   2.839   4.327   9.216  0.0639 -0.4693  0.2422
  134SAPE  H11X14539   2.804   4.425   9.176  0.2153 -0.1297  0.9369
  134SAPE  H11Y14540   2.761   4.249   9.204  0.1406 -0.6053  0.6448
  134SAPE  C31214541   2.967   4.282   9.145 -0.0242  0.1778 -0.2884
  134SAPE  H12X14542   2.999   4.178   9.166  0.6488  0.6652  1.1807
  134SAPE  H12Y14543   3.048   4.354   9.170 -1.1888  0.8075  1.7627
  134SAPE  C31314544   2.937   4.286   8.996  0.5999  0.4617 -0.1109
  134SAPE  H13X14545   2.836   4.247   8.971 -0.3453  1.2495  2.3845
  134SAPE  H13Y14546   3.015   4.232   8.938  0.6179  0.4324 -0.0592
  134SAPE  C31414547   2.936   4.424   8.926  0.1225  0.2352 -0.0150
  134SAPE  H14X14548   3.031   4.430   8.868 -0.0255  1.9248 -0.1020
  134SAPE  H14Y14549   2.951   4.515   8.988  2.7248  1.0494 -1.7722
  134SAPE  C31514550   2.815   4.458   8.839  0.2876 -0.5040  0.3227
  134SAPE  H15X14551   2.821   4.557   8.789  0.1534 -0.4205  0.4704
  134SAPE  H15Y14552   2.724   4.452   8.902 -1.1330 -0.8745 -1.7086
  134SAPE  C31614553   2.771   4.355   8.732 -0.5143  1.3653 -0.3923
  134SAPE  H16X14554   2.790   4.250   8.765  0.2990  1.7565  0.4132
  134SAPE  H16Y14555   2.834   4.373   8.642 -0.1475 -1.1100 -0.6781
  134SAPE  C31714556   2.625   4.368   8.697  1.0074  0.4598  0.6426
  134SAPE  H17X14557   2.607   4.472   8.661 -3.4495 -0.7119 -0.8023
  134SAPE  H17Y14558   2.552   4.341   8.777 -2.8406  1.3890 -2.3931
  134SAPE  C31814559   2.563   4.292   8.579 -1.0430  0.2227 -0.0693
  134SAPE  H18X14560   2.612   4.323   8.483 -0.1540  1.4967  0.7743
  134SAPE  H18Y14561   2.454   4.309   8.565 -0.7818  1.9816 -0.0914
  134SAPE  H18Z14562   2.598   4.187   8.587 -0.0426  0.4745 -0.9305
  135SAPE     N14563   2.004   3.756  10.528  0.6677 -0.1511 -1.1969
  135SAPE   HN114564   2.057   3.835  10.568  0.4406 -1.2206  1.2855
  135SAPE   HN214565   1.938   3.794  10.457 -0.7037  2.1766  1.2499
  135SAPE   HN314566   1.946   3.718  10.606 -1.3066  1.2377 -1.9516
  135SAPE   C1214567   2.102   3.659  10.477  0.0652  0.1387  0.7398
  135SAPE  H12A14568   2.157   3.606  10.557  2.4311  1.8185  0.2989
  135SAPE  H12B14569   2.182   3.718  10.427 -0.2676  0.3407  0.4460
  135SAPE   C1114570   2.044   3.542  10.400  0.1607  0.6864 -0.3093
  135SAPE  H11A14571   2.134   3.481  10.377  0.7591  1.2933  0.3916
  135SAPE  H11B14572   2.012   3.571  10.297 -1.7652  1.9943  0.6270
  135SAPE     P14573   1.966   3.353  10.572  0.1418 -0.3558  0.0019
  135SAPE   O1314574   2.017   3.405  10.707 -0.0082 -0.3917  0.8424
  135SAPE   O1414575   1.854   3.256  10.585  0.1808 -0.3123 -0.2066
  135SAPE   O1214576   1.939   3.478  10.474  0.0023 -0.4421 -0.2211
  135SAPE   O1114577   2.078   3.279  10.495 -0.4923 -0.5272 -0.3571
  135SAPE    C114578   2.031   3.210  10.381  0.0497  0.4322  0.2153
  135SAPE    HA14579   1.967   3.122  10.404 -2.1425  1.2240 -2.6641
  135SAPE    HB14580   1.965   3.262  10.309  1.5479 -0.2181 -1.6531
  135SAPE    C214581   2.157   3.158  10.314  0.1233 -0.2480  0.3317
  135SAPE    HS14582   2.211   3.110  10.398  0.1684  0.6197  0.7943
  135SAPE   O2114583   2.230   3.266  10.249  0.6400 -0.0922  0.2085
  135SAPE   C2114584   2.360   3.265  10.260 -0.1855  1.0066 -0.2572
  135SAPE   O2214585   2.425   3.167  10.297  0.4069  0.1641  0.2234
  135SAPE   C2214586   2.420   3.388  10.198 -0.1324 -0.6179  0.3734
  135SAPE   H2R14587   2.434   3.375  10.088 -0.5986 -2.5586  0.5325
  135SAPE   H2S14588   2.349   3.473  10.209  0.3488  0.1917 -2.2958
  135SAPE    C314589   2.139   3.048  10.204 -0.4201 -0.2286 -0.0034
  135SAPE    HX14590   2.092   2.963  10.259  1.6868 -0.3840  1.6247
  135SAPE    HY14591   2.236   2.998  10.180  0.6030  1.3671  0.7271
  135SAPE   O3114592   2.051   3.094  10.098 -0.0999  0.2096  0.6198
  135SAPE   C3114593   2.119   3.159  10.007  0.1323  0.3493  0.3338
  135SAPE   O3214594   2.235   3.143   9.981 -0.1139 -0.0564  0.4869
  135SAPE   C3214595   2.027   3.266   9.936 -0.0139  0.1582 -0.4144
  135SAPE   H2X14596   2.086   3.360   9.944 -0.7131  0.5339  0.4291
  135SAPE   H2Y14597   1.930   3.280   9.988 -0.9193  0.1603 -2.0753
  135SAPE   C2314598   2.550   3.424  10.262  0.0733 -0.5763 -0.4830
  135SAPE   H3R14599   2.611   3.331  10.254 -1.4747 -1.6609  0.0844
  135SAPE   H3S14600   2.531   3.453  10.367 -0.1088  1.7920 -1.1415
  135SAPE   C2414601   2.629   3.537  10.184 -0.4841 -0.0686  0.5350
  135SAPE   H4R14602   2.585   3.631  10.222 -1.3730  0.1714 -1.0412
  135SAPE   H4S14603   2.610   3.545  10.075  0.7440  0.9006  0.3845
  135SAPE   C2514604   2.774   3.543  10.213  0.2615 -0.1794  0.4889
  135SAPE   H5R14605   2.793   3.496  10.311  2.1479 -2.6253 -0.9671
  135SAPE   C2614606   2.866   3.593  10.132  0.0842 -0.3236 -0.7959
  135SAPE   H6R14607   2.972   3.594  10.159 -0.3209  0.3582  0.8237
  135SAPE   C2714608   2.836   3.657  10.000 -0.3795 -0.1201 -0.3195
  135SAPE   H7R14609   2.788   3.578   9.937 -1.5137 -1.4356  2.1502
  135SAPE   H7S14610   2.930   3.686   9.948 -1.5753  1.9215 -1.4091
  135SAPE   C2814611   2.735   3.771   9.988 -0.5289  0.0515 -0.3461
  135SAPE   H8R14612   2.675   3.786  10.079  0.7974 -0.5563  0.6456
  135SAPE   C2914613   2.712   3.851   9.886 -0.1634  0.0420  0.4889
  135SAPE   H9R14614   2.635   3.930   9.888 -2.3453 -2.0009 -0.4562
  135SAPE  C21014615   2.783   3.843   9.749  0.7216  0.6987 -0.3193
  135SAPE  H10R14616   2.880   3.792   9.767  0.2727  0.9471  3.0642
  135SAPE  H10S14617   2.825   3.943   9.724 -0.8417  1.2984 -0.6038
  135SAPE  C21114618   2.694   3.779   9.645  0.0324  0.1893 -0.3859
  135SAPE  H11R14619   2.594   3.751   9.680  0.9059 -0.5351  1.5982
  135SAPE  C21214620   2.718   3.769   9.513  0.2564  0.0446 -0.2077
  135SAPE  H12R14621   2.647   3.720   9.445  0.2832 -0.7017  0.3051
  135SAPE  C21314622   2.844   3.804   9.438  0.2465  0.0060 -0.6428
  135SAPE  H13R14623   2.886   3.706   9.408  1.9660 -0.0135  1.7077
  135SAPE  H13S14624   2.927   3.841   9.501 -0.0369  1.8279 -1.3035
  135SAPE  C21414625   2.820   3.898   9.321  0.0005  0.4056  0.7261
  135SAPE  H14R14626   2.757   3.985   9.341 -0.3474 -0.0602  1.6827
  135SAPE  C21514627   2.861   3.881   9.193 -0.6438 -0.0046 -0.6018
  135SAPE  H15R14628   2.803   3.940   9.121 -1.6440 -0.9168 -0.5502
  135SAPE  C21614629   2.946   3.777   9.132  0.2682  0.1546  0.0728
  135SAPE  H16R14630   2.987   3.706   9.207 -2.2222  0.2927  1.6244
  135SAPE  H16S14631   3.031   3.831   9.084  1.0952 -0.3495  0.9526
  135SAPE  C21714632   2.881   3.700   9.017 -0.4013  0.3423  0.0009
  135SAPE  H17R14633   2.957   3.626   8.982  0.2682  0.2816  1.5735
  135SAPE  H17S14634   2.862   3.764   8.928  0.6299 -0.5499 -0.8764
  135SAPE  C21814635   2.746   3.619   9.044 -0.3115  0.2809  0.2247
  135SAPE  H18R14636   2.713   3.554   8.960  0.8117  1.6685 -1.3258
  135SAPE  H18S14637   2.675   3.702   9.069  1.6712  1.1581  3.1923
  135SAPE  C21914638   2.755   3.523   9.160 -0.2354 -0.3725  0.3200
  135SAPE  H19R14639   2.780   3.583   9.250 -0.9376  1.8035 -0.9160
  135SAPE  H19S14640   2.840   3.456   9.133  1.0765  1.2866  0.2936
  135SAPE  C22014641   2.628   3.451   9.209  0.2915  0.0018  0.2020
  135SAPE  H20R14642   2.538   3.514   9.225 -0.9078 -1.9931  1.4495
  135SAPE  H20S14643   2.638   3.405   9.310  1.8634 -1.6552 -0.6899
  135SAPE  H20T14644   2.595   3.376   9.134 -0.6352 -0.2753  0.8863
  135SAPE   C3314645   1.994   3.242   9.786 -0.2139 -0.8580 -0.2989
  135SAPE   H3X14646   1.924   3.158   9.765 -0.8661 -0.5326  0.5692
  135SAPE   H3Y14647   2.086   3.212   9.732 -0.2404  0.3921 -1.0768
  135SAPE   C3414648   1.928   3.366   9.711  0.6880 -0.2061  1.0301
  135SAPE   H4X14649   2.000   3.450   9.698  1.5857 -1.1521 -0.3109
  135SAPE   H4Y14650   1.840   3.389   9.775  0.1473  0.1152  0.1764
  135SAPE   C3514651   1.865   3.319   9.581 -0.0212 -1.0120 -0.1335
  135SAPE   H5X14652   1.796   3.238   9.614  0.8593 -1.8444 -0.3131
  135SAPE   H5Y14653   1.943   3.281   9.511  2.0074  0.0990  1.4892
  135SAPE   C3614654   1.782   3.431   9.508  0.6999 -0.0481 -0.4180
  135SAPE   H6X14655   1.844   3.524   9.505 -2.1067  1.8967 -0.6825
  135SAPE   H6Y14656   1.697   3.452   9.575  1.0894 -2.6842  0.9659
  135SAPE   C3714657   1.729   3.386   9.376  0.9885  0.2034 -0.6356
  135SAPE   H7X14658   1.662   3.298   9.391  1.5804 -0.2150 -0.3932
  135SAPE   H7Y14659   1.806   3.337   9.312 -0.0121 -1.2886 -0.7243
  135SAPE   C3814660   1.661   3.505   9.310  0.4944  0.0002 -0.2226
  135SAPE   H8X14661   1.732   3.590   9.302  0.6979 -0.0749  0.7662
  135SAPE   H8Y14662   1.578   3.537   9.377 -0.5354 -0.8382 -1.0772
  135SAPE   C3914663   1.592   3.470   9.172  0.6322  0.3167 -0.4832
  135SAPE   H9X14664   1.531   3.552   9.130  1.2415  1.5229  0.9300
  135SAPE   H9Y14665   1.514   3.390   9.172 -0.9669  1.7735 -4.1144
  135SAPE  C31014666   1.697   3.436   9.065  0.3380 -0.2510 -0.3592
  135SAPE  H10X14667   1.639   3.423   8.971  0.9150  0.7263 -0.8594
  135SAPE  H10Y14668   1.747   3.341   9.091  0.7025 -0.0577 -0.3508
  135SAPE  C31114669   1.788   3.555   9.040 -0.8944  0.8416  0.7411
  135SAPE  H11X14670   1.862   3.520   8.965 -2.7105  0.2482 -0.8185
  135SAPE  H11Y14671   1.854   3.596   9.120  1.5396 -0.0321 -0.7557
  135SAPE  C31214672   1.718   3.680   8.989  0.7505 -0.1273 -0.3663
  135SAPE  H12X14673   1.795   3.757   8.967 -0.1226 -0.0054 -3.1273
  135SAPE  H12Y14674   1.656   3.715   9.075 -0.2864 -1.5553 -0.5184
  135SAPE  C31314675   1.624   3.664   8.872 -0.1542 -0.0115  0.4454
  135SAPE  H13X14676   1.570   3.761   8.868  1.0195  0.6795  0.8925
  135SAPE  H13Y14677   1.547   3.585   8.878 -1.0753  0.6689 -1.7952
  135SAPE  C31414678   1.701   3.645   8.743 -0.0342 -0.1996 -0.4680
  135SAPE  H14X14679   1.637   3.610   8.659 -0.4235  1.6943 -0.9649
  135SAPE  H14Y14680   1.774   3.564   8.765  0.3210 -0.1676 -1.4935
  135SAPE  C31514681   1.768   3.776   8.697 -0.6258 -0.2594  0.3806
  135SAPE  H15X14682   1.826   3.822   8.780  1.5918 -0.4805 -1.0111
  135SAPE  H15Y14683   1.687   3.847   8.673 -1.6382 -0.7289  2.2720
  135SAPE  C31614684   1.860   3.747   8.571  0.0612 -0.0459 -0.2884
  135SAPE  H16X14685   1.896   3.642   8.584  2.1350  0.9754  2.8140
  135SAPE  H16Y14686   1.949   3.813   8.571 -0.1335  0.2206 -1.4029
  135SAPE  C31714687   1.783   3.761   8.444  0.1579  0.4931 -0.1602
  135SAPE  H17X14688   1.684   3.711   8.458  0.4963 -0.5792 -1.4666
  135SAPE  H17Y14689   1.835   3.702   8.366  0.2374 -0.8541  0.8930
  135SAPE  C31814690   1.779   3.902   8.394 -0.5817  0.4071 -0.3567
  135SAPE  H18X14691   1.733   3.919   8.295 -1.5236  0.5021  0.0852
  135SAPE  H18Y14692   1.881   3.946   8.398 -1.1306  1.6317  0.5905
  135SAPE  H18Z14693   1.718   3.964   8.465 -0.4236 -1.8078  1.7724
  136SAPE     N14694   4.844   3.324  11.125 -0.3473  0.7047 -0.0970
  136SAPE   HN114695   4.795   3.296  11.213 -0.1989 -1.3239 -0.6271
  136SAPE   HN214696   4.774   3.376  11.070 -0.7223 -1.0448 -1.2968
  136SAPE   HN314697   4.868   3.234  11.079 -2.1264  0.3995 -0.4537
  136SAPE   C1214698   4.958   3.412  11.160 -0.2058  0.6965 -0.2907
  136SAPE  H12A14699   4.990   3.376  11.260  0.6760  0.7306 -0.5545
  136SAPE  H12B14700   4.917   3.516  11.157 -0.9178  0.3894 -1.2347
  136SAPE   C1114701   5.072   3.401  11.062  0.5255 -0.1486  0.3277
  136SAPE  H11A14702   5.130   3.307  11.071  0.6400 -0.2639 -1.3737
  136SAPE  H11B14703   5.144   3.484  11.078  3.2494 -2.4954  0.7202
  136SAPE     P14704   5.006   3.534  10.843 -0.4004 -0.0518 -0.2163
  136SAPE   O1314705   4.897   3.616  10.907 -0.0181 -0.6918  0.2089
  136SAPE   O1414706   5.138   3.603  10.827 -0.6533  0.6009  0.1718
  136SAPE   O1214707   5.016   3.406  10.925 -0.3625 -0.2292  0.1310
  136SAPE   O1114708   4.955   3.492  10.698  0.2140  0.4133 -0.0748
  136SAPE    C114709   4.995   3.368  10.643 -0.3728 -0.2618 -0.2333
  136SAPE    HA14710   4.966   3.291  10.717  0.3582  0.2961  0.6483
  136SAPE    HB14711   4.935   3.348  10.552  1.2179 -0.6014 -1.2294
  136SAPE    C214712   5.141   3.352  10.601 -0.3962  0.8190  0.0015
  136SAPE    HS14713   5.214   3.383  10.678 -1.3036  1.7744  0.4999
  136SAPE   O2114714   5.157   3.438  10.487  1.0006  0.3182 -0.4064
  136SAPE   C2114715   5.282   3.479  10.470 -0.1427  0.3791  0.1535
  136SAPE   O2214716   5.377   3.441  10.538 -0.3117 -0.7816 -0.3980
  136SAPE   C2214717   5.292   3.553  10.339  0.0989  0.3920 -0.2734
  136SAPE   H2R14718   5.337   3.494  10.257 -0.5127  0.8599 -0.9469
  136SAPE   H2S14719   5.190   3.582  10.305  0.1233 -0.3029 -0.9303
  136SAPE    C314720   5.176   3.206  10.551 -0.2706  0.1967  0.1832
  136SAPE    HX14721   5.148   3.135  10.632  1.8539 -1.9350 -0.8910
  136SAPE    HY14722   5.286   3.191  10.545 -0.7204 -2.6994 -1.3674
  136SAPE   O3114723   5.108   3.178  10.428  0.3111 -0.4449 -0.1892
  136SAPE   C3114724   5.181   3.171  10.322 -0.2169 -0.2412 -0.5667
  136SAPE   O3214725   5.301   3.188  10.318 -0.6917 -0.1875 -0.1300
  136SAPE   C3214726   5.101   3.116  10.202  0.1675 -0.8692  1.7516
  136SAPE   H2X14727   5.050   3.208  10.167 -0.0887 -1.3856  0.7591
  136SAPE   H2Y14728   5.017   3.050  10.234 -1.4337 -0.0088 -0.5581
  136SAPE   C2314729   5.387   3.667  10.370  0.1238  0.2888 -0.8707
  136SAPE   H3R14730   5.483   3.619  10.398 -0.9381 -0.6209  1.4013
  136SAPE   H3S14731   5.358   3.738  10.451  2.9526  3.2382 -2.3388
  136SAPE   C2414732   5.422   3.753  10.248  0.3202  0.7357  0.1538
  136SAPE   H4R14733   5.472   3.845  10.286  2.7227 -1.6657  2.9812
  136SAPE   H4S14734   5.328   3.801  10.211 -0.6913  0.1200  1.8738
  136SAPE   C2514735   5.511   3.693  10.137 -0.6640  0.0080 -0.2918
  136SAPE   H5R14736   5.619   3.679  10.157 -0.9375 -2.5814 -0.4609
  136SAPE   C2614737   5.469   3.648  10.019 -0.1057  0.5086  0.5987
  136SAPE   H6R14738   5.540   3.612   9.944 -1.1128 -0.6782  0.1998
  136SAPE   C2714739   5.325   3.654   9.971 -0.1718  0.4386 -0.6162
  136SAPE   H7R14740   5.305   3.752   9.923 -0.4506  1.0922  0.8055
  136SAPE   H7S14741   5.254   3.654  10.057  0.9545 -1.4182  0.3440
  136SAPE   C2814742   5.290   3.526   9.889 -0.2432 -0.1026  0.5712
  136SAPE   H8R14743   5.312   3.429   9.934  1.7825 -1.3935 -2.9886
  136SAPE   C2914744   5.249   3.523   9.765  0.3279  0.3557 -0.7193
  136SAPE   H9R14745   5.215   3.427   9.725 -1.8612  0.0420  1.7358
  136SAPE  C21014746   5.230   3.632   9.664  0.4561  0.1596 -1.1415
  136SAPE  H10R14747   5.291   3.720   9.693 -1.8295  1.3281  0.2377
  136SAPE  H10S14748   5.123   3.652   9.645  0.6443  1.4098 -0.9583
  136SAPE  C21114749   5.281   3.593   9.528 -0.9102  0.1251  0.0408
  136SAPE  H11R14750   5.388   3.570   9.537 -0.5793  0.8613 -1.8141
  136SAPE  C21214751   5.228   3.593   9.411  1.1928 -0.7504 -0.4939
  136SAPE  H12R14752   5.294   3.541   9.340  0.8322 -0.3537 -1.1221
  136SAPE  C21314753   5.085   3.621   9.356 -0.1847  0.1700  0.1266
  136SAPE  H13R14754   5.051   3.710   9.413  1.5604  0.4040  0.8515
  136SAPE  H13S14755   5.018   3.535   9.374 -1.1892  0.6135 -1.3747
  136SAPE  C21414756   5.063   3.644   9.208 -0.8391  0.4910  0.0802
  136SAPE  H14R14757   5.065   3.556   9.141 -1.6812  1.1425 -0.8170
  136SAPE  C21514758   5.043   3.760   9.147  0.8127  0.0992  0.1909
  136SAPE  H15R14759   5.012   3.771   9.041 -1.5566 -1.7772  0.6271
  136SAPE  C21614760   5.053   3.889   9.224  0.0676  0.0437  0.5182
  136SAPE  H16R14761   5.159   3.916   9.244  0.5062 -2.1774  1.2537
  136SAPE  H16S14762   4.988   3.881   9.314 -1.9955  2.8463 -0.6137
  136SAPE  C21714763   4.976   4.002   9.153 -0.7384 -0.0948  0.2637
  136SAPE  H17R14764   5.015   4.017   9.050 -0.8337 -0.5350  0.1609
  136SAPE  H17S14765   4.981   4.099   9.206  1.8642 -0.7991  1.3918
  136SAPE  C21814766   4.823   3.966   9.140 -0.4213 -0.1938  1.1252
  136SAPE  H18R14767   4.789   3.982   9.245  0.4009 -1.8809  1.6621
  136SAPE  H18S14768   4.808   3.858   9.121 -1.0130  0.0804  0.0266
  136SAPE  C21914769   4.744   4.067   9.050  0.5903  0.7881 -0.7789
  136SAPE  H19R14770   4.646   4.020   9.025  0.4360  1.7868 -2.0852
  136SAPE  H19S14771   4.789   4.066   8.949  0.4224  1.6222 -0.8608
  136SAPE  C22014772   4.736   4.223   9.091 -0.2594  0.3645 -0.1259
  136SAPE  H20R14773   4.682   4.241   9.187 -0.3680  1.2081 -0.3339
  136SAPE  H20S14774   4.681   4.277   9.010 -0.7883  2.4480  1.5602
  136SAPE  H20T14775   4.839   4.261   9.109 -0.8424  2.2676 -0.6430
  136SAPE   C3314776   5.163   3.068  10.075 -0.5983  0.9464 -0.5012
  136SAPE   H3X14777   5.230   3.149  10.040  0.5472 -0.0991 -0.7795
  136SAPE   H3Y14778   5.088   3.055   9.994  0.4344 -1.2316 -1.1547
  136SAPE   C3414779   5.231   2.924  10.094 -0.2170  0.0116 -0.0459
  136SAPE   H4X14780   5.149   2.853  10.119 -0.4878 -0.1742 -1.4047
  136SAPE   H4Y14781   5.313   2.929  10.168  0.2045 -0.6988 -0.4659
  136SAPE   C3514782   5.300   2.873   9.966  0.6390 -0.2076 -0.0068
  136SAPE   H5X14783   5.319   2.767   9.992 -0.6864 -0.7284 -1.0875
  136SAPE   H5Y14784   5.395   2.923   9.939 -0.1213  0.3302 -1.7959
  136SAPE   C3614785   5.207   2.885   9.838  0.3545 -1.0542  1.1187
  136SAPE   H6X14786   5.195   2.994   9.822  1.5036 -0.3738  4.4609
  136SAPE   H6Y14787   5.112   2.835   9.865  0.2788 -1.1328  0.7011
  136SAPE   C3714788   5.273   2.825   9.714  0.2140  0.0255  0.1941
  136SAPE   H7X14789   5.287   2.717   9.734  3.1020 -0.1377 -2.3234
  136SAPE   H7Y14790   5.372   2.871   9.691  0.6063 -0.7227  0.3879
  136SAPE   C3814791   5.188   2.826   9.588  0.0628  0.1791 -0.7718
  136SAPE   H8X14792   5.159   2.933   9.581 -0.9119 -0.1096 -1.1961
  136SAPE   H8Y14793   5.093   2.769   9.599 -0.6742  1.0911 -2.2871
  136SAPE   C3914794   5.265   2.768   9.467  0.0885  0.2782 -0.3872
  136SAPE   H9X14795   5.280   2.658   9.477 -0.1455 -0.0259 -3.1492
  136SAPE   H9Y14796   5.364   2.817   9.453  0.1471  0.5581  0.9550
  136SAPE  C31014797   5.184   2.789   9.336  0.2847 -0.6794  0.1157
  136SAPE  H10X14798   5.176   2.897   9.309  0.2138 -0.7321 -0.0772
  136SAPE  H10Y14799   5.077   2.763   9.349  0.1916  0.6247  2.1656
  136SAPE  C31114800   5.248   2.718   9.217  0.4070  0.1733 -0.5162
  136SAPE  H11X14801   5.256   2.609   9.235  0.0424  0.2432  0.0805
  136SAPE  H11Y14802   5.346   2.763   9.190  0.1175  0.4269 -1.1761
  136SAPE  C31214803   5.170   2.741   9.086  0.6054  0.0924  0.1141
  136SAPE  H12X14804   5.185   2.841   9.040 -1.9276  0.4445 -0.0275
  136SAPE  H12Y14805   5.062   2.731   9.111  0.6901  1.3301  0.9788
  136SAPE  C31314806   5.204   2.634   8.977  0.1512 -0.8652  0.1419
  136SAPE  H13X14807   5.218   2.533   9.021 -0.3863 -1.1526 -0.3385
  136SAPE  H13Y14808   5.299   2.673   8.934  0.6442 -2.5799 -0.3694
  136SAPE  C31414809   5.080   2.636   8.881  0.5775  0.1779  0.8571
  136SAPE  H14X14810   4.983   2.616   8.932  0.3146 -1.6319 -0.3172
  136SAPE  H14Y14811   5.102   2.545   8.821  0.3976 -0.3577  1.5994
  136SAPE  C31514812   5.054   2.760   8.789  0.0657 -0.8082 -0.6832
  136SAPE  H15X14813   5.160   2.778   8.761  0.2113  1.8742  1.4169
  136SAPE  H15Y14814   5.013   2.837   8.858  2.3399 -0.3333  0.2062
  136SAPE  C31614815   4.974   2.737   8.671  0.2384 -0.6410 -0.1282
  136SAPE  H16X14816   4.872   2.718   8.709  1.0853 -0.9104  2.0464
  136SAPE  H16Y14817   5.020   2.652   8.616  0.1987 -1.5908  1.2948
  136SAPE  C31714818   4.972   2.857   8.572  0.0366  0.2129 -0.3042
  136SAPE  H17X14819   4.895   2.832   8.496 -0.3415 -0.6054  0.3389
  136SAPE  H17Y14820   5.068   2.879   8.521  0.4751 -1.1261 -0.0589
  136SAPE  C31814821   4.919   2.993   8.626 -0.4959 -0.0815 -0.3064
  136SAPE  H18X14822   4.815   2.991   8.663  0.2669  2.0843  2.1703
  136SAPE  H18Y14823   4.926   3.081   8.558 -0.8666  0.7509  0.7053
  136SAPE  H18Z14824   4.991   3.019   8.707  1.4475 -2.2208 -1.2732
  137SAPE     N14825   2.519   0.438  10.990 -0.2562  0.3806  0.0046
  137SAPE   HN114826   2.532   0.337  10.967  1.7763  0.5421  0.2735
  137SAPE   HN214827   2.488   0.443  11.089 -0.6767 -0.5783 -0.0759
  137SAPE   HN314828   2.456   0.484  10.921 -1.3421  1.3441  1.6342
  137SAPE   C1214829   2.662   0.501  10.999 -0.7489 -0.2943  0.9368
  137SAPE  H12A14830   2.642   0.597  11.050 -1.0916 -1.7023  3.5253
  137SAPE  H12B14831   2.694   0.525  10.895 -3.0302  0.0840  0.2855
  137SAPE   C1114832   2.748   0.415  11.103  0.7251  0.2205  0.0141
  137SAPE  H11A14833   2.696   0.395  11.199  0.4602  1.9524  0.2514
  137SAPE  H11B14834   2.847   0.464  11.114  0.5817  0.6161 -0.4246
  137SAPE     P14835   2.701   0.160  11.073 -0.3063  0.0352  0.0046
  137SAPE   O1314836   2.732   0.116  11.210  0.3364  0.0783  0.1485
  137SAPE   O1414837   2.556   0.179  11.038 -0.0203 -0.0345  0.5584
  137SAPE   O1214838   2.776   0.287  11.043 -0.5260  0.2568 -0.0610
  137SAPE   O1114839   2.777   0.057  10.968 -0.5650 -0.2466 -0.1587
  137SAPE    C114840   2.783   0.086  10.826 -1.1675  0.0847  0.7328
  137SAPE    HA14841   2.681   0.107  10.787  0.0126  1.2492 -1.8182
  137SAPE    HB14842   2.838   0.178  10.799 -1.9219  0.8318  1.7018
  137SAPE    C214843   2.847  -0.026  10.747 -0.0236  0.3513 -0.1595
  137SAPE    HS14844   2.825  -0.008  10.640 -0.1472 -0.5110 -0.2852
  137SAPE   O2114845   2.810  -0.157  10.791  0.7022 -0.2508 -0.0294
  137SAPE   C2114846   2.683  -0.195  10.759 -0.0881 -0.4109  0.4577
  137SAPE   O2214847   2.601  -0.123  10.705  0.4244 -0.3283 -0.4780
  137SAPE   C2214848   2.647  -0.337  10.805 -0.2292  0.1313  0.2516
  137SAPE   H2R14849   2.740  -0.387  10.842 -0.8991 -1.6659 -0.4299
  137SAPE   H2S14850   2.572  -0.318  10.884  0.1161  0.4920  0.4889
  137SAPE    C314851   3.005  -0.026  10.766 -0.5221 -0.5223 -0.0647
  137SAPE    HX14852   3.012  -0.058  10.872  0.1688 -2.0043 -0.5428
  137SAPE    HY14853   3.033   0.080  10.751 -1.8172 -0.0633  0.6488
  137SAPE   O3114854   3.070  -0.116  10.671  0.0724  0.2441 -0.0651
  137SAPE   C3114855   3.086  -0.082  10.550  0.7547 -0.0748 -0.6006
  137SAPE   O3214856   3.078   0.036  10.510 -0.3501  0.0279 -0.2721
  137SAPE   C3214857   3.144  -0.200  10.464 -0.3802 -0.0934 -0.4095
  137SAPE   H2X14858   3.046  -0.248  10.438 -0.7950  0.7284 -0.3591
  137SAPE   H2Y14859   3.212  -0.257  10.530 -0.5929  1.9523  1.6108
  137SAPE   C2314860   2.589  -0.428  10.698 -0.5301 -0.2087  0.5637
  137SAPE   H3R14861   2.509  -0.384  10.635  1.3813 -0.5968 -2.2610
  137SAPE   H3S14862   2.537  -0.516  10.742 -1.1711 -0.9357 -1.5709
  137SAPE   C2414863   2.710  -0.485  10.617  0.1414 -0.0886 -0.0377
  137SAPE   H4R14864   2.786  -0.528  10.685 -0.4683 -2.7278 -0.9855
  137SAPE   H4S14865   2.760  -0.406  10.557  1.5126  0.2831  1.5625
  137SAPE   C2514866   2.671  -0.595  10.521 -0.0492 -0.4043  0.5280
  137SAPE   H5R14867   2.675  -0.694  10.567 -3.1920 -0.3059  1.1849
  137SAPE   C2614868   2.630  -0.580  10.391 -0.4177  0.0590 -0.5140
  137SAPE   H6R14869   2.604  -0.661  10.322  0.8672  1.0035 -2.1779
  137SAPE   C2714870   2.622  -0.445  10.320  0.0245 -0.5933 -0.1624
  137SAPE   H7R14871   2.604  -0.367  10.397 -0.8531 -0.2000 -0.7656
  137SAPE   H7S14872   2.531  -0.439  10.256  0.5955  0.9284 -0.8469
  137SAPE   C2814873   2.756  -0.430  10.246  0.0430  0.3491  0.5240
  137SAPE   H8R14874   2.840  -0.479  10.297 -0.7733 -0.0564  1.5013
  137SAPE   C2914875   2.785  -0.342  10.145  0.1644 -0.0503  0.0729
  137SAPE   H9R14876   2.880  -0.359  10.093 -0.0959  1.8321 -1.0439
  137SAPE  C21014877   2.704  -0.233  10.082 -0.3202  0.8196  0.1377
  137SAPE  H10R14878   2.765  -0.147  10.045 -0.3060  0.9292  0.4101
  137SAPE  H10S14879   2.637  -0.189  10.159 -0.3157 -0.4577  0.8913
  137SAPE  C21114880   2.624  -0.291   9.965  0.3233  0.1663  0.8385
  137SAPE  H11R14881   2.574  -0.388   9.981 -1.4298  0.6367 -1.5658
  137SAPE  C21214882   2.592  -0.229   9.851 -0.2734 -0.1305  0.4399
  137SAPE  H12R14883   2.543  -0.288   9.772  1.0887 -0.6841 -0.0004
  137SAPE  C21314884   2.627  -0.086   9.798 -0.5920  0.0859  0.3032
  137SAPE  H13R14885   2.663  -0.015   9.876  1.8526  0.7792 -1.3790
  137SAPE  H13S14886   2.529  -0.042   9.772 -0.5607  1.6487  2.6529
  137SAPE  C21414887   2.713  -0.119   9.678  0.6305  0.2051 -0.4882
  137SAPE  H14R14888   2.808  -0.161   9.713  0.3383  2.2695  3.0207
  137SAPE  C21514889   2.694  -0.096   9.552 -0.3554 -0.0676  0.2225
  137SAPE  H15R14890   2.779  -0.121   9.487 -1.5201 -0.6621 -1.1008
  137SAPE  C21614891   2.576  -0.044   9.476 -0.4857  0.6202  0.4776
  137SAPE  H16R14892   2.583   0.066   9.457  0.4178  0.4857  0.0512
  137SAPE  H16S14893   2.481  -0.062   9.530  0.1867  3.7245  2.8620
  137SAPE  C21714894   2.560  -0.104   9.329  0.0665  0.5833 -0.6410
  137SAPE  H17R14895   2.462  -0.065   9.296  0.2971  1.8620  0.1281
  137SAPE  H17S14896   2.544  -0.213   9.337  0.4700  0.6584  1.6930
  137SAPE  C21814897   2.680  -0.074   9.236  0.0144 -0.3115 -0.2735
  137SAPE  H18R14898   2.779  -0.099   9.278  1.0296  0.5966 -2.0742
  137SAPE  H18S14899   2.696   0.032   9.206 -0.3561 -0.0015  0.5986
  137SAPE  C21914900   2.665  -0.140   9.093  0.3905 -0.1996  0.0142
  137SAPE  H19R14901   2.654  -0.248   9.115  3.4826 -0.3598  1.0884
  137SAPE  H19S14902   2.753  -0.111   9.032 -0.5546  1.3503 -0.6370
  137SAPE  C22014903   2.536  -0.093   9.024 -0.8083 -0.1148 -0.2463
  137SAPE  H20R14904   2.442  -0.126   9.073 -0.9030  0.5853  0.0437
  137SAPE  H20S14905   2.535  -0.128   8.919  1.5093 -3.1126  0.6261
  137SAPE  H20T14906   2.542   0.017   9.013  2.0997 -0.2557 -0.5644
  137SAPE   C3314907   3.200  -0.158  10.329  0.6678  0.1504 -0.2921
  137SAPE   H3X14908   3.260  -0.243  10.290 -0.7800 -0.6774 -0.7688
  137SAPE   H3Y14909   3.280  -0.082  10.338  1.3887 -0.7431  1.0240
  137SAPE   C3414910   3.099  -0.143  10.205 -0.7781 -0.0820  0.4294
  137SAPE   H4X14911   3.039  -0.051  10.227  1.2701  1.2908  0.4713
  137SAPE   H4Y14912   3.026  -0.226  10.199  0.7158 -1.2830 -1.3852
  137SAPE   C3514913   3.168  -0.139  10.069  0.4631 -0.5467 -0.7619
  137SAPE   H5X14914   3.233  -0.229  10.065  0.6312 -0.4303 -0.6647
  137SAPE   H5Y14915   3.229  -0.047  10.055 -0.7109  0.4981  0.7929
  137SAPE   C3614916   3.069  -0.149   9.949 -0.1670 -0.4239 -0.0460
  137SAPE   H6X14917   3.005  -0.059   9.959  0.5344 -0.2157  3.1907
  137SAPE   H6Y14918   3.008  -0.239   9.965 -0.4055  0.2284  2.9141
  137SAPE   C3714919   3.158  -0.146   9.825 -0.3230 -0.7476  0.7290
  137SAPE   H7X14920   3.224  -0.235   9.812  0.2504 -0.7106  3.1772
  137SAPE   H7Y14921   3.234  -0.065   9.833  1.6000 -2.4413  0.0758
  137SAPE   C3814922   3.077  -0.136   9.699  0.0981 -0.5253 -0.5149
  137SAPE   H8X14923   3.012  -0.047   9.719  0.8873 -0.3526  1.3545
  137SAPE   H8Y14924   3.007  -0.220   9.682 -0.8235  0.3699 -1.2277
  137SAPE   C3914925   3.155  -0.112   9.568  0.2543 -0.1521 -0.0846
  137SAPE   H9X14926   3.206  -0.209   9.551  0.9081  0.2681 -0.5382
  137SAPE   H9Y14927   3.239  -0.041   9.583  0.7381 -1.1659  2.1873
  137SAPE  C31014928   3.063  -0.085   9.448  0.5533  0.8397 -0.6456
  137SAPE  H10X14929   3.003   0.007   9.461 -0.2790  0.3931 -1.2713
  137SAPE  H10Y14930   2.987  -0.165   9.435 -1.7932  2.4362  2.3877
  137SAPE  C31114931   3.151  -0.057   9.331 -0.0008 -0.1097  0.3126
  137SAPE  H11X14932   3.191  -0.156   9.300 -1.5436 -0.6174 -0.0626
  137SAPE  H11Y14933   3.239   0.007   9.353  0.9393 -2.1490  2.7529
  137SAPE  C31214934   3.090   0.002   9.200  0.0915  0.4745  0.8547
  137SAPE  H12X14935   3.011  -0.066   9.160  1.1761 -0.9597  1.1214
  137SAPE  H12Y14936   3.174   0.003   9.127  1.0577 -0.6239  1.9457
  137SAPE  C31314937   3.038   0.147   9.212 -0.1089 -0.6464  0.1321
  137SAPE  H13X14938   3.121   0.213   9.243 -0.2691  0.4817 -1.7474
  137SAPE  H13Y14939   2.965   0.144   9.296  1.1737 -0.2088  1.2731
  137SAPE  C31414940   2.973   0.208   9.078  0.4459 -0.1313  0.1714
  137SAPE  H14X14941   2.892   0.135   9.058 -0.4881  0.6306  1.0791
  137SAPE  H14Y14942   3.047   0.198   8.995  1.6832 -0.7444  1.3355
  137SAPE  C31514943   2.900   0.348   9.083  0.9949 -0.2938 -0.6453
  137SAPE  H15X14944   2.958   0.413   9.013 -1.6818  0.4575 -2.2149
  137SAPE  H15Y14945   2.915   0.386   9.186 -0.1134 -1.5232 -0.0258
  137SAPE  C31614946   2.759   0.350   9.028 -0.5039 -0.0956  0.9729
  137SAPE  H16X14947   2.716   0.453   9.038 -1.2831  0.3775 -5.3592
  137SAPE  H16Y14948   2.698   0.270   9.075 -2.3359 -0.9085 -2.6098
  137SAPE  C31714949   2.746   0.316   8.873 -0.7900  0.2910  0.4373
  137SAPE  H17X14950   2.645   0.282   8.843 -1.1426  1.7864 -0.1366
  137SAPE  H17Y14951   2.809   0.229   8.846  1.3512  1.3878  1.7851
  137SAPE  C31814952   2.784   0.428   8.779  0.3499 -0.6377  0.1046
  137SAPE  H18X14953   2.891   0.455   8.781 -0.4358  2.7302  0.3969
  137SAPE  H18Y14954   2.725   0.522   8.784  2.8070  0.9574 -0.0691
  137SAPE  H18Z14955   2.765   0.387   8.677  0.5506 -2.4178  0.7703
  138SAPE     N14956   6.390   0.638  10.569  0.1317 -0.1554  0.7618
  138SAPE   HN114957   6.479   0.691  10.571 -1.2629  2.2576  1.2195
  138SAPE   HN214958   6.335   0.666  10.654  0.4508  0.5938  0.7279
  138SAPE   HN314959   6.418   0.540  10.587 -0.8526 -0.6149 -0.1793
  138SAPE   C1214960   6.301   0.647  10.449 -0.4055 -0.0460  0.6088
  138SAPE  H12A14961   6.333   0.568  10.379 -0.7742 -0.8294  1.3189
  138SAPE  H12B14962   6.303   0.753  10.414  0.2478 -0.2608  0.0055
  138SAPE   C1114963   6.154   0.623  10.490  0.2211  0.6389  0.0382
  138SAPE  H11A14964   6.092   0.634  10.398 -0.1215 -0.7324  0.0940
  138SAPE  H11B14965   6.124   0.705  10.558  1.0079  0.8320  0.1469
  138SAPE     P14966   6.001   0.431  10.550  0.1393  0.3151 -0.3785
  138SAPE   O1314967   6.011   0.299  10.617  0.0485 -0.6862  0.0240
  138SAPE   O1414968   5.909   0.538  10.604  0.7061  0.0076 -0.1078
  138SAPE   O1214969   6.146   0.490  10.550 -0.4283  0.2451  0.1371
  138SAPE   O1114970   5.987   0.412  10.395  0.7162 -0.3706 -0.6321
  138SAPE    C114971   6.094   0.340  10.317 -0.0679  0.7423 -0.4856
  138SAPE    HA14972   6.181   0.403  10.286  1.0601  0.4151  1.8766
  138SAPE    HB14973   6.143   0.263  10.380 -1.8979 -0.1132 -0.0969
  138SAPE    C214974   6.045   0.282  10.182  0.2936 -0.5516  0.5753
  138SAPE    HS14975   6.130   0.221  10.144  1.5007  1.6210 -0.2447
  138SAPE   O2114976   6.006   0.387  10.089 -0.0567  0.7413  0.8241
  138SAPE   C2114977   6.115   0.448  10.033  0.1937 -0.2725  0.1579
  138SAPE   O2214978   6.229   0.414  10.052 -0.5743 -0.6228 -0.0838
  138SAPE   C2214979   6.073   0.567   9.946 -0.5013 -0.1988 -0.6088
  138SAPE   H2R14980   5.964   0.574   9.929 -0.5064 -2.0245 -1.4595
  138SAPE   H2S14981   6.100   0.657  10.006 -2.3423  0.7100 -1.1173
  138SAPE    C314982   5.930   0.183  10.216 -0.3074 -0.0117  0.4055
  138SAPE    HX14983   5.863   0.256  10.266 -0.7802  0.7616 -1.2922
  138SAPE    HY14984   5.968   0.103  10.283 -0.2128  1.2907  1.9317
  138SAPE   O3114985   5.857   0.133  10.101  0.5775  0.2748 -0.7924
  138SAPE   C3114986   5.920   0.096   9.996 -0.3274  0.5235  0.8027
  138SAPE   O3214987   6.037   0.066   9.988  0.2796  0.6385 -0.1590
  138SAPE   C3214988   5.824   0.074   9.881 -0.9740 -0.2808 -0.3355
  138SAPE   H2X14989   5.791   0.173   9.846 -0.8154 -0.3349 -0.6358
  138SAPE   H2Y14990   5.734   0.026   9.926  0.2386 -1.6393  0.7145
  138SAPE   C2314991   6.148   0.567   9.814 -0.6903  0.0880  0.3138
  138SAPE   H3R14992   6.256   0.545   9.824 -0.5481  1.1319  1.1557
  138SAPE   H3S14993   6.149   0.664   9.760  1.5110 -1.3003 -2.2561
  138SAPE   C2414994   6.083   0.459   9.719 -0.1301 -0.1549 -0.0097
  138SAPE   H4R14995   5.974   0.478   9.710 -0.3131 -0.3283  1.6602
  138SAPE   H4S14996   6.098   0.353   9.749 -1.0462 -0.0991  0.6729
  138SAPE   C2514997   6.148   0.480   9.587  0.5960  0.0271  0.2752
  138SAPE   H5R14998   6.234   0.548   9.576  0.6083 -0.0917 -0.3611
  138SAPE   C2614999   6.100   0.422   9.478  0.1644 -0.1451  0.0256
  138SAPE   H6R15000   6.153   0.423   9.381 -0.9426 -0.7722 -0.5961
  138SAPE   C2715001   5.978   0.337   9.478  0.7608  0.5740  0.6436
  138SAPE   H7R15002   5.898   0.389   9.422 -0.6237 -2.4913 -0.3231
  138SAPE   H7S15003   5.928   0.326   9.576 -2.0466  2.3199 -0.5369
  138SAPE   C2815004   5.983   0.205   9.416  0.2977  0.2917  0.4477
  138SAPE   H8R15005   6.029   0.130   9.481 -0.3683 -0.2981  0.2405
  138SAPE   C2915006   5.958   0.168   9.290 -0.5741 -0.4416 -0.2550
  138SAPE   H9R15007   5.968   0.061   9.265 -1.0046 -0.2941 -1.1012
  138SAPE  C21015008   5.921   0.246   9.167  0.6723  0.1782 -0.2885
  138SAPE  H10R15009   5.840   0.312   9.205  1.0179  1.5154 -1.8108
  138SAPE  H10S15010   5.865   0.177   9.101  1.4383  0.3641 -1.1478
  138SAPE  C21115011   6.022   0.316   9.089 -0.3438  0.2479  0.3461
  138SAPE  H11R15012   6.081   0.392   9.143 -2.6894  1.7378  0.8420
  138SAPE  C21215013   6.044   0.305   8.952 -0.1656 -0.0647 -0.9357
  138SAPE  H12R15014   6.130   0.365   8.919 -1.2183  0.7796 -2.1835
  138SAPE  C21315015   5.964   0.223   8.851 -0.5645  0.0284  0.4559
  138SAPE  H13R15016   5.867   0.262   8.813  0.5661 -2.1285 -5.0853
  138SAPE  H13S15017   5.939   0.123   8.894  0.0890 -1.1731 -1.9047
  138SAPE  C21415018   6.056   0.212   8.727  0.2782  0.5592  0.2107
  138SAPE  H14R15019   6.145   0.149   8.746  0.5739  1.1702  0.8723
  138SAPE  C21515020   6.028   0.256   8.605  0.4973 -0.9831  0.5956
  138SAPE  H15R15021   6.106   0.244   8.529  0.4554  0.5399  0.2962
  138SAPE  C21615022   5.903   0.333   8.553  0.5231  0.2995  0.0369
  138SAPE  H16R15023   5.923   0.381   8.455  0.8009 -1.8354 -0.9586
  138SAPE  H16S15024   5.890   0.419   8.623 -2.3911  0.7003 -0.9380
  138SAPE  C21715025   5.786   0.237   8.538 -0.0407  0.1552  0.1270
  138SAPE  H17R15026   5.701   0.299   8.502  1.7864  1.2973 -2.2977
  138SAPE  H17S15027   5.763   0.173   8.626  3.2181 -0.3988  0.6374
  138SAPE  C21815028   5.805   0.141   8.415  0.9214  0.4795 -0.4926
  138SAPE  H18R15029   5.710   0.085   8.400  0.3984  1.9983 -3.0303
  138SAPE  H18S15030   5.895   0.078   8.432 -0.4243 -2.1302 -2.6504
  138SAPE  C21915031   5.801   0.206   8.276 -0.1817  0.6816 -0.6288
  138SAPE  H19R15032   5.896   0.261   8.259 -0.2451  0.8583 -0.4088
  138SAPE  H19S15033   5.702   0.257   8.267 -0.5955 -0.0467 -0.2764
  138SAPE  C22015034   5.792   0.094   8.176  0.0402 -0.2952 -0.2495
  138SAPE  H20R15035   5.726   0.012   8.211 -0.5762  0.0522 -0.5749
  138SAPE  H20S15036   5.889   0.046   8.155  0.2274 -0.9230  1.9356
  138SAPE  H20T15037   5.757   0.135   8.078 -0.1626 -0.2529 -0.1594
  138SAPE   C3315038   5.883  -0.025   9.779  0.5340  0.7477 -0.1140
  138SAPE   H3X15039   5.904  -0.122   9.828 -0.6256  0.7926  0.4982
  138SAPE   H3Y15040   5.983   0.009   9.746  0.3195 -0.1000 -1.6714
  138SAPE   C3415041   5.796  -0.058   9.660  0.2882  0.3132 -0.5691
  138SAPE   H4X15042   5.765   0.041   9.619 -2.3289  0.3344  1.3256
  138SAPE   H4Y15043   5.705  -0.111   9.697  0.8625 -1.4050 -1.5728
  138SAPE   C3515044   5.878  -0.146   9.555 -0.1141 -0.1080  0.4891
  138SAPE   H5X15045   5.898  -0.241   9.609  1.2127  0.5516  1.1665
  138SAPE   H5Y15046   5.966  -0.081   9.533 -0.1232 -0.3784 -0.3448
  138SAPE   C3615047   5.811  -0.184   9.424 -0.3945  0.0833  0.8522
  138SAPE   H6X15048   5.772  -0.103   9.359  0.0099  0.4943  1.1227
  138SAPE   H6Y15049   5.726  -0.255   9.439 -0.4810  0.4779  2.2214
  138SAPE   C3715050   5.911  -0.255   9.327  0.3442  0.2170 -0.2052
  138SAPE   H7X15051   5.991  -0.192   9.284  1.5754 -1.1705 -0.0015
  138SAPE   H7Y15052   5.858  -0.297   9.239 -0.9963 -0.2856  0.8248
  138SAPE   C3815053   5.956  -0.386   9.389  0.1469  0.0394  0.4400
  138SAPE   H8X15054   5.872  -0.455   9.415  0.6216 -0.7023  0.0304
  138SAPE   H8Y15055   6.009  -0.362   9.484 -0.1578  1.1032  0.3497
  138SAPE   C3915056   6.055  -0.467   9.305  0.2988 -0.0030  0.0223
  138SAPE   H9X15057   6.084  -0.551   9.371  0.6597  1.0974  1.2885
  138SAPE   H9Y15058   6.139  -0.399   9.280 -1.1314  1.1007 -1.9116
  138SAPE  C31015059   6.009  -0.519   9.165  0.0292  0.5271  0.7099
  138SAPE  H10X15060   5.966  -0.438   9.102  1.6927 -0.0087 -1.1441
  138SAPE  H10Y15061   5.928  -0.594   9.172 -1.9180  2.4061 -0.8484
  138SAPE  C31115062   6.130  -0.592   9.099 -0.6143  0.0755  0.0436
  138SAPE  H11X15063   6.176  -0.662   9.173 -1.6887 -0.9868 -0.2709
  138SAPE  H11Y15064   6.216  -0.522   9.090 -0.2663 -0.1982  1.1738
  138SAPE  C31215065   6.090  -0.665   8.972  0.6542 -0.2848  0.6749
  138SAPE  H12X15066   6.035  -0.599   8.902  0.2232 -2.2955 -0.9241
  138SAPE  H12Y15067   6.005  -0.732   8.996 -0.7369  0.6635 -1.4120
  138SAPE  C31315068   6.195  -0.739   8.883  0.6575 -0.1486 -0.0312
  138SAPE  H13X15069   6.276  -0.783   8.945  1.4967  1.7651  0.2735
  138SAPE  H13Y15070   6.241  -0.680   8.801 -0.0011 -0.0025 -0.3013
  138SAPE  C31415071   6.140  -0.862   8.811 -0.1489 -0.0221 -0.0707
  138SAPE  H14X15072   6.093  -0.933   8.883 -0.3170  0.2382  0.0743
  138SAPE  H14Y15073   6.219  -0.915   8.753  1.0979  2.7718 -0.9922
  138SAPE  C31515074   6.044  -0.820   8.699  0.0304  0.3907  0.4951
  138SAPE  H15X15075   6.053  -0.711   8.684  0.4518  0.4023  0.8235
  138SAPE  H15Y15076   5.941  -0.839   8.735 -0.8420  3.5160 -0.2172
  138SAPE  C31615077   6.072  -0.886   8.558 -0.7738  0.2365 -0.3559
  138SAPE  H16X15078   6.057  -0.994   8.577  1.7320  0.0917  0.9015
  138SAPE  H16Y15079   6.180  -0.871   8.537  0.0026 -1.0499  2.5416
  138SAPE  C31715080   5.983  -0.840   8.439  0.0233 -0.0164  0.5038
  138SAPE  H17X15081   6.028  -0.739   8.426 -0.2429  0.2945  1.9093
  138SAPE  H17Y15082   5.877  -0.820   8.462 -0.6286  0.0858 -2.3679
  138SAPE  C31815083   6.009  -0.921   8.311 -0.3922  0.2694  0.4663
  138SAPE  H18X15084   6.119  -0.929   8.303 -0.5541 -0.9825 -0.5627
  138SAPE  H18Y15085   5.970  -0.872   8.219  1.5867 -0.4553 -0.7729
  138SAPE  H18Z15086   5.976  -1.026   8.304 -1.4068  0.7668 -2.8715
  139SAPE     N15087   6.607   5.430  10.419  0.1395 -0.0895  0.0382
  139SAPE   HN115088   6.675   5.351  10.412  1.4977  1.0938 -0.2882
  139SAPE   HN215089   6.653   5.523  10.409 -1.2910  0.3950 -2.2812
  139SAPE   HN315090   6.565   5.435  10.514  0.5787 -0.8669  0.2869
  139SAPE   C1215091   6.502   5.409  10.314 -0.2263  0.1764  0.7221
  139SAPE  H12A15092   6.557   5.414  10.218 -0.5040  1.0879  0.6112
  139SAPE  H12B15093   6.436   5.498  10.321 -0.6857 -0.1975  1.2273
  139SAPE   C1115094   6.416   5.288  10.337 -0.0792 -0.2182 -0.6927
  139SAPE  H11A15095   6.469   5.191  10.324 -0.0419 -0.5175  1.5602
  139SAPE  H11B15096   6.342   5.297  10.254 -0.5772  0.3908 -0.1922
  139SAPE     P15097   6.282   5.185  10.534 -0.2598  0.8766  0.2931
  139SAPE   O1315098   6.394   5.100  10.583  0.9704  0.2927  0.0370
  139SAPE   O1415099   6.195   5.233  10.635 -0.0983 -0.4898  1.2282
  139SAPE   O1215100   6.348   5.308  10.459 -0.3561  0.2806 -0.6620
  139SAPE   O1115101   6.193   5.104  10.428  0.2622  0.4886 -0.4940
  139SAPE    C115102   6.210   4.971  10.391 -0.3983 -0.1289 -0.1840
  139SAPE    HA15103   6.305   4.931  10.433  0.3231  2.3512  0.6127
  139SAPE    HB15104   6.132   4.903  10.431 -1.8906  1.0896 -0.9914
  139SAPE    C215105   6.217   4.953  10.231  0.5063 -0.0540 -0.4108
  139SAPE    HS15106   6.227   4.844  10.210 -0.7895 -0.4105  0.6866
  139SAPE   O2115107   6.325   5.029  10.188 -0.6693  0.2518 -0.2174
  139SAPE   C2115108   6.392   4.985  10.081  0.0635  0.1525 -0.3518
  139SAPE   O2215109   6.381   4.875  10.031  0.0235  0.5308  0.1113
  139SAPE   C2215110   6.500   5.091  10.043 -0.0825  1.0766  0.0838
  139SAPE   H2R15111   6.453   5.191  10.038 -2.2122  0.0392 -1.3800
  139SAPE   H2S15112   6.576   5.089  10.124 -1.7995  1.4807  1.7138
  139SAPE    C315113   6.082   5.005  10.176 -0.3300 -0.4124 -1.1712
  139SAPE    HX15114   6.093   5.115  10.165  0.6775 -0.6801 -3.0161
  139SAPE    HY15115   6.016   4.985  10.263  1.9914  1.9677  1.2477
  139SAPE   O3115116   6.040   4.939  10.053  1.4535 -0.6261 -0.4865
  139SAPE   C3115117   6.083   4.993   9.942 -0.4314  0.2073 -0.1265
  139SAPE   O3215118   6.157   5.091   9.931  0.4031 -0.0786 -0.3139
  139SAPE   C3215119   6.021   4.906   9.823  0.6072  0.3152  0.5254
  139SAPE   H2X15120   5.916   4.939   9.840  1.5778  3.7204  0.2301
  139SAPE   H2Y15121   6.040   4.799   9.845 -1.0552 -0.2395 -0.6410
  139SAPE   C2315122   6.552   5.071   9.897  0.6877 -0.8751  0.3367
  139SAPE   H3R15123   6.611   5.162   9.873  0.1177 -0.6481 -0.2183
  139SAPE   H3S15124   6.470   5.071   9.822 -1.3202 -0.0275  2.4863
  139SAPE   C2415125   6.656   4.962   9.868 -0.2655  0.4040  0.1733
  139SAPE   H4R15126   6.619   4.869   9.916  2.4037 -0.3874  0.7711
  139SAPE   H4S15127   6.745   4.977   9.933  0.0175  1.7677 -0.5024
  139SAPE   C2515128   6.684   4.955   9.716  0.0441  0.3642 -0.2943
  139SAPE   H5R15129   6.595   4.921   9.662  0.3432 -0.4266 -0.2967
  139SAPE   C2615130   6.796   5.006   9.662 -0.4111  0.4029  0.2674
  139SAPE   H6R15131   6.818   4.997   9.555  1.2870  0.2025  0.6139
  139SAPE   C2715132   6.908   5.069   9.738 -0.0881  0.6852  0.8860
  139SAPE   H7R15133   6.995   5.066   9.668 -1.2707 -2.1345 -0.5555
  139SAPE   H7S15134   6.940   5.009   9.826  1.5696 -0.9924 -0.7968
  139SAPE   C2815135   6.877   5.211   9.783  0.6321  0.4875  0.2579
  139SAPE   H8R15136   6.853   5.218   9.890 -0.1886  1.4464  0.0152
  139SAPE   C2915137   6.887   5.328   9.720  0.3920  0.2716  0.5802
  139SAPE   H9R15138   6.853   5.422   9.766  1.0204  0.7268  0.1268
  139SAPE  C21015139   6.930   5.337   9.577 -0.4593 -0.0095  0.2905
  139SAPE  H10R15140   6.902   5.438   9.541  0.9095  0.8771  1.6096
  139SAPE  H10S15141   6.873   5.263   9.517 -1.9930  1.8706 -0.5835
  139SAPE  C21115142   7.069   5.322   9.547 -0.4379 -0.2358 -0.2567
  139SAPE  H11R15143   7.126   5.317   9.641 -0.4681 -3.5297 -0.3728
  139SAPE  C21215144   7.138   5.312   9.435  0.3648 -0.3532 -0.2405
  139SAPE  H12R15145   7.245   5.335   9.445  0.1508  0.0945  1.1007
  139SAPE  C21315146   7.062   5.334   9.299  0.3411  0.4359  0.0618
  139SAPE  H13R15147   7.043   5.442   9.282 -0.5543 -0.1851 -3.2650
  139SAPE  H13S15148   6.956   5.300   9.311  1.4690 -2.4804  2.3742
  139SAPE  C21415149   7.145   5.275   9.185 -0.5756  0.0911  0.7013
  139SAPE  H14R15150   7.122   5.170   9.164 -0.1219 -0.4877  2.9323
  139SAPE  C21515151   7.225   5.344   9.094  0.5098  0.7016  0.2770
  139SAPE  H15R15152   7.264   5.284   9.010  2.2679  0.3521  1.3255
  139SAPE  C21615153   7.256   5.486   9.081 -0.5603  0.0813 -0.4353
  139SAPE  H16R15154   7.361   5.503   9.114 -0.7231 -0.4390  0.3517
  139SAPE  H16S15155   7.197   5.555   9.146 -0.5211 -1.1463  0.9231
  139SAPE  C21715156   7.235   5.529   8.933  0.0212  0.3672 -0.2813
  139SAPE  H17R15157   7.266   5.636   8.936 -0.0960  0.4405 -1.4582
  139SAPE  H17S15158   7.133   5.513   8.890 -0.2604  1.0204  0.1264
  139SAPE  C21815159   7.339   5.462   8.842 -0.0283  0.1468 -0.3336
  139SAPE  H18R15160   7.300   5.361   8.816 -0.7100  0.0010  1.1667
  139SAPE  H18S15161   7.433   5.448   8.900 -0.5252 -1.3963  0.1469
  139SAPE  C21915162   7.367   5.534   8.715 -0.2715 -0.1747  0.2052
  139SAPE  H19R15163   7.426   5.624   8.744  1.8286 -1.4180 -0.0572
  139SAPE  H19S15164   7.275   5.574   8.668 -0.7599  1.0894  2.2010
  139SAPE  C22015165   7.445   5.455   8.612  0.2715  0.5398 -0.3965
  139SAPE  H20R15166   7.550   5.436   8.641  0.3028  0.0679 -0.8108
  139SAPE  H20S15167   7.454   5.511   8.516 -0.2548  0.0902 -0.7069
  139SAPE  H20T15168   7.390   5.362   8.586  2.4246 -0.2899 -2.1517
  139SAPE   C3315169   6.068   4.941   9.681 -0.2841 -0.4072 -0.0247
  139SAPE   H3X15170   6.179   4.933   9.680 -0.2059  0.4166  0.7722
  139SAPE   H3Y15171   6.039   5.048   9.671 -1.3471 -0.8379 -1.8775
  139SAPE   C3415172   6.007   4.858   9.563 -0.2111  0.2141 -0.2055
  139SAPE   H4X15173   5.897   4.844   9.574 -0.0580 -1.6179 -0.8542
  139SAPE   H4Y15174   6.032   4.752   9.583  2.0552  1.0192  1.4401
  139SAPE   C3515175   6.045   4.899   9.420 -0.1788  0.5426 -0.4692
  139SAPE   H5X15176   6.154   4.887   9.403  0.1551  1.6769  0.7666
  139SAPE   H5Y15177   6.001   4.999   9.399 -1.3143  0.0841 -0.3084
  139SAPE   C3615178   5.970   4.808   9.317  0.3794  0.6750 -0.2872
  139SAPE   H6X15179   5.861   4.798   9.330  0.5778  2.8785  3.8440
  139SAPE   H6Y15180   6.000   4.702   9.333 -0.7975 -0.1169 -3.0758
  139SAPE   C3715181   5.992   4.831   9.161  1.0484 -0.1716  0.3871
  139SAPE   H7X15182   5.934   4.751   9.110 -0.5869  1.1697  0.1006
  139SAPE   H7Y15183   6.101   4.821   9.143  0.7558 -1.3495 -0.7680
  139SAPE   C3815184   5.935   4.963   9.115  0.1544  0.0716  0.0603
  139SAPE   H8X15185   5.978   5.052   9.166 -1.5263  2.4070 -2.4062
  139SAPE   H8Y15186   5.830   4.960   9.150 -0.3019  2.8592 -0.9291
  139SAPE   C3915187   5.937   4.997   8.964 -0.0398 -0.4128 -0.4906
  139SAPE   H9X15188   5.902   4.906   8.910  0.7770 -0.0022 -1.7123
  139SAPE   H9Y15189   6.038   5.019   8.923  0.1062  1.1639  0.6871
  139SAPE  C31015190   5.843   5.117   8.938 -0.2852  0.0366  0.5073
  139SAPE  H10X15191   5.889   5.211   8.974  0.2619  1.8130 -4.4995
  139SAPE  H10Y15192   5.747   5.117   8.993 -1.2515  0.4098 -1.1719
  139SAPE  C31115193   5.807   5.121   8.790 -0.3204  0.5030 -0.9894
  139SAPE  H11X15194   5.896   5.125   8.723  0.1867  0.2371 -0.3334
  139SAPE  H11Y15195   5.751   5.214   8.769  1.1687  1.6733  0.1363
  139SAPE  C31215196   5.706   5.007   8.746 -0.7184  0.2165 -0.5280
  139SAPE  H12X15197   5.610   5.031   8.796 -1.2569 -1.5393 -0.6716
  139SAPE  H12Y15198   5.729   4.905   8.782  0.5808 -0.0120 -1.9121
  139SAPE  C31315199   5.699   5.003   8.593 -0.0325 -0.8308 -0.2570
  139SAPE  H13X15200   5.793   4.972   8.544 -0.5703 -0.7077 -1.3907
  139SAPE  H13Y15201   5.685   5.108   8.558 -1.4482 -0.9814 -0.1959
  139SAPE  C31415202   5.591   4.907   8.540 -0.2995 -0.0096  0.2253
  139SAPE  H14X15203   5.594   4.825   8.615 -0.2086 -0.3453 -0.1475
  139SAPE  H14Y15204   5.612   4.862   8.441  0.2263  3.6506 -1.4141
  139SAPE  C31515205   5.448   4.974   8.548  0.3925 -0.4345 -0.1437
  139SAPE  H15X15206   5.463   5.057   8.476  1.4443 -0.1783  0.3667
  139SAPE  H15Y15207   5.433   5.002   8.654 -0.9475 -1.0377 -0.1544
  139SAPE  C31615208   5.337   4.903   8.495  0.1859  0.3666 -0.1295
  139SAPE  H16X15209   5.377   4.868   8.397  0.2422  1.1518 -0.3879
  139SAPE  H16Y15210   5.306   4.817   8.559  2.2091 -0.0096  0.3789
  139SAPE  C31715211   5.219   4.996   8.468  0.2505 -0.4906  0.3633
  139SAPE  H17X15212   5.144   4.946   8.402 -0.1713 -0.7663  1.0391
  139SAPE  H17Y15213   5.246   5.094   8.424 -1.9807 -0.0190 -0.0494
  139SAPE  C31815214   5.137   5.026   8.602  0.1762  0.3470 -0.3232
  139SAPE  H18X15215   5.052   5.093   8.579 -1.2571 -0.3094  2.7309
  139SAPE  H18Y15216   5.197   5.077   8.681 -0.5227 -0.1693  0.5528
  139SAPE  H18Z15217   5.102   4.931   8.647  0.8958 -0.0234 -0.5348
  140SAPE     N15218   1.671   1.860  11.143 -0.1524  0.0437 -0.3319
  140SAPE   HN115219   1.656   1.836  11.043 -0.2029 -1.6953  0.0790
  140SAPE   HN215220   1.596   1.840  11.212  0.3409  1.5365  0.6548
  140SAPE   HN315221   1.685   1.963  11.142 -0.1271  0.0400 -0.3339
  140SAPE   C1215222   1.801   1.791  11.179  0.2989  0.5253  0.0336
  140SAPE  H12A15223   1.785   1.681  11.171 -1.3085  0.8814 -1.9442
  140SAPE  H12B15224   1.821   1.825  11.283 -1.2107  4.5436 -0.8926
  140SAPE   C1115225   1.905   1.828  11.073  0.4820  0.2981  0.0226
  140SAPE  H11A15226   1.908   1.748  10.997 -1.1015 -1.5553  1.8462
  140SAPE  H11B15227   2.008   1.825  11.115  0.2067 -0.5444  0.6678
  140SAPE     P15228   1.928   2.086  11.114  0.3352 -0.0427  0.2268
  140SAPE   O1315229   1.806   2.104  11.198 -0.3477  0.2837 -0.4033
  140SAPE   O1415230   2.058   2.059  11.181  0.0241 -0.0116  0.2359
  140SAPE   O1215231   1.890   1.962  11.016 -0.0818  0.3729  0.0178
  140SAPE   O1115232   1.937   2.207  11.009  0.1651  0.2382  0.7002
  140SAPE    C115233   1.880   2.187  10.880 -0.2231  0.3565  0.0999
  140SAPE    HA15234   1.783   2.132  10.878  1.3297 -2.5272  1.6539
  140SAPE    HB15235   1.866   2.290  10.840 -1.6055 -0.3648 -1.3245
  140SAPE    C215236   1.963   2.105  10.778  0.0093  0.5013 -0.4850
  140SAPE    HS15237   1.976   2.000  10.809  0.3273  0.1764 -1.6691
  140SAPE   O2115238   2.083   2.184  10.766 -0.1279  0.4599 -0.2875
  140SAPE   C2115239   2.179   2.110  10.705  0.1155 -0.7169 -0.1103
  140SAPE   O2215240   2.166   1.991  10.681 -0.6201  0.0902 -0.5615
  140SAPE   C2215241   2.300   2.195  10.695  1.5179 -0.7539  0.5745
  140SAPE   H2R15242   2.272   2.297  10.662  0.8957 -1.4052 -1.0267
  140SAPE   H2S15243   2.351   2.207  10.793  0.7778  0.4421  0.8256
  140SAPE    C315244   1.883   2.087  10.640  0.0993  0.3388 -0.1314
  140SAPE    HX15245   1.805   2.009  10.650 -0.0681  0.2779 -1.8027
  140SAPE    HY15246   1.964   2.053  10.572 -1.5666  0.6242 -2.3102
  140SAPE   O3115247   1.831   2.214  10.590  0.2742  0.5615  0.2149
  140SAPE   C3115248   1.820   2.212  10.458  0.2569 -0.3474  0.0693
  140SAPE   O3215249   1.876   2.128  10.386  0.2399  0.2202 -0.5697
  140SAPE   C3215250   1.745   2.332  10.412  1.0900 -0.1941  0.0279
  140SAPE   H2X15251   1.799   2.427  10.428 -2.2978  2.0310 -1.1453
  140SAPE   H2Y15252   1.640   2.339  10.448  1.1823  1.0494  0.0623
  140SAPE   C2315253   2.398   2.131  10.592  0.1773  0.4160 -0.0715
  140SAPE   H3R15254   2.341   2.159  10.502 -1.4604  1.9553  1.4244
  140SAPE   H3S15255   2.407   2.020  10.596  0.2557  0.3448 -1.9155
  140SAPE   C2415256   2.534   2.198  10.590 -0.4339  0.4239  0.8598
  140SAPE   H4R15257   2.583   2.191  10.690 -1.7297  2.0743  1.6377
  140SAPE   H4S15258   2.513   2.306  10.576 -0.8290  0.7531  3.6341
  140SAPE   C2515259   2.622   2.144  10.480 -0.3672 -0.2876 -0.2639
  140SAPE   H5R15260   2.662   2.042  10.488 -2.0121 -0.8994  0.5766
  140SAPE   C2615261   2.654   2.205  10.368 -0.4349 -0.3673 -0.1243
  140SAPE   H6R15262   2.740   2.158  10.317  0.4254  0.4114  0.5845
  140SAPE   C2715263   2.625   2.346  10.327  0.0910 -0.2885  0.0669
  140SAPE   H7R15264   2.717   2.408  10.329 -1.1912  1.7400 -1.3899
  140SAPE   H7S15265   2.553   2.397  10.393 -0.4750  0.9312 -1.4580
  140SAPE   C2815266   2.580   2.341  10.183 -0.1022 -0.0296 -0.0053
  140SAPE   H8R15267   2.556   2.242  10.143  2.6969 -0.5482 -0.4425
  140SAPE   C2915268   2.585   2.449  10.097 -0.1020  0.1429 -0.8829
  140SAPE   H9R15269   2.562   2.425   9.992 -0.5844  0.2720 -0.8105
  140SAPE  C21015270   2.631   2.591  10.122 -0.1565  0.6603  0.5736
  140SAPE  H10R15271   2.679   2.625  10.028  0.6652 -1.9362  0.0082
  140SAPE  H10S15272   2.717   2.580  10.191  0.5754 -1.1786 -0.5800
  140SAPE  C21115273   2.534   2.696  10.175  0.3450  0.1518 -0.3994
  140SAPE  H11R15274   2.486   2.668  10.271  0.3165 -1.1677 -0.7820
  140SAPE  C21215275   2.519   2.823  10.128 -0.0820  0.1396  0.4731
  140SAPE  H12R15276   2.436   2.886  10.164 -2.5023 -1.8728 -1.4044
  140SAPE  C21315277   2.592   2.884  10.008 -0.7319  0.2211 -0.5546
  140SAPE  H13R15278   2.511   2.875   9.933 -1.5500 -1.6255  0.5305
  140SAPE  H13S15279   2.685   2.834   9.974 -0.2983  1.3145 -1.0319
  140SAPE  C21415280   2.615   3.031  10.021  0.4522 -0.1166 -0.2856
  140SAPE  H14R15281   2.633   3.074  10.121  0.7958 -2.1759  0.5756
  140SAPE  C21515282   2.611   3.121   9.921  0.9119 -0.0083  0.1693
  140SAPE  H15R15283   2.633   3.223   9.953 -2.1940  0.9906 -0.7095
  140SAPE  C21615284   2.588   3.090   9.777 -0.2788 -0.4566  1.0328
  140SAPE  H16R15285   2.508   3.156   9.739  1.7204  1.5657  0.2483
  140SAPE  H16S15286   2.555   2.985   9.759  0.4945 -0.2102 -1.9366
  140SAPE  C21715287   2.718   3.113   9.693 -0.0217  0.1219 -0.0341
  140SAPE  H17R15288   2.806   3.060   9.737 -0.3188 -0.7354 -0.4572
  140SAPE  H17S15289   2.731   3.223   9.696  1.0668  0.0018 -0.0583
  140SAPE  C21815290   2.705   3.067   9.538  0.8828 -0.2750  0.7538
  140SAPE  H18R15291   2.618   3.113   9.487  1.8378 -0.5990 -1.2004
  140SAPE  H18S15292   2.688   2.957   9.537 -0.5709 -0.0537 -1.0020
  140SAPE  C21915293   2.832   3.081   9.451 -0.0107 -0.1585  0.3644
  140SAPE  H19R15294   2.905   3.011   9.498 -0.9328 -1.9409 -0.8015
  140SAPE  H19S15295   2.855   3.189   9.465  3.7889 -0.5501 -2.1695
  140SAPE  C22015296   2.829   3.043   9.301  0.1892 -0.3550 -0.4910
  140SAPE  H20R15297   2.755   3.116   9.262 -0.9605 -0.6497  1.0633
  140SAPE  H20S15298   2.802   2.935   9.307  0.7238 -0.4320  0.8173
  140SAPE  H20T15299   2.932   3.051   9.260 -0.2213  0.3591 -1.3858
  140SAPE   C3315300   1.743   2.342  10.257 -0.4195  0.7519 -0.4119
  140SAPE   H3X15301   1.719   2.239  10.223 -1.9558  0.5947  1.0947
  140SAPE   H3Y15302   1.844   2.369  10.218 -0.4237 -0.8636 -1.5692
  140SAPE   C3415303   1.658   2.448  10.195  0.3130  0.5661  0.2437
  140SAPE   H4X15304   1.684   2.540  10.252  3.1893  0.9832 -1.6741
  140SAPE   H4Y15305   1.549   2.427  10.207  0.0368  1.9313  0.2019
  140SAPE   C3515306   1.686   2.482  10.049 -0.7546 -0.0386  0.4476
  140SAPE   H5X15307   1.796   2.494  10.036 -0.6677 -1.2029  0.0283
  140SAPE   H5Y15308   1.635   2.577  10.025 -1.6678 -0.6268  0.0242
  140SAPE   C3615309   1.634   2.385   9.941  0.7834 -0.0670  0.8016
  140SAPE   H6X15310   1.524   2.380   9.954  0.6645  1.1755  0.3512
  140SAPE   H6Y15311   1.671   2.282   9.959 -0.1413 -0.3509  1.1201
  140SAPE   C3715312   1.669   2.429   9.803 -0.3626  0.0497 -0.4560
  140SAPE   H7X15313   1.656   2.538   9.792 -0.0325  0.0401 -0.9590
  140SAPE   H7Y15314   1.597   2.382   9.732 -0.5320  0.1635 -0.3595
  140SAPE   C3815315   1.812   2.402   9.755 -0.1507 -0.1476  0.6156
  140SAPE   H8X15316   1.836   2.296   9.780  0.4683 -0.3911 -0.9772
  140SAPE   H8Y15317   1.882   2.468   9.811 -0.6686 -0.8073  2.0778
  140SAPE   C3915318   1.828   2.419   9.602  0.4950  0.3702 -1.1693
  140SAPE   H9X15319   1.765   2.501   9.561  0.9339  1.0736 -0.4507
  140SAPE   H9Y15320   1.786   2.325   9.562 -0.2926  0.3573 -0.3254
  140SAPE  C31015321   1.972   2.451   9.559  0.3781  0.5609 -0.2221
  140SAPE  H10X15322   2.036   2.362   9.575  0.5266  0.2396 -2.4503
  140SAPE  H10Y15323   2.007   2.537   9.620 -0.5361  0.5729  0.2846
  140SAPE  C31115324   1.982   2.510   9.425  0.6149  0.0542 -0.6755
  140SAPE  H11X15325   1.900   2.584   9.412  0.3248 -0.1425  0.0196
  140SAPE  H11Y15326   1.953   2.427   9.356  0.1656  0.8347 -1.4297
  140SAPE  C31215327   2.121   2.572   9.385 -0.1266 -0.5879 -0.1377
  140SAPE  H12X15328   2.207   2.514   9.426  0.2408 -0.3153 -0.5232
  140SAPE  H12Y15329   2.123   2.677   9.419 -0.0857 -0.2635 -1.1314
  140SAPE  C31315330   2.123   2.590   9.233  0.0573 -0.6627 -0.1035
  140SAPE  H13X15331   2.024   2.596   9.182 -0.0600 -0.0889  0.1917
  140SAPE  H13Y15332   2.163   2.492   9.201  1.8322  0.1748 -0.4907
  140SAPE  C31415333   2.219   2.707   9.194 -0.6416 -0.5853 -0.2750
  140SAPE  H14X15334   2.321   2.698   9.236 -0.3725  0.6590 -0.6324
  140SAPE  H14Y15335   2.170   2.799   9.234  0.0562 -0.3310 -0.0073
  140SAPE  C31515336   2.224   2.738   9.041  0.3333  0.0258  0.6670
  140SAPE  H15X15337   2.120   2.737   9.001  0.5933  1.1244 -0.0410
  140SAPE  H15Y15338   2.286   2.658   8.995 -0.0282 -2.4698  4.3167
  140SAPE  C31615339   2.298   2.864   9.017  0.5372  0.2089 -0.0709
  140SAPE  H16X15340   2.242   2.955   9.049 -0.0551  0.2150 -1.0918
  140SAPE  H16Y15341   2.310   2.865   8.906  0.5646 -0.8775 -0.0806
  140SAPE  C31715342   2.434   2.870   9.085  0.2696  0.4244  0.2997
  140SAPE  H17X15343   2.480   2.778   9.045 -1.6494  0.0974 -1.2233
  140SAPE  H17Y15344   2.444   2.849   9.194  0.2764 -3.7329 -0.4130
  140SAPE  C31815345   2.508   3.004   9.045 -0.3479  0.3352 -0.3371
  140SAPE  H18X15346   2.614   2.993   9.076 -0.3419  0.7730 -0.1989
  140SAPE  H18Y15347   2.457   3.088   9.096  0.9003 -0.2113  1.8986
  140SAPE  H18Z15348   2.497   3.014   8.935  1.2093 -0.4503 -0.5899
  141SAPE     N15349   2.095   3.405  10.958  0.0891 -0.3132 -0.3099
  141SAPE   HN115350   2.025   3.462  11.009  0.7149  1.0637 -0.9320
  141SAPE   HN215351   2.071   3.410  10.857 -0.0897 -0.4947 -0.2741
  141SAPE   HN315352   2.098   3.306  10.989 -2.2136  0.4804  2.7065
  141SAPE   C1215353   2.237   3.466  10.978  0.8354  0.3536 -0.4349
  141SAPE  H12A15354   2.265   3.459  11.085  3.8385  0.8222 -1.1510
  141SAPE  H12B15355   2.245   3.567  10.933 -0.7300 -0.2530 -2.1343
  141SAPE   C1115356   2.351   3.389  10.902  0.5907 -0.4108 -0.1280
  141SAPE  H11A15357   2.356   3.435  10.801 -1.0618 -0.1725 -0.1178
  141SAPE  H11B15358   2.325   3.282  10.898  0.7448 -0.4469 -0.1742
  141SAPE     P15359   2.556   3.532  10.957 -0.0490  0.2924 -0.0417
  141SAPE   O1315360   2.476   3.650  10.931  0.0653 -0.4161 -0.2200
  141SAPE   O1415361   2.655   3.533  11.069  1.0561 -0.0484 -0.1570
  141SAPE   O1215362   2.469   3.402  10.978 -0.3336  0.2140  0.0988
  141SAPE   O1115363   2.624   3.484  10.823 -0.2637  0.4902 -0.6403
  141SAPE    C115364   2.740   3.394  10.833  0.1942 -0.5296 -0.2552
  141SAPE    HA15365   2.818   3.445  10.892  1.0369 -0.0675 -1.7254
  141SAPE    HB15366   2.709   3.300  10.885  0.5653 -0.9665 -0.8099
  141SAPE    C215367   2.793   3.367  10.692  0.0598 -0.1139  0.0207
  141SAPE    HS15368   2.900   3.337  10.701  0.5818  0.7676 -2.7047
  141SAPE   O2115369   2.780   3.481  10.608  0.3176  0.5108 -0.5952
  141SAPE   C2115370   2.818   3.596  10.651  0.0358 -0.2835  0.8773
  141SAPE   O2215371   2.898   3.616  10.740 -0.1086 -0.1385 -0.1155
  141SAPE   C2215372   2.757   3.700  10.560  0.3666  0.9157 -0.4197
  141SAPE   H2R15373   2.686   3.651  10.490  0.7164 -2.6073  1.5690
  141SAPE   H2S15374   2.705   3.774  10.624  0.1048  1.0933 -0.8424
  141SAPE    C315375   2.710   3.250  10.624  0.7983  0.0203  0.6115
  141SAPE    HX15376   2.608   3.292  10.608  0.3203 -0.9308  1.1189
  141SAPE    HY15377   2.697   3.169  10.699 -1.7248 -1.1167 -1.0055
  141SAPE   O3115378   2.754   3.202  10.490 -0.2892 -0.5842  0.3572
  141SAPE   C3115379   2.828   3.095  10.495  0.2192 -1.1694  0.0928
  141SAPE   O3215380   2.883   3.045  10.598  0.0104 -0.1186  0.4188
  141SAPE   C3215381   2.853   3.042  10.353  0.4035 -0.1093 -0.3988
  141SAPE   H2X15382   2.862   3.131  10.286  0.3269 -0.3968 -0.7936
  141SAPE   H2Y15383   2.759   2.993  10.320  0.5513 -2.3750  2.3949
  141SAPE   C2315384   2.872   3.775  10.482 -0.0162  0.5796 -0.8653
  141SAPE   H3R15385   2.931   3.703  10.422  0.3122  1.0913 -1.1585
  141SAPE   H3S15386   2.943   3.808  10.562 -0.4929 -1.0745  0.2550
  141SAPE   C2415387   2.811   3.896  10.400  0.4202 -0.0884 -0.1381
  141SAPE   H4R15388   2.760   3.848  10.314  1.0535  0.4886 -0.8362
  141SAPE   H4S15389   2.887   3.963  10.356 -1.7302  2.0117 -0.8021
  141SAPE   C2515390   2.717   3.989  10.475 -0.1164  0.9351  0.5011
  141SAPE   H5R15391   2.762   4.070  10.534  0.8931  0.7895 -0.0520
  141SAPE   C2615392   2.583   3.984  10.469  0.3599 -0.1249  0.0552
  141SAPE   H6R15393   2.527   4.056  10.530  3.2518  0.6121  1.9225
  141SAPE   C2715394   2.486   3.885  10.400  0.0085  0.3628  0.7281
  141SAPE   H7R15395   2.426   3.834  10.479  0.8042 -1.6712  0.0459
  141SAPE   H7S15396   2.554   3.816  10.347  0.3495 -0.8751  2.7401
  141SAPE   C2815397   2.391   3.966  10.308  0.7651  0.9081  0.5317
  141SAPE   H8R15398   2.383   4.072  10.336  0.3331  0.5400  1.8102
  141SAPE   C2915399   2.310   3.915  10.213  0.7466 -0.4875  0.2374
  141SAPE   H9R15400   2.233   3.974  10.161 -0.8426 -1.6386  1.2117
  141SAPE  C21015401   2.300   3.764  10.175 -0.3186  0.1729  0.5041
  141SAPE  H10R15402   2.302   3.702  10.267  0.0443 -2.3338 -1.1409
  141SAPE  H10S15403   2.391   3.727  10.125 -1.5340 -3.5296  0.8855
  141SAPE  C21115404   2.178   3.717  10.090 -0.4738  0.0998  0.7025
  141SAPE  H11R15405   2.082   3.730  10.144  0.2772  2.4262  1.5145
  141SAPE  C21215406   2.185   3.667   9.966  0.4034  0.5619  0.0776
  141SAPE  H12R15407   2.090   3.638   9.919  1.9314  1.3244 -3.5835
  141SAPE  C21315408   2.307   3.641   9.881 -0.0260 -0.2258 -0.2443
  141SAPE  H13R15409   2.398   3.661   9.942  0.5637 -3.2005 -0.0447
  141SAPE  H13S15410   2.316   3.715   9.799  1.9281  0.1770  0.2920
  141SAPE  C21415411   2.323   3.498   9.837  0.4451 -0.0149 -0.0831
  141SAPE  H14R15412   2.321   3.426   9.920 -2.4078 -0.7686 -0.7610
  141SAPE  C21515413   2.318   3.458   9.709 -0.7923  0.7023 -0.1505
  141SAPE  H15R15414   2.332   3.350   9.694  0.0426  0.7182  0.4685
  141SAPE  C21615415   2.299   3.551   9.587 -0.3680 -0.3914 -0.3603
  141SAPE  H16R15416   2.402   3.561   9.549 -0.2524  0.6688  0.2049
  141SAPE  H16S15417   2.270   3.657   9.604  4.2432  1.0915 -1.1178
  141SAPE  C21715418   2.244   3.485   9.467 -0.2410 -0.6235 -0.3453
  141SAPE  H17R15419   2.154   3.428   9.500 -1.4027  1.3584  0.0091
  141SAPE  H17S15420   2.306   3.401   9.430  1.1170  0.8050 -1.3677
  141SAPE  C21815421   2.237   3.589   9.356 -0.5155  0.4090  0.4527
  141SAPE  H18R15422   2.334   3.607   9.304 -0.0490 -1.7142  0.5576
  141SAPE  H18S15423   2.195   3.683   9.397  2.0601  1.8985 -0.2153
  141SAPE  C21915424   2.141   3.545   9.245 -0.7468  1.0934 -0.2192
  141SAPE  H19R15425   2.128   3.620   9.164 -0.2235  0.4943 -0.8650
  141SAPE  H19S15426   2.042   3.524   9.290  0.4142 -1.9460  1.0622
  141SAPE  C22015427   2.181   3.410   9.193  0.3064 -0.3091  0.3261
  141SAPE  H20R15428   2.157   3.341   9.277  1.1853 -0.7575  0.2164
  141SAPE  H20S15429   2.291   3.400   9.177  0.5733  0.8067  1.4071
  141SAPE  H20T15430   2.129   3.361   9.108  1.5281 -0.7529 -0.1845
  141SAPE   C3315431   2.973   2.951  10.343  0.6707 -0.5914 -0.0318
  141SAPE   H3X15432   2.965   2.860  10.406 -0.2020  0.6908  1.7257
  141SAPE   H3Y15433   3.065   3.008  10.370  2.1970 -2.2570 -1.5802
  141SAPE   C3415434   2.988   2.893  10.198 -0.8113  0.0751 -0.0274
  141SAPE   H4X15435   2.889   2.859  10.161 -0.7232 -0.4226  0.1785
  141SAPE   H4Y15436   3.062   2.810  10.202 -0.1388  0.6171 -0.9956
  141SAPE   C3515437   3.048   2.998  10.108  0.0829 -0.4582 -0.1820
  141SAPE   H5X15438   3.152   3.012  10.147 -0.7782  0.2773  1.9205
  141SAPE   H5Y15439   2.988   3.090  10.094  0.8516  0.2431  0.9969
  141SAPE   C3615440   3.054   2.943   9.959 -0.1608  0.1376  0.1481
  141SAPE   H6X15441   2.954   2.925   9.914 -0.0601  0.0930 -0.0580
  141SAPE   H6Y15442   3.106   2.845   9.959 -3.4853 -1.6975  1.3178
  141SAPE   C3715443   3.122   3.042   9.865  0.3342 -0.6816 -0.1646
  141SAPE   H7X15444   3.229   3.046   9.893 -0.0127  0.9480  1.0136
  141SAPE   H7Y15445   3.076   3.143   9.858  0.8596 -0.4685 -0.6180
  141SAPE   C3815446   3.113   2.994   9.713  0.2130 -0.4783  0.6201
  141SAPE   H8X15447   3.006   2.995   9.684  0.5883 -1.4006 -0.8656
  141SAPE   H8Y15448   3.148   2.889   9.712  1.8293  0.0101 -3.8184
  141SAPE   C3915449   3.192   3.092   9.626 -0.6904  0.6568  0.2395
  141SAPE   H9X15450   3.291   3.081   9.674 -0.1896  1.9930 -0.4870
  141SAPE   H9Y15451   3.153   3.195   9.635 -1.6006  0.4949 -1.6155
  141SAPE  C31015452   3.207   3.038   9.481 -0.5347 -0.0751  0.0232
  141SAPE  H10X15453   3.110   3.050   9.428 -0.6787 -1.2615 -0.0117
  141SAPE  H10Y15454   3.242   2.932   9.474 -0.0484  0.2345 -2.6963
  141SAPE  C31115455   3.315   3.127   9.403 -0.2782  0.3433 -0.5254
  141SAPE  H11X15456   3.418   3.095   9.431 -1.4173 -1.8353  1.3492
  141SAPE  H11Y15457   3.311   3.231   9.443  3.9456  0.2400  0.4223
  141SAPE  C31215458   3.306   3.127   9.246 -0.1462  0.2203 -0.5517
  141SAPE  H12X15459   3.373   3.210   9.215  1.0856 -0.2871  0.6802
  141SAPE  H12Y15460   3.203   3.166   9.229  0.7426  2.9304 -0.0084
  141SAPE  C31315461   3.340   2.997   9.175 -0.7693 -0.9482  0.0953
  141SAPE  H13X15462   3.258   2.936   9.131 -0.6997 -0.0936 -1.2331
  141SAPE  H13Y15463   3.370   2.915   9.245  0.3246 -0.3353  0.3602
  141SAPE  C31415464   3.440   3.023   9.064 -0.2976 -0.1782  0.2460
  141SAPE  H14X15465   3.476   2.921   9.037  0.5207  0.8317 -2.7858
  141SAPE  H14Y15466   3.524   3.079   9.110 -0.0011  0.7869 -1.4140
  141SAPE  C31515467   3.384   3.097   8.949 -0.5291 -0.6608  0.1908
  141SAPE  H15X15468   3.454   3.068   8.868  0.6503 -0.3015  1.0692
  141SAPE  H15Y15469   3.405   3.205   8.954  0.4493 -0.7648 -1.4133
  141SAPE  C31615470   3.242   3.064   8.897 -0.2732  0.6381 -0.2612
  141SAPE  H16X15471   3.174   3.093   8.980 -1.4493 -1.7019 -0.3744
  141SAPE  H16Y15472   3.224   2.955   8.887  0.1318  0.5726 -0.2773
  141SAPE  C31715473   3.200   3.127   8.763 -0.5330 -0.2193  0.2551
  141SAPE  H17X15474   3.246   3.077   8.676  2.1500  1.3717  0.6806
  141SAPE  H17Y15475   3.225   3.235   8.767 -0.3116 -0.3010  1.5276
  141SAPE  C31815476   3.050   3.110   8.745  0.0132  0.6397  0.9364
  141SAPE  H18X15477   3.012   3.160   8.836  3.1212  1.8397  1.6319
  141SAPE  H18Y15478   3.014   3.005   8.755  0.7049  0.2920 -0.0690
  141SAPE  H18Z15479   3.008   3.146   8.649 -2.4267 -1.2494  1.2734
  142SAPE     N15480   3.026   2.267  11.254  0.6046  0.5172  0.3908
  142SAPE   HN115481   3.098   2.315  11.313 -0.1622 -0.4673  2.1661
  142SAPE   HN215482   2.936   2.276  11.304 -0.2808  2.3487 -1.4459
  142SAPE   HN315483   3.044   2.165  11.255 -0.1620  0.3751 -0.4956
  142SAPE   C1215484   3.033   2.330  11.119 -0.0978  0.8958 -0.1624
  142SAPE  H12A15485   3.040   2.441  11.125  2.1256  0.7551  0.5281
  142SAPE  H12B15486   2.946   2.294  11.061 -1.9238  1.9268  1.8763
  142SAPE   C1115487   3.158   2.274  11.047 -0.1575 -0.4883 -0.3039
  142SAPE  H11A15488   3.168   2.323  10.948  0.2258  1.2193  0.5662
  142SAPE  H11B15489   3.133   2.167  11.031  1.8016 -0.9487 -0.4474
  142SAPE     P15490   3.383   2.181  11.132  0.1423 -0.2067  0.6140
  142SAPE   O1315491   3.503   2.240  11.196  0.0017  0.5120  0.0108
  142SAPE   O1415492   3.320   2.070  11.198 -0.2013 -0.0947  0.3442
  142SAPE   O1215493   3.273   2.290  11.118 -0.1803  0.0109  0.1257
  142SAPE   O1115494   3.417   2.136  10.983  0.0503  0.0888 -0.4852
  142SAPE    C115495   3.491   2.232  10.903 -0.1914  0.5092  1.0359
  142SAPE    HA15496   3.519   2.318  10.967 -0.2316 -0.5548  2.5127
  142SAPE    HB15497   3.582   2.176  10.872  0.6577  0.7161  3.0485
  142SAPE    C215498   3.412   2.279  10.773 -0.2252 -0.7287 -0.1274
  142SAPE    HS15499   3.321   2.331  10.809  0.2760 -1.3491  2.1490
  142SAPE   O2115500   3.379   2.161  10.699 -0.4453 -0.3516  0.6379
  142SAPE   C2115501   3.242   2.143  10.674 -0.4569 -0.1363  0.2848
  142SAPE   O2215502   3.154   2.211  10.720 -0.0551 -0.2284 -0.3096
  142SAPE   C2215503   3.227   2.033  10.570  0.1854 -0.3315 -0.8253
  142SAPE   H2R15504   3.320   1.971  10.567  0.4955  0.1786 -1.8414
  142SAPE   H2S15505   3.142   1.973  10.610 -1.2802  1.9010 -0.5376
  142SAPE    C315506   3.502   2.377  10.683  0.0333  0.7855 -0.0910
  142SAPE    HX15507   3.598   2.324  10.660 -0.2023  0.5196 -0.4694
  142SAPE    HY15508   3.534   2.459  10.750  2.6559 -0.2825  0.0243
  142SAPE   O3115509   3.434   2.421  10.559 -0.0809 -0.5655 -0.0288
  142SAPE   C3115510   3.355   2.532  10.581 -0.2091 -0.3362 -0.2489
  142SAPE   O3215511   3.350   2.593  10.685  0.6951 -0.7778 -0.3699
  142SAPE   C3215512   3.275   2.559  10.455  0.1569  0.0058 -0.4329
  142SAPE   H2X15513   3.262   2.669  10.446  1.4735  0.0701 -1.5476
  142SAPE   H2Y15514   3.175   2.510  10.465 -0.5570  1.1275 -1.8460
  142SAPE   C2315515   3.193   2.086  10.431 -0.2352  0.1139  0.2384
  142SAPE   H3R15516   3.193   1.999  10.362  1.2529  0.5091 -0.2851
  142SAPE   H3S15517   3.259   2.160  10.380 -0.1495 -1.9006 -2.7261
  142SAPE   C2415518   3.044   2.128  10.408 -0.3524  0.1587  0.1631
  142SAPE   H4R15519   3.034   2.197  10.321 -0.6562 -1.4880 -1.1380
  142SAPE   H4S15520   3.023   2.189  10.498 -0.9614 -0.6528  0.5689
  142SAPE   C2515521   2.957   2.007  10.403 -0.4376 -0.2182 -0.7069
  142SAPE   H5R15522   2.951   1.960  10.502  0.0563 -0.1526 -0.6428
  142SAPE   C2615523   2.883   1.951  10.304  0.6556  0.1280 -0.0387
  142SAPE   H6R15524   2.825   1.859  10.321  1.4286 -0.5093 -0.8290
  142SAPE   C2715525   2.877   2.005  10.167 -0.0096  0.0043  0.2359
  142SAPE   H7R15526   2.965   1.974  10.105  1.0223  0.2477  1.5705
  142SAPE   H7S15527   2.903   2.112  10.156  0.9537 -0.4063 -1.8349
  142SAPE   C2815528   2.740   1.987  10.092 -0.3873  0.2097  0.2551
  142SAPE   H8R15529   2.654   1.984  10.160  0.1609  0.1464  0.9474
  142SAPE   C2915530   2.709   1.987   9.959 -0.1789  0.3696  0.8115
  142SAPE   H9R15531   2.607   1.964   9.924 -0.5986 -0.1797  2.3524
  142SAPE  C21015532   2.818   2.015   9.855  0.0278 -0.0354  0.5472
  142SAPE  H10R15533   2.813   1.929   9.785 -1.7491 -0.8076  1.5839
  142SAPE  H10S15534   2.920   1.998   9.896  0.5167  1.0100 -0.2089
  142SAPE  C21115535   2.805   2.150   9.791  1.3214  0.3717  0.0468
  142SAPE  H11R15536   2.840   2.240   9.843  0.1400  0.5975  0.4548
  142SAPE  C21215537   2.751   2.163   9.663 -0.0890 -0.4228  0.0134
  142SAPE  H12R15538   2.762   2.262   9.616 -1.3862  0.0191  0.6284
  142SAPE  C21315539   2.680   2.059   9.576  0.0477 -0.1326  0.3529
  142SAPE  H13R15540   2.574   2.073   9.604 -0.5168 -1.4379 -1.0707
  142SAPE  H13S15541   2.705   1.953   9.596  2.0414  0.3149  0.3553
  142SAPE  C21415542   2.701   2.082   9.428  0.0452  0.6152  0.3316
  142SAPE  H14R15543   2.804   2.055   9.400 -0.9291 -1.2377 -1.6529
  142SAPE  C21515544   2.611   2.123   9.335 -0.2623  0.2793  0.0245
  142SAPE  H15R15545   2.649   2.125   9.231 -0.7910 -2.5770 -0.2555
  142SAPE  C21615546   2.471   2.168   9.362  0.1902 -0.5919  0.1765
  142SAPE  H16R15547   2.430   2.116   9.451 -0.2651 -1.2774 -0.4302
  142SAPE  H16S15548   2.398   2.134   9.286  1.1320  0.9039 -1.4251
  142SAPE  C21715549   2.452   2.316   9.398 -0.5770 -0.1694  0.4955
  142SAPE  H17R15550   2.518   2.346   9.483  0.9198  0.4879 -0.8795
  142SAPE  H17S15551   2.343   2.328   9.417 -0.7497  2.9324 -2.0509
  142SAPE  C21815552   2.487   2.417   9.289  1.0579 -0.6367  0.1326
  142SAPE  H18R15553   2.598   2.417   9.278  1.3108 -1.0005  2.3692
  142SAPE  H18S15554   2.449   2.513   9.330 -1.8343 -0.9276 -1.6935
  142SAPE  C21915555   2.406   2.400   9.161 -0.1080 -0.7815 -0.5946
  142SAPE  H19R15556   2.370   2.497   9.122 -1.2538  0.0042  2.3024
  142SAPE  H19S15557   2.318   2.335   9.181 -1.1345  0.7246 -0.1374
  142SAPE  C22015558   2.482   2.331   9.050 -0.3263 -0.6237  0.0366
  142SAPE  H20R15559   2.426   2.302   8.958  1.9170 -1.8940 -1.0009
  142SAPE  H20S15560   2.541   2.244   9.086  0.4025 -0.5327 -0.9082
  142SAPE  H20T15561   2.562   2.396   9.008  0.9540 -2.0836  0.1375
  142SAPE   C3315562   3.330   2.495  10.330  0.2842  0.3370  0.5068
  142SAPE   H3X15563   3.337   2.384  10.340 -2.1214  0.0182 -1.1325
  142SAPE   H3Y15564   3.433   2.534  10.312 -0.2862  2.3804  1.5666
  142SAPE   C3415565   3.247   2.522  10.207 -0.1120  0.1772  0.7417
  142SAPE   H4X15566   3.316   2.512  10.121 -0.5817 -0.4231  0.4293
  142SAPE   H4Y15567   3.212   2.627  10.214  0.6199  0.4450  0.4281
  142SAPE   C3515568   3.119   2.431  10.202  0.2474  0.0629 -0.2693
  142SAPE   H5X15569   3.065   2.424  10.299  1.3498  2.8870  0.6194
  142SAPE   H5Y15570   3.147   2.327  10.176 -0.4210 -0.6162  1.6744
  142SAPE   C3615571   3.011   2.472  10.097 -0.4065 -0.1658 -0.2476
  142SAPE   H6X15572   2.973   2.570  10.133 -1.7231 -0.8167  0.1711
  142SAPE   H6Y15573   2.940   2.390  10.073  1.6961 -2.1053 -0.1357
  142SAPE   C3715574   3.063   2.497   9.955 -0.2201  0.1627  0.7920
  142SAPE   H7X15575   3.105   2.400   9.923 -1.4644 -0.2699  0.4589
  142SAPE   H7Y15576   3.147   2.569   9.951  1.1556 -1.4142  0.8916
  142SAPE   C3815577   2.949   2.524   9.855  0.1537 -0.2293 -0.3491
  142SAPE   H8X15578   2.891   2.611   9.894 -3.2596 -2.3559 -0.4897
  142SAPE   H8Y15579   2.881   2.437   9.867 -0.7139  0.8758  3.4963
  142SAPE   C3915580   3.011   2.538   9.713 -0.0368 -0.2188  0.2287
  142SAPE   H9X15581   3.055   2.438   9.692  1.8294  0.1982  2.0506
  142SAPE   H9Y15582   3.090   2.615   9.709 -0.1453 -0.0478  1.4395
  142SAPE  C31015583   2.905   2.554   9.608  0.5973 -0.3832 -0.1810
  142SAPE  H10X15584   2.842   2.640   9.640  1.4112 -0.7922  2.5710
  142SAPE  H10Y15585   2.834   2.471   9.593 -1.2638  1.4529 -1.9382
  142SAPE  C31115586   2.947   2.570   9.457 -0.7399 -0.4263  1.1391
  142SAPE  H11X15587   2.970   2.469   9.417 -0.0732  0.7243 -1.5105
  142SAPE  H11Y15588   3.039   2.630   9.439 -1.7094  0.5589 -0.6862
  142SAPE  C31215589   2.841   2.617   9.367  0.2670  0.5941  0.6457
  142SAPE  H12X15590   2.835   2.726   9.385  3.0793  0.9559 -0.3494
  142SAPE  H12Y15591   2.737   2.578   9.367  0.1173  0.9028 -2.2673
  142SAPE  C31315592   2.888   2.607   9.219  0.3255  1.1236 -0.5533
  142SAPE  H13X15593   2.891   2.499   9.195  0.4988  0.6073  1.7334
  142SAPE  H13Y15594   2.991   2.644   9.202  0.5280 -0.6117 -3.3415
  142SAPE  C31415595   2.793   2.676   9.119 -0.4456 -0.6207 -0.6687
  142SAPE  H14X15596   2.769   2.776   9.160 -0.6413 -0.8563 -0.2037
  142SAPE  H14Y15597   2.695   2.624   9.111 -1.8619  1.7255  1.0965
  142SAPE  C31515598   2.843   2.693   8.978  0.4232  0.6861 -0.0983
  142SAPE  H15X15599   2.872   2.592   8.944 -1.2749  0.1925 -0.1418
  142SAPE  H15Y15600   2.936   2.754   8.970  0.2103  1.0607  0.2515
  142SAPE  C31615601   2.730   2.734   8.874  0.4173  0.7328  0.1651
  142SAPE  H16X15602   2.686   2.828   8.914 -0.8490 -0.9264  2.7992
  142SAPE  H16Y15603   2.653   2.653   8.872  0.0245  1.1194 -0.8421
  142SAPE  C31715604   2.781   2.752   8.727 -0.4621  0.1581 -0.6797
  142SAPE  H17X15605   2.864   2.678   8.729  0.8089  1.5646  1.9575
  142SAPE  H17Y15606   2.823   2.854   8.710 -1.7937  0.7707 -0.3495
  142SAPE  C31815607   2.673   2.713   8.626  0.1871 -0.4128 -0.4856
  142SAPE  H18X15608   2.718   2.703   8.525 -0.8347 -1.5089 -0.8339
  142SAPE  H18Y15609   2.601   2.798   8.621  1.3315  0.6943  1.0061
  142SAPE  H18Z15610   2.634   2.614   8.655  0.5052 -0.5936 -0.6784
  143SAPE     N15611   5.183   2.965  11.018 -0.2833 -0.2863 -0.1175
  143SAPE   HN115612   5.256   3.036  10.998  0.1076 -0.0244  2.0787
  143SAPE   HN215613   5.130   2.985  11.106  1.1903  0.6114  0.5855
  143SAPE   HN315614   5.232   2.875  11.038  0.4740  0.2685  0.5476
  143SAPE   C1215615   5.084   2.954  10.909  0.4361  0.0159 -0.6038
  143SAPE  H12A15616   5.046   2.849  10.910 -0.2921  0.2840  0.3675
  143SAPE  H12B15617   5.151   2.957  10.821 -0.1075 -0.8588 -1.0596
  143SAPE   C1115618   4.978   3.065  10.908 -0.6969  0.1494  0.1717
  143SAPE  H11A15619   4.931   3.061  10.807 -3.1681 -0.2111  1.2958
  143SAPE  H11B15620   5.039   3.157  10.900 -3.1756  1.7608 -0.5993
  143SAPE     P15621   4.794   2.951  11.044 -0.6347 -0.1616 -0.1252
  143SAPE   O1315622   4.856   2.822  11.064 -0.6003 -0.0491  0.0371
  143SAPE   O1415623   4.701   2.998  11.150  0.4920  0.1507 -0.0376
  143SAPE   O1215624   4.903   3.070  11.027 -0.4960 -0.1558  0.1582
  143SAPE   O1115625   4.707   2.943  10.902  0.4065 -0.0689 -0.3886
  143SAPE    C115626   4.647   2.817  10.865 -0.1494 -0.1546  0.0110
  143SAPE    HA15627   4.634   2.748  10.952  1.1572 -0.0275  0.3155
  143SAPE    HB15628   4.558   2.851  10.808 -0.7529  0.7309  1.4469
  143SAPE    C215629   4.733   2.738  10.758  0.6087 -0.5841 -0.3380
  143SAPE    HS15630   4.834   2.728  10.802  0.3460  0.0670  0.4214
  143SAPE   O2115631   4.729   2.810  10.636  0.5418 -0.6200 -0.0472
  143SAPE   C2115632   4.847   2.828  10.573  0.3208  0.5880  0.3820
  143SAPE   O2215633   4.959   2.798  10.617 -0.0700  0.8473  0.3641
  143SAPE   C2215634   4.819   2.888  10.425  0.3369  0.2944 -0.3642
  143SAPE   H2R15635   4.771   2.987  10.441  1.5892  0.6063  1.7132
  143SAPE   H2S15636   4.919   2.909  10.382 -0.0863  1.3945 -0.8221
  143SAPE    C315637   4.683   2.595  10.737 -0.2809  0.7803 -0.8668
  143SAPE    HX15638   4.585   2.605  10.684 -2.0374 -2.2152  1.6412
  143SAPE    HY15639   4.660   2.580  10.844 -1.1554 -0.7400 -1.2500
  143SAPE   O3115640   4.780   2.514  10.676  0.1590 -0.0745  0.2414
  143SAPE   C3115641   4.748   2.392  10.652  0.0239 -0.1773 -0.2782
  143SAPE   O3215642   4.648   2.335  10.699 -0.2311  0.9012  0.3754
  143SAPE   C3215643   4.861   2.336  10.559 -0.0926 -0.1058  0.2735
  143SAPE   H2X15644   4.949   2.337  10.626 -0.6904 -1.3223  1.0813
  143SAPE   H2Y15645   4.888   2.411  10.481  0.5631  1.5478  2.0554
  143SAPE   C2315646   4.726   2.797  10.345 -0.3018 -0.4920  0.5351
  143SAPE   H3R15647   4.709   2.848  10.248  0.7620  2.3042  1.7937
  143SAPE   H3S15648   4.630   2.781  10.399 -0.4313 -0.5730  0.2868
  143SAPE   C2415649   4.788   2.654  10.305  0.0774 -0.1798 -0.1123
  143SAPE   H4R15650   4.708   2.603  10.247 -0.7024  1.0610 -0.1452
  143SAPE   H4S15651   4.786   2.601  10.403 -2.2620 -1.7392 -0.9562
  143SAPE   C2515652   4.927   2.640  10.244  0.1359 -0.4436  0.3262
  143SAPE   H5R15653   5.008   2.613  10.314  3.7263  1.7083 -2.8186
  143SAPE   C2615654   4.950   2.660  10.115 -0.1599  0.5342 -0.1712
  143SAPE   H6R15655   5.047   2.622  10.080 -0.4652  1.1707 -1.7351
  143SAPE   C2715656   4.844   2.693  10.006  0.5800  0.1022 -0.3161
  143SAPE   H7R15657   4.878   2.744   9.913 -0.6310 -0.4815 -1.0913
  143SAPE   H7S15658   4.766   2.763  10.043 -1.8992 -2.9798  0.5098
  143SAPE   C2815659   4.781   2.564   9.956 -0.0613 -0.1207 -0.4307
  143SAPE   H8R15660   4.759   2.491  10.035 -1.6299  0.1246 -0.6218
  143SAPE   C2915661   4.731   2.542   9.830  0.8773 -0.4033 -0.4723
  143SAPE   H9R15662   4.676   2.451   9.805 -1.4926  1.1832 -1.1384
  143SAPE  C21015663   4.732   2.644   9.719  0.1107 -0.0207 -0.1394
  143SAPE  H10R15664   4.738   2.748   9.758  0.6952  0.4053 -1.3399
  143SAPE  H10S15665   4.630   2.629   9.676 -0.5141  1.1192  0.9192
  143SAPE  C21115666   4.828   2.625   9.614 -0.2962  0.8905 -0.3448
  143SAPE  H11R15667   4.934   2.627   9.641  0.0437  0.3757 -1.5755
  143SAPE  C21215668   4.795   2.599   9.485 -0.5947  0.1627  0.0466
  143SAPE  H12R15669   4.885   2.575   9.427 -1.0341  3.7928 -2.2952
  143SAPE  C21315670   4.670   2.590   9.407  0.0473  0.6002  0.8759
  143SAPE  H13R15671   4.597   2.660   9.452  0.0505  0.8465  0.4929
  143SAPE  H13S15672   4.631   2.486   9.409 -1.1970  1.0122 -1.4703
  143SAPE  C21415673   4.709   2.625   9.264 -0.3548 -0.5172  0.7055
  143SAPE  H14R15674   4.739   2.730   9.250 -0.8916 -0.5820 -1.1011
  143SAPE  C21515675   4.698   2.544   9.158 -0.0461 -0.1535 -0.9306
  143SAPE  H15R15676   4.708   2.583   9.056 -1.1402  1.9333 -0.2726
  143SAPE  C21615677   4.657   2.402   9.168  0.0571 -0.3371 -0.3470
  143SAPE  H16R15678   4.638   2.349   9.072  0.7008 -0.0044 -0.6639
  143SAPE  H16S15679   4.561   2.381   9.219 -0.5670 -0.2779 -1.4654
  143SAPE  C21715680   4.763   2.308   9.233 -0.0144 -0.2136 -1.3003
  143SAPE  H17R15681   4.711   2.215   9.265  2.0831 -1.0021 -0.1139
  143SAPE  H17S15682   4.812   2.358   9.318 -0.7674 -1.8024  0.0900
  143SAPE  C21815683   4.877   2.276   9.140  0.2844  0.3313  0.2113
  143SAPE  H18R15684   4.947   2.363   9.148 -0.2413  0.7399  0.3985
  143SAPE  H18S15685   4.846   2.254   9.036  2.1902 -0.0852 -0.2837
  143SAPE  C21915686   4.964   2.155   9.195 -0.2302  0.1828  0.5567
  143SAPE  H19R15687   4.891   2.072   9.183  1.5964 -1.1063 -2.1600
  143SAPE  H19S15688   4.987   2.154   9.303 -0.6203 -0.8942  0.6309
  143SAPE  C22015689   5.093   2.134   9.119 -0.0428 -0.4905 -0.4226
  143SAPE  H20R15690   5.078   2.127   9.009  0.7959  1.4459 -0.6692
  143SAPE  H20S15691   5.132   2.036   9.156  0.0728  0.4452  2.0183
  143SAPE  H20T15692   5.154   2.226   9.131  0.9865 -1.5910  3.8563
  143SAPE   C3315693   4.826   2.198  10.501 -0.0035  0.3355  0.1300
  143SAPE   H3X15694   4.752   2.196  10.419 -0.8819 -1.1461  0.9485
  143SAPE   H3Y15695   4.782   2.140  10.584  1.2531  0.4940  0.9348
  143SAPE   C3415696   4.948   2.119  10.452  0.0264  0.2045 -0.0281
  143SAPE   H4X15697   4.919   2.027  10.396  1.1702  1.0152 -2.0257
  143SAPE   H4Y15698   5.002   2.081  10.541  1.5018  1.5321 -0.3298
  143SAPE   C3515699   5.043   2.194  10.354  0.4438 -0.3397 -0.0521
  143SAPE   H5X15700   5.121   2.118  10.330 -0.4629 -0.9638 -1.1157
  143SAPE   H5Y15701   5.072   2.284  10.412 -0.9494 -0.0793  0.2538
  143SAPE   C3615702   4.984   2.256  10.226  0.4590  0.1237  0.0208
  143SAPE   H6X15703   5.029   2.354  10.200 -0.8398  1.1663  1.5856
  143SAPE   H6Y15704   4.880   2.291  10.243 -0.6297 -1.0158 -3.9362
  143SAPE   C3715705   4.987   2.164  10.108  0.1327 -0.4188 -0.0756
  143SAPE   H7X15706   4.909   2.184  10.031 -0.8438  0.9493  1.2429
  143SAPE   H7Y15707   4.958   2.067  10.154 -1.6338  1.0929  2.0735
  143SAPE   C3815708   5.129   2.153  10.049 -0.1145  0.1324 -0.0622
  143SAPE   H8X15709   5.201   2.141  10.133 -1.9536  0.1275  1.5665
  143SAPE   H8Y15710   5.152   2.253  10.010 -0.6487  0.2920  0.0205
  143SAPE   C3915711   5.145   2.052   9.934  0.0889 -0.4595  0.4713
  143SAPE   H9X15712   5.118   1.960   9.991 -1.2943 -0.8343 -0.7821
  143SAPE   H9Y15713   5.251   2.038   9.902  0.8874  0.2842  2.6848
  143SAPE  C31015714   5.055   2.083   9.808 -0.1540 -0.3673 -0.0543
  143SAPE  H10X15715   5.104   2.142   9.728 -0.0532 -0.2883  0.0657
  143SAPE  H10Y15716   4.964   2.137   9.840  0.6179  2.2146 -2.0990
  143SAPE  C31115717   5.014   1.955   9.736 -0.2933  0.4150  0.4655
  143SAPE  H11X15718   4.967   1.896   9.817  2.2162  0.3485  1.9349
  143SAPE  H11Y15719   5.111   1.908   9.708 -0.9066 -0.6481  0.0992
  143SAPE  C31215720   4.920   1.980   9.619  0.6345  0.1124 -0.0140
  143SAPE  H12X15721   4.977   2.027   9.536 -0.1485 -0.5496 -0.9387
  143SAPE  H12Y15722   4.842   2.045   9.665  1.6599  1.9216 -0.7812
  143SAPE  C31315723   4.858   1.853   9.563  0.2892 -0.3016  0.1388
  143SAPE  H13X15724   4.787   1.797   9.626 -1.0706 -0.0224 -1.1105
  143SAPE  H13Y15725   4.946   1.788   9.545  0.8167  0.7016 -0.9948
  143SAPE  C31415726   4.811   1.888   9.422  0.3222 -0.1213 -0.2348
  143SAPE  H14X15727   4.892   1.937   9.365 -0.1912 -0.2692 -1.1070
  143SAPE  H14Y15728   4.726   1.960   9.427 -0.4230 -1.0898  1.4066
  143SAPE  C31515729   4.772   1.761   9.344 -0.0023 -0.1770  0.0296
  143SAPE  H15X15730   4.679   1.718   9.387  0.3259 -1.0832 -0.1475
  143SAPE  H15Y15731   4.858   1.691   9.352  1.9341  2.0338 -1.1019
  143SAPE  C31615732   4.748   1.772   9.188  0.2340 -0.3423  0.2769
  143SAPE  H16X15733   4.688   1.864   9.171  1.4400 -0.2115 -3.6714
  143SAPE  H16Y15734   4.671   1.694   9.172  0.2023 -0.4339  0.8568
  143SAPE  C31715735   4.873   1.749   9.104 -0.4099 -0.0688  0.4359
  143SAPE  H17X15736   4.892   1.641   9.123  0.7712  0.4733  2.5048
  143SAPE  H17Y15737   4.964   1.806   9.133  0.1662 -0.3136 -0.8719
  143SAPE  C31815738   4.849   1.768   8.951 -0.2062  0.3119  0.2895
  143SAPE  H18X15739   4.841   1.877   8.932  0.9081  0.5591  1.1754
  143SAPE  H18Y15740   4.761   1.706   8.924  0.9308 -1.3442  0.2898
  143SAPE  H18Z15741   4.946   1.742   8.902 -1.4373 -1.0412 -1.5246
  144SAPE     N15742   0.626   0.498  10.730 -0.5226  0.0038  0.0040
  144SAPE   HN115743   0.568   0.434  10.671 -2.5611  1.2868  0.5696
  144SAPE   HN215744   0.577   0.588  10.742 -1.2372 -0.5393  1.2529
  144SAPE   HN315745   0.718   0.521  10.689 -0.8602  2.1855  0.4231
  144SAPE   C1215746   0.654   0.430  10.856  0.2086 -0.1910 -0.3801
  144SAPE  H12A15747   0.618   0.488  10.944  2.7454 -1.0040  1.2347
  144SAPE  H12B15748   0.764   0.440  10.868  0.1987  0.5874 -0.9020
  144SAPE   C1115749   0.604   0.284  10.850  0.8465 -0.4686 -0.2029
  144SAPE  H11A15750   0.657   0.225  10.927 -0.0908 -1.9092 -0.6398
  144SAPE  H11B15751   0.633   0.236  10.754 -0.5811 -2.0170  0.1251
  144SAPE     P15752   0.392   0.149  10.905  0.1103 -0.0677 -0.1688
  144SAPE   O1315753   0.488   0.037  10.910  0.0368 -0.0732 -0.1327
  144SAPE   O1415754   0.299   0.167  11.021  0.3240  0.5447  0.7980
  144SAPE   O1215755   0.470   0.285  10.893 -0.3422 -1.1799 -0.0556
  144SAPE   O1115756   0.320   0.140  10.762  0.3396  0.3019 -0.1720
  144SAPE    C115757   0.251   0.259  10.708  0.5162 -0.9229 -0.4839
  144SAPE    HA15758   0.155   0.268  10.765  0.1563  0.1923 -1.2512
  144SAPE    HB15759   0.310   0.350  10.732 -0.5209 -0.2008 -0.6184
  144SAPE    C215760   0.218   0.259  10.552  0.0674  0.5974  0.2601
  144SAPE    HS15761   0.134   0.188  10.536  2.4898 -2.2981 -0.0055
  144SAPE   O2115762   0.330   0.214  10.475 -0.2778 -0.1354 -0.2290
  144SAPE   C2115763   0.440   0.281  10.470 -0.4685  0.8631 -1.2608
  144SAPE   O2215764   0.465   0.383  10.533 -0.5446  0.1413 -0.1775
  144SAPE   C2215765   0.526   0.219  10.374  0.5766  0.7377 -0.8514
  144SAPE   H2R15766   0.537   0.109  10.383 -0.7711  0.6785  0.2489
  144SAPE   H2S15767   0.475   0.239  10.277  0.2763 -2.2933 -1.3775
  144SAPE    C315768   0.164   0.397  10.507 -1.0761 -0.4306  0.2960
  144SAPE    HX15769   0.245   0.463  10.544 -0.6863 -0.2768 -0.8075
  144SAPE    HY15770   0.079   0.420  10.575 -0.7008 -0.5678  0.8040
  144SAPE   O3115771   0.144   0.405  10.370  0.4701 -0.0064  0.5582
  144SAPE   C3115772   0.056   0.499  10.339  0.6087 -0.0682 -0.4304
  144SAPE   O3215773  -0.001   0.570  10.415  0.2171 -0.1929 -0.7614
  144SAPE   C3215774   0.053   0.513  10.185 -0.2087 -0.3152 -0.6074
  144SAPE   H2X15775  -0.019   0.438  10.145 -0.2406 -0.5065 -0.1862
  144SAPE   H2Y15776   0.153   0.483  10.146  0.5637  0.1557  0.9951
  144SAPE   C2315777   0.664   0.291  10.372  0.4319 -0.1909 -0.3960
  144SAPE   H3R15778   0.715   0.269  10.469 -0.9627  0.1422  0.4268
  144SAPE   H3S15779   0.636   0.397  10.356  2.1860  0.3004 -0.3057
  144SAPE   C2415780   0.741   0.250  10.245 -0.1585  0.9243  0.0473
  144SAPE   H4R15781   0.827   0.320  10.242  0.7592 -0.0775  2.2064
  144SAPE   H4S15782   0.680   0.268  10.154  1.1504  1.5148 -0.7230
  144SAPE   C2515783   0.788   0.108  10.254 -0.0308  0.2448  0.4000
  144SAPE   H5R15784   0.806   0.062  10.352  0.0213  1.3238  0.9106
  144SAPE   C2615785   0.828   0.030  10.148 -0.0903 -0.0835  0.0475
  144SAPE   H6R15786   0.859  -0.070  10.179  2.6233  1.0039  0.9705
  144SAPE   C2715787   0.830   0.073  10.003  0.3110  0.1825  0.4333
  144SAPE   H7R15788   0.919   0.132   9.973  1.2260 -0.8588  1.0639
  144SAPE   H7S15789   0.743   0.140   9.983 -0.4041 -0.4023  1.5153
  144SAPE   C2815790   0.837  -0.042   9.906 -0.1132  0.2316 -0.5229
  144SAPE   H8R15791   0.875  -0.138   9.944  1.1813  0.9944  0.1530
  144SAPE   C2915792   0.794  -0.027   9.781 -0.1395  0.5038 -0.3406
  144SAPE   H9R15793   0.808  -0.113   9.715  0.9829 -0.1608  0.7387
  144SAPE  C21015794   0.729   0.091   9.717 -0.1534  0.7089  0.0485
  144SAPE  H10R15795   0.762   0.085   9.611  0.3668 -0.3343  0.2700
  144SAPE  H10S15796   0.776   0.185   9.755 -1.1382  1.5275 -0.7176
  144SAPE  C21115797   0.574   0.099   9.740 -0.5364 -0.5974  0.0409
  144SAPE  H11R15798   0.548   0.146   9.836 -1.4091 -2.0395  0.5141
  144SAPE  C21215799   0.478   0.052   9.665 -0.1325  1.0859  0.5105
  144SAPE  H12R15800   0.374   0.061   9.700 -2.0772 -2.3588 -3.8619
  144SAPE  C21315801   0.494  -0.022   9.533 -0.7914  0.2384 -0.1354
  144SAPE  H13R15802   0.519  -0.125   9.567 -4.5421 -0.7481 -0.0882
  144SAPE  H13S15803   0.578   0.011   9.468 -0.7381 -2.0136 -1.2917
  144SAPE  C21415804   0.367  -0.025   9.449 -0.4402 -0.0394  0.2213
  144SAPE  H14R15805   0.289  -0.097   9.479 -0.7255  0.8702  1.7090
  144SAPE  C21515806   0.335   0.070   9.357  0.4929  0.4917  0.0553
  144SAPE  H15R15807   0.232   0.064   9.318 -0.9390 -1.0401  3.8608
  144SAPE  C21615808   0.416   0.191   9.322  0.5030 -0.0794  0.5225
  144SAPE  H16R15809   0.505   0.162   9.262  2.1633  2.4250  1.6803
  144SAPE  H16S15810   0.434   0.251   9.413  0.3935 -1.8536  1.7419
  144SAPE  C21715811   0.335   0.299   9.240  0.0744 -0.0350  0.2977
  144SAPE  H17R15812   0.356   0.405   9.265  1.1515  0.2543 -1.7268
  144SAPE  H17S15813   0.228   0.285   9.266 -0.8401  2.5265 -1.8411
  144SAPE  C21815814   0.346   0.293   9.084  0.8017  0.0029 -0.3211
  144SAPE  H18R15815   0.330   0.186   9.058 -1.6165  0.0600  0.7572
  144SAPE  H18S15816   0.454   0.304   9.060  0.9946 -0.0875  0.5150
  144SAPE  C21915817   0.260   0.392   9.003 -0.2708  0.6377  0.2798
  144SAPE  H19R15818   0.306   0.381   8.903 -0.4668  0.2613  0.2309
  144SAPE  H19S15819   0.286   0.495   9.033  0.8693  0.2596  0.6304
  144SAPE  C22015820   0.106   0.374   9.015 -0.1809  0.6272  0.3095
  144SAPE  H20R15821   0.097   0.269   9.048  1.1942  0.9264  1.6639
  144SAPE  H20S15822   0.051   0.397   8.921 -1.7512 -1.0327  0.7923
  144SAPE  H20T15823   0.061   0.442   9.090  1.3489 -0.3233  2.1188
  144SAPE   C3315824   0.003   0.650  10.135  0.1090  0.3938  0.1586
  144SAPE   H3X15825  -0.061   0.689  10.217 -0.1601 -0.0953  0.1852
  144SAPE   H3Y15826  -0.075   0.626  10.059 -1.6182  2.0854  1.3414
  144SAPE   C3415827   0.123   0.739  10.094  0.0045 -1.0925  0.0442
  144SAPE   H4X15828   0.189   0.744  10.184  0.3250  0.0118 -0.2531
  144SAPE   H4Y15829   0.083   0.840  10.071 -1.5334 -1.4364  1.0847
  144SAPE   C3515830   0.195   0.708   9.967 -0.5205 -0.8857  0.1213
  144SAPE   H5X15831   0.225   0.601   9.974  0.8035 -0.7562 -2.6013
  144SAPE   H5Y15832   0.289   0.767   9.967  0.6237 -2.5532 -2.8369
  144SAPE   C3615833   0.115   0.751   9.840 -0.3627 -0.0575 -0.0488
  144SAPE   H6X15834   0.095   0.860   9.853 -0.2895  0.0207 -0.5780
  144SAPE   H6Y15835   0.018   0.698   9.826 -0.3938 -0.3831  1.3750
  144SAPE   C3715836   0.187   0.730   9.711  0.4304  0.1054  0.1367
  144SAPE   H7X15837   0.226   0.625   9.713  0.6038  0.1292 -1.3507
  144SAPE   H7Y15838   0.275   0.796   9.720 -0.1158  0.5427  2.3989
  144SAPE   C3815839   0.098   0.770   9.594  0.6902 -0.1221  0.3343
  144SAPE   H8X15840   0.088   0.880   9.593 -1.0718 -0.2565 -1.6502
  144SAPE   H8Y15841  -0.003   0.723   9.601 -0.2538  2.0725  1.7117
  144SAPE   C3915842   0.170   0.723   9.461 -0.6012  0.2690 -0.8441
  144SAPE   H9X15843   0.167   0.612   9.463  0.9630  0.2324  0.3205
  144SAPE   H9Y15844   0.275   0.753   9.476 -1.3783  3.2683 -1.1424
  144SAPE  C31015845   0.098   0.767   9.337  0.0336  0.3671 -0.6108
  144SAPE  H10X15846   0.096   0.878   9.326  0.1331  0.5131  0.7783
  144SAPE  H10Y15847  -0.002   0.718   9.337 -0.9778  2.3137  1.6871
  144SAPE  C31115848   0.171   0.721   9.207 -0.1981  0.1163 -0.2338
  144SAPE  H11X15849   0.167   0.610   9.211  1.9123  0.1035  2.8021
  144SAPE  H11Y15850   0.274   0.763   9.212  0.5369 -1.4504 -1.2973
  144SAPE  C31215851   0.099   0.750   9.082  0.0812 -0.1626 -0.1675
  144SAPE  H12X15852  -0.012   0.745   9.086 -0.0069  1.0015 -0.9634
  144SAPE  H12Y15853   0.131   0.679   9.002  0.5440  2.0780 -2.0470
  144SAPE  C31315854   0.142   0.881   9.027 -0.4189 -0.9323  0.2830
  144SAPE  H13X15855   0.250   0.879   9.002 -0.0725  1.7062  1.3739
  144SAPE  H13Y15856   0.129   0.959   9.106  0.4229  0.1486 -0.6388
  144SAPE  C31415857   0.064   0.905   8.900  0.1698 -0.6815 -0.3374
  144SAPE  H14X15858   0.073   1.014   8.878 -1.6957 -0.5067 -0.3309
  144SAPE  H14Y15859  -0.045   0.896   8.922  0.2632  0.3723  0.6013
  144SAPE  C31515860   0.094   0.831   8.771 -0.3233 -0.8208  0.1975
  144SAPE  H15X15861   0.107   0.723   8.791  1.1434 -1.0672 -1.8576
  144SAPE  H15Y15862   0.193   0.871   8.739  0.8606 -3.0762  0.9294
  144SAPE  C31615863  -0.001   0.860   8.654  0.5096  0.4188  0.1172
  144SAPE  H16X15864   0.002   0.971   8.644 -1.0475  0.3656 -1.1630
  144SAPE  H16Y15865  -0.104   0.840   8.690  0.4879 -1.6753 -1.0470
  144SAPE  C31715866   0.029   0.805   8.512 -0.1256 -0.2251  0.5964
  144SAPE  H17X15867  -0.067   0.794   8.457  1.1476 -0.0140 -1.7606
  144SAPE  H17Y15868   0.084   0.708   8.520 -1.4439 -1.4432 -3.6771
  144SAPE  C31815869   0.110   0.901   8.424  0.4121 -0.1209  0.7398
  144SAPE  H18X15870   0.204   0.920   8.478  0.7046  0.1254  0.1505
  144SAPE  H18Y15871   0.064   1.000   8.406  2.1321  0.6823  0.6738
  144SAPE  H18Z15872   0.135   0.847   8.330 -2.5654 -1.8097  0.8564
  145SAPE     N15873   5.176   1.634  11.269  0.5051 -0.3447  0.4680
  145SAPE   HN115874   5.172   1.538  11.309  0.8323 -0.4289  0.2982
  145SAPE   HN215875   5.106   1.639  11.192 -1.6437 -0.5290  2.3439
  145SAPE   HN315876   5.268   1.650  11.223  0.8202  0.6268  1.3984
  145SAPE   C1215877   5.150   1.752  11.371  0.0135  0.3325 -0.0759
  145SAPE  H12A15878   5.249   1.794  11.398  0.2213  0.2426 -0.6738
  145SAPE  H12B15879   5.104   1.702  11.459  0.6590  1.2387  0.7894
  145SAPE   C1115880   5.046   1.844  11.305  0.3849 -0.2997  0.1242
  145SAPE  H11A15881   5.080   1.892  11.211  0.7527 -2.4542 -0.8703
  145SAPE  H11B15882   5.019   1.925  11.377 -2.0836  0.1495 -1.2498
  145SAPE     P15883   4.803   1.832  11.183  0.1504  0.0948  0.0071
  145SAPE   O1315884   4.682   1.746  11.181 -0.2033  0.4188 -0.9618
  145SAPE   O1415885   4.775   1.972  11.235  0.0395  0.3872  0.4976
  145SAPE   O1215886   4.924   1.771  11.269 -0.5080  0.1652  0.2307
  145SAPE   O1115887   4.880   1.836  11.051 -0.2575  0.2717  0.0221
  145SAPE    C115888   4.855   1.934  10.943 -0.9106  0.7529 -0.2236
  145SAPE    HA15889   4.808   2.027  10.980  0.6822  2.0731 -1.4151
  145SAPE    HB15890   4.949   1.958  10.888 -1.2657  1.8081 -0.3793
  145SAPE    C215891   4.771   1.866  10.828 -0.0716  0.0311 -0.4284
  145SAPE    HS15892   4.764   1.939  10.745  0.0728  0.0097 -0.4579
  145SAPE   O2115893   4.649   1.822  10.884  0.3920 -0.5273  0.2694
  145SAPE   C2115894   4.546   1.902  10.882  0.3537  0.0017  0.5655
  145SAPE   O2215895   4.545   2.017  10.842 -0.0806 -0.0716 -0.4744
  145SAPE   C2215896   4.426   1.836  10.951  0.5376 -0.1368 -0.0778
  145SAPE   H2R15897   4.447   1.739  11.001 -3.2229 -1.0876 -0.1379
  145SAPE   H2S15898   4.399   1.910  11.029 -0.2638 -0.0611 -0.4194
  145SAPE    C315899   4.828   1.729  10.777  0.0496 -0.9269  0.1290
  145SAPE    HX15900   4.751   1.685  10.710 -0.4499 -0.8569  0.6520
  145SAPE    HY15901   4.844   1.670  10.870  1.2260  1.8089  1.7231
  145SAPE   O3115902   4.955   1.753  10.714  0.1706  0.3466 -0.2460
  145SAPE   C3115903   5.020   1.640  10.684 -0.0870 -0.5275  0.3217
  145SAPE   O3215904   4.982   1.527  10.702 -0.0849 -0.1120 -0.2928
  145SAPE   C3215905   5.162   1.678  10.653 -0.1947 -0.1429 -0.6595
  145SAPE   H2X15906   5.224   1.648  10.740 -0.6999  0.7750  0.0229
  145SAPE   H2Y15907   5.170   1.788  10.641 -0.2174 -0.3244 -2.5501
  145SAPE   C2315908   4.306   1.806  10.864 -0.1670  0.2420 -0.1271
  145SAPE   H3R15909   4.251   1.895  10.825 -1.1762 -0.6241 -0.7214
  145SAPE   H3S15910   4.232   1.750  10.924  1.5134 -1.1039  0.7403
  145SAPE   C2415911   4.339   1.714  10.745  0.2965 -0.4546 -0.0054
  145SAPE   H4R15912   4.376   1.614  10.775 -0.8941 -1.0541 -0.5418
  145SAPE   H4S15913   4.425   1.766  10.697  0.5171  0.0163  0.8941
  145SAPE   C2515914   4.219   1.709  10.652  0.0436  0.0818  0.1255
  145SAPE   H5R15915   4.122   1.694  10.702  0.2084  0.2342  0.4921
  145SAPE   C2615916   4.223   1.751  10.524 -0.2848 -0.3907  0.1507
  145SAPE   H6R15917   4.133   1.733  10.463 -1.8133  1.2624  1.8588
  145SAPE   C2715918   4.345   1.784  10.445 -0.2766  0.1114 -0.2199
  145SAPE   H7R15919   4.317   1.774  10.338  1.4574  0.6222 -0.7328
  145SAPE   H7S15920   4.427   1.714  10.473 -0.8034 -0.0622  0.9198
  145SAPE   C2815921   4.409   1.925  10.447  0.6614 -0.6001  0.7281
  145SAPE   H8R15922   4.343   2.013  10.449  1.2891 -0.0834 -0.7056
  145SAPE   C2915923   4.540   1.957  10.440 -0.4323 -0.2608 -0.1142
  145SAPE   H9R15924   4.565   2.064  10.430 -1.9191  0.0306 -0.8466
  145SAPE  C21015925   4.660   1.860  10.440 -0.0472 -0.4720  0.1128
  145SAPE  H10R15926   4.630   1.753  10.450 -1.5347  0.0276  1.2977
  145SAPE  H10S15927   4.737   1.875  10.518  2.6598 -1.0281 -2.3708
  145SAPE  C21115928   4.726   1.887  10.306 -0.3026  1.0807 -0.3073
  145SAPE  H11R15929   4.734   1.992  10.274 -0.7637  1.2887  0.2480
  145SAPE  C21215930   4.756   1.791  10.215 -0.1482  0.4886  0.5512
  145SAPE  H12R15931   4.781   1.815  10.110  0.6460 -2.0937  0.1101
  145SAPE  C21315932   4.720   1.644  10.230 -0.5981 -0.2885  0.1717
  145SAPE  H13R15933   4.722   1.601  10.127  0.9731 -1.8050  0.8021
  145SAPE  H13S15934   4.615   1.636  10.264 -0.3543  2.7926  1.8523
  145SAPE  C21415935   4.805   1.567  10.324  0.2414 -0.1814  0.4453
  145SAPE  H14R15936   4.850   1.636  10.396 -2.4287  2.5723 -0.3981
  145SAPE  C21515937   4.845   1.436  10.317  0.5382 -0.0017 -0.0085
  145SAPE  H15R15938   4.914   1.388  10.388 -0.0812  0.3162  0.8210
  145SAPE  C21615939   4.801   1.343  10.206 -0.2917  0.1895 -0.9188
  145SAPE  H16R15940   4.704   1.372  10.160 -1.1678  0.5714  1.1363
  145SAPE  H16S15941   4.780   1.244  10.252  2.2950 -1.1042 -2.4145
  145SAPE  C21715942   4.903   1.323  10.097  0.5712  0.7688  0.6849
  145SAPE  H17R15943   4.993   1.279  10.144  0.2896 -0.1170  0.4040
  145SAPE  H17S15944   4.926   1.423  10.053  1.7806  0.5189  0.7288
  145SAPE  C21815945   4.857   1.230   9.980  0.4281 -0.7886  0.3928
  145SAPE  H18R15946   4.753   1.246   9.945  0.4624 -4.0025 -1.3195
  145SAPE  H18S15947   4.844   1.132  10.031 -0.1662 -0.7726  0.2734
  145SAPE  C21915948   4.955   1.208   9.870  0.2975  0.2393  0.2707
  145SAPE  H19R15949   5.047   1.162   9.912  1.4948  1.2164 -1.2373
  145SAPE  H19S15950   4.972   1.309   9.828 -3.8368  0.9439 -0.0044
  145SAPE  C22015951   4.900   1.123   9.755  0.7708 -0.1399  0.2214
  145SAPE  H20R15952   4.873   1.021   9.789  0.8198  0.0533  0.8539
  145SAPE  H20S15953   4.975   1.107   9.675  2.0921 -1.3033  1.6597
  145SAPE  H20T15954   4.807   1.174   9.721 -1.1545 -2.0070  2.4578
  145SAPE   C3315955   5.236   1.599  10.543  0.6882 -0.0699  0.5632
  145SAPE   H3X15956   5.226   1.491  10.570 -0.1824  0.0849  0.8825
  145SAPE   H3Y15957   5.346   1.614  10.543  0.7678 -0.6105 -0.3371
  145SAPE   C3415958   5.182   1.627  10.405  0.2402  0.2247  0.2396
  145SAPE   H4X15959   5.167   1.736  10.394  2.3115  0.3945 -1.3182
  145SAPE   H4Y15960   5.084   1.575  10.392  0.7195  0.0011 -3.0179
  145SAPE   C3515961   5.276   1.594  10.287 -0.1238  0.3050  0.8978
  145SAPE   H5X15962   5.289   1.484  10.294 -1.1806 -0.0739 -2.1818
  145SAPE   H5Y15963   5.370   1.652  10.304 -0.3083  0.3805  1.6698
  145SAPE   C3615964   5.210   1.623  10.157  0.8325  0.3253 -0.5045
  145SAPE   H6X15965   5.201   1.734  10.152  0.0647  0.2359 -1.0507
  145SAPE   H6Y15966   5.113   1.572  10.144  0.8992  0.4281 -1.4572
  145SAPE   C3715967   5.284   1.591  10.026 -0.5207 -0.3898 -0.5025
  145SAPE   H7X15968   5.305   1.482  10.026 -2.3981 -0.7628 -1.0762
  145SAPE   H7Y15969   5.389   1.623  10.011 -0.5325  0.5058  1.1538
  145SAPE   C3815970   5.200   1.630   9.905 -0.0355 -0.6250 -0.1653
  145SAPE   H8X15971   5.187   1.740   9.908  0.4502 -0.4908 -2.0828
  145SAPE   H8Y15972   5.101   1.582   9.920 -0.5844  0.1807 -1.1255
  145SAPE   C3915973   5.267   1.599   9.771 -0.2891  0.2715  0.4185
  145SAPE   H9X15974   5.375   1.625   9.768  0.2976 -1.9978  0.7264
  145SAPE   H9Y15975   5.209   1.661   9.700  3.6912  2.5259 -1.0080
  145SAPE  C31015976   5.248   1.455   9.719 -0.0822 -0.0076 -0.8942
  145SAPE  H10X15977   5.140   1.431   9.721  0.0885 -0.7127 -0.2625
  145SAPE  H10Y15978   5.297   1.400   9.802 -2.2707 -0.1719  0.3072
  145SAPE  C31115979   5.313   1.422   9.589 -0.3818  0.1827  0.5026
  145SAPE  H11X15980   5.323   1.311   9.592 -1.6677  0.0380 -0.3948
  145SAPE  H11Y15981   5.413   1.467   9.571  0.6629 -1.4783  2.0208
  145SAPE  C31215982   5.235   1.455   9.462  0.3319 -0.5404  0.0870
  145SAPE  H12X15983   5.292   1.435   9.368  1.1735 -0.7463  0.6365
  145SAPE  H12Y15984   5.192   1.557   9.469 -0.7174 -1.0570  1.3502
  145SAPE  C31315985   5.110   1.366   9.444 -0.8318 -0.1354 -0.3390
  145SAPE  H13X15986   5.047   1.368   9.536  0.8074 -1.6770  0.8426
  145SAPE  H13Y15987   5.150   1.263   9.440  2.8348  1.1532  0.2836
  145SAPE  C31415988   5.036   1.400   9.313 -0.6270  0.5383  0.7657
  145SAPE  H14X15989   5.003   1.506   9.312 -0.7345  0.5418  2.7309
  145SAPE  H14Y15990   4.937   1.351   9.322 -0.9162  0.1406 -3.6614
  145SAPE  C31515991   5.107   1.354   9.189 -0.1217  0.5134 -0.2226
  145SAPE  H15X15992   5.119   1.244   9.202  1.3832  0.8466  1.4594
  145SAPE  H15Y15993   5.213   1.388   9.186  0.5152 -1.4493 -0.4370
  145SAPE  C31615994   5.043   1.390   9.052  0.2767 -0.0283 -0.6296
  145SAPE  H16X15995   5.061   1.499   9.046 -0.4000  0.1568  0.6114
  145SAPE  H16Y15996   4.933   1.379   9.056  0.3106 -0.5032 -0.8594
  145SAPE  C31715997   5.100   1.322   8.933  0.4211  0.1117 -0.7739
  145SAPE  H17X15998   5.086   1.212   8.927 -0.3754  0.2737 -2.0178
  145SAPE  H17Y15999   5.208   1.345   8.929  0.7171 -1.0329  0.3804
  145SAPE  C31816000   5.032   1.369   8.801 -0.1466  0.1253 -0.6386
  145SAPE  H18X16001   5.085   1.331   8.712  0.0866 -1.4095  0.1327
  145SAPE  H18Y16002   5.033   1.479   8.788  0.2820  0.0844 -0.9566
  145SAPE  H18Z16003   4.926   1.335   8.801 -0.1852  0.2246  0.0788
  146SAPE     N16004   2.161   1.068  10.892 -0.8010  0.2999 -0.2356
  146SAPE   HN116005   2.260   1.098  10.908  0.1346 -2.3722 -0.7740
  146SAPE   HN216006   2.096   1.140  10.931  0.0625  1.0105 -0.0848
  146SAPE   HN316007   2.146   0.975  10.935 -0.8423  0.0145 -0.8686
  146SAPE   C1216008   2.129   1.056  10.745 -0.1387  0.2961 -0.3300
  146SAPE  H12A16009   2.200   0.982  10.703  1.0915  1.3776 -0.1840
  146SAPE  H12B16010   2.147   1.157  10.702 -0.1986  0.7174  0.6116
  146SAPE   C1116011   1.983   1.009  10.728  0.3148  0.5787  0.4291
  146SAPE  H11A16012   1.960   1.016  10.620 -0.1471  1.0930  0.5606
  146SAPE  H11B16013   1.917   1.082  10.779  0.8371  0.8416  0.7391
  146SAPE     P16014   2.024   0.738  10.700  0.3538 -0.2066 -0.2964
  146SAPE   O1316015   2.128   0.680  10.789  0.3916 -0.3726  0.4849
  146SAPE   O1416016   1.911   0.648  10.666 -0.7458 -0.2161  0.4636
  146SAPE   O1216017   1.963   0.873  10.764  0.1566  0.1287 -0.0236
  146SAPE   O1116018   2.099   0.781  10.574  0.1223  0.0354 -0.2596
  146SAPE    C116019   2.107   0.713  10.451  0.1564  0.1952  0.4947
  146SAPE    HA16020   2.044   0.622  10.457  0.3359 -0.0605 -1.3273
  146SAPE    HB16021   2.063   0.777  10.372 -0.3692 -0.7128  0.0501
  146SAPE    C216022   2.252   0.663  10.423 -0.1093 -0.4401 -0.4143
  146SAPE    HS16023   2.277   0.606  10.516  1.6648  0.7500 -0.1560
  146SAPE   O2116024   2.336   0.778  10.408 -0.4291 -0.2879 -0.0810
  146SAPE   C2116025   2.443   0.776  10.484 -0.1321 -0.2466  0.0786
  146SAPE   O2216026   2.472   0.686  10.563 -0.0201 -0.4555  0.2905
  146SAPE   C2216027   2.523   0.903  10.460  0.1905  1.1635 -0.3208
  146SAPE   H2R16028   2.470   0.959  10.380 -0.0057 -0.5964 -1.4650
  146SAPE   H2S16029   2.529   0.965  10.552 -0.8510  1.2984 -0.3342
  146SAPE    C316030   2.249   0.569  10.302  0.3470 -0.2603 -0.2313
  146SAPE    HX16031   2.179   0.483  10.319 -1.6668  1.3583 -0.1360
  146SAPE    HY16032   2.348   0.521  10.286 -0.1674 -1.6556  0.6181
  146SAPE   O3116033   2.206   0.657  10.190  0.5189  0.0143 -0.5642
  146SAPE   C3116034   2.303   0.694  10.103  0.5729  0.1533 -0.7368
  146SAPE   O3216035   2.416   0.649  10.109  0.0840 -0.3064 -0.2035
  146SAPE   C3216036   2.235   0.778   9.986 -0.4186  0.1248  0.1977
  146SAPE   H2X16037   2.208   0.879  10.024  0.1882 -0.2992  1.8176
  146SAPE   H2Y16038   2.144   0.719   9.962  0.2188 -1.6324  1.9723
  146SAPE   C2316039   2.670   0.881  10.442 -1.0128  0.3285  0.8302
  146SAPE   H3R16040   2.708   0.819  10.527  2.1786  0.1562 -0.6245
  146SAPE   H3S16041   2.713   0.983  10.441 -0.7478  0.2204  0.9734
  146SAPE   C2416042   2.716   0.809  10.312 -0.3415 -0.0695  0.3605
  146SAPE   H4R16043   2.675   0.708  10.293 -0.2032  0.0899 -0.7898
  146SAPE   H4S16044   2.827   0.806  10.315 -0.4126 -1.4287  2.0410
  146SAPE   C2516045   2.667   0.894  10.197 -0.1475 -0.3003  0.0934
  146SAPE   H5R16046   2.566   0.868  10.162  0.8378 -1.9233 -1.6722
  146SAPE   C2616047   2.743   0.974  10.125  0.5056  0.8481 -0.5628
  146SAPE   H6R16048   2.694   1.024  10.040  0.2485  0.9707 -0.3415
  146SAPE   C2716049   2.887   1.013  10.151 -0.7914  0.0811  0.9343
  146SAPE   H7R16050   2.949   0.939  10.095  1.6401  2.0639  0.9154
  146SAPE   H7S16051   2.927   0.990  10.252 -0.9124 -0.2718  0.9037
  146SAPE   C2816052   2.939   1.140  10.101 -0.0889 -0.4069 -0.1858
  146SAPE   H8R16053   2.867   1.204  10.048  1.5279 -0.9174 -3.1201
  146SAPE   C2916054   3.065   1.191  10.121 -0.3033 -0.6884  0.5254
  146SAPE   H9R16055   3.098   1.293  10.093  1.1046 -0.6219  2.3573
  146SAPE  C21016056   3.174   1.117  10.206  0.1131  0.4251  0.1213
  146SAPE  H10R16057   3.232   1.048  10.140 -0.0020 -0.1779  0.6466
  146SAPE  H10S16058   3.120   1.047  10.273  2.8489 -1.1445  0.7482
  146SAPE  C21116059   3.270   1.200  10.284  0.2830 -0.0867 -0.1457
  146SAPE  H11R16060   3.247   1.201  10.391  0.2358  1.8190 -0.1546
  146SAPE  C21216061   3.389   1.249  10.242  0.1269  0.1389  0.1866
  146SAPE  H12R16062   3.439   1.319  10.309 -2.4021  0.6199  1.6292
  146SAPE  C21316063   3.455   1.248  10.104  0.9763 -0.0242  0.4827
  146SAPE  H13R16064   3.462   1.354  10.073  0.2102 -0.4233 -1.0791
  146SAPE  H13S16065   3.400   1.202  10.020 -0.7795  0.6672  1.2133
  146SAPE  C21416066   3.591   1.186  10.103  0.1480  0.4620  0.5935
  146SAPE  H14R16067   3.618   1.113  10.181  2.7394 -0.5579 -1.1605
  146SAPE  C21516068   3.693   1.211  10.021 -0.1802 -0.3211  0.8165
  146SAPE  H15R16069   3.793   1.165  10.031 -1.1898 -3.5515 -2.7583
  146SAPE  C21616070   3.695   1.317   9.913  0.6150  0.5509  0.2819
  146SAPE  H16R16071   3.789   1.377   9.906  0.0107  1.2922 -1.8513
  146SAPE  H16S16072   3.613   1.390   9.932 -0.1984 -0.7934  2.0883
  146SAPE  C21716073   3.674   1.242   9.787 -0.3074 -0.5032  0.4981
  146SAPE  H17R16074   3.575   1.192   9.789 -0.1661 -0.8220 -0.2494
  146SAPE  H17S16075   3.756   1.171   9.764  0.0771  0.6773 -1.9091
  146SAPE  C21816076   3.651   1.330   9.661 -0.5120  0.1949 -0.0859
  146SAPE  H18R16077   3.736   1.397   9.641 -0.7406  0.2514 -0.8635
  146SAPE  H18S16078   3.565   1.398   9.681  0.1077  0.1855  2.8900
  146SAPE  C21916079   3.634   1.236   9.538 -0.4685  0.5927 -0.4199
  146SAPE  H19R16080   3.535   1.190   9.558  0.1872 -0.8549 -0.4332
  146SAPE  H19S16081   3.709   1.153   9.535 -0.6427  0.3965  0.5103
  146SAPE  C22016082   3.632   1.319   9.412 -0.7061 -0.3134 -0.7603
  146SAPE  H20R16083   3.571   1.412   9.422  0.1648  0.3236 -1.2516
  146SAPE  H20S16084   3.590   1.258   9.329 -1.6664  0.6616 -0.9983
  146SAPE  H20T16085   3.737   1.343   9.387 -0.3965 -1.3442 -0.4493
  146SAPE   C3316086   2.340   0.808   9.867 -0.2651 -0.2312  0.7744
  146SAPE   H3X16087   2.370   0.714   9.815  1.0420  0.3894  0.3839
  146SAPE   H3Y16088   2.421   0.868   9.913  0.8053  0.0834 -1.4279
  146SAPE   C3416089   2.267   0.887   9.760 -0.2487  0.2153  0.6739
  146SAPE   H4X16090   2.185   0.951   9.799  0.0472  1.5018 -0.7679
  146SAPE   H4Y16091   2.224   0.826   9.678  1.8208 -0.7726  0.2853
  146SAPE   C3516092   2.372   0.970   9.691 -0.0538 -0.4176  0.2272
  146SAPE   H5X16093   2.455   0.901   9.662  0.7235  0.6819 -0.1961
  146SAPE   H5Y16094   2.419   1.042   9.762 -2.2512 -0.8279  2.1822
  146SAPE   C3616095   2.326   1.050   9.560 -0.8642  0.3464  0.1477
  146SAPE   H6X16096   2.250   1.118   9.605 -2.4300 -1.1089 -0.2360
  146SAPE   H6Y16097   2.279   0.976   9.491  0.1673  0.4799 -0.7120
  146SAPE   C3716098   2.441   1.128   9.492 -0.5951 -0.1359  0.3098
  146SAPE   H7X16099   2.527   1.059   9.479 -0.3514 -0.2220  2.1643
  146SAPE   H7Y16100   2.462   1.206   9.569  1.4895 -1.1673  0.8276
  146SAPE   C3816101   2.404   1.218   9.371  0.1120  0.3015  0.1366
  146SAPE   H8X16102   2.355   1.310   9.408 -2.2958 -0.4520 -1.0346
  146SAPE   H8Y16103   2.332   1.161   9.309  2.4093 -0.0309 -2.3411
  146SAPE   C3916104   2.532   1.259   9.294 -0.2314  0.4975 -0.4925
  146SAPE   H9X16105   2.568   1.173   9.234 -1.4219  0.0035 -0.5131
  146SAPE   H9Y16106   2.609   1.268   9.373 -0.9678  0.0816  0.2769
  146SAPE  C31016107   2.541   1.388   9.202 -0.3547  0.2311 -1.0644
  146SAPE  H10X16108   2.550   1.468   9.279  0.5602 -2.2651  1.5033
  146SAPE  H10Y16109   2.444   1.398   9.148 -0.9586 -1.4600 -0.3444
  146SAPE  C31116110   2.661   1.388   9.107 -0.2748  0.8877 -0.5293
  146SAPE  H11X16111   2.690   1.283   9.086 -1.5052  0.9416 -2.7172
  146SAPE  H11Y16112   2.744   1.436   9.162  0.0876 -1.2819  0.8605
  146SAPE  C31216113   2.630   1.454   8.971  0.0337  0.1986 -0.1580
  146SAPE  H12X16114   2.606   1.561   8.992 -2.5893 -0.0430 -1.7577
  146SAPE  H12Y16115   2.529   1.425   8.938  0.1027  2.0878 -2.1619
  146SAPE  C31316116   2.743   1.456   8.857  0.4277 -0.0175  0.0249
  146SAPE  H13X16117   2.766   1.350   8.835  2.1008  0.5788 -1.2014
  146SAPE  H13Y16118   2.836   1.501   8.899  0.4737  0.7961 -0.9213
  146SAPE  C31416119   2.706   1.529   8.730  0.3234  0.0249  1.1855
  146SAPE  H14X16120   2.661   1.626   8.761  1.0246  0.7180  0.0702
  146SAPE  H14Y16121   2.623   1.473   8.682 -1.9444  1.3759  3.3918
  146SAPE  C31516122   2.830   1.539   8.637 -0.2522 -0.3174 -0.2251
  146SAPE  H15X16123   2.855   1.436   8.601  1.0915 -0.5348  1.2932
  146SAPE  H15Y16124   2.915   1.583   8.693  0.2403  2.0819 -2.7595
  146SAPE  C31616125   2.807   1.631   8.511  0.0997  0.4256  0.1018
  146SAPE  H16X16126   2.789   1.733   8.551 -1.0008  0.3538 -0.1860
  146SAPE  H16Y16127   2.718   1.591   8.459 -0.0186  0.3576  0.3537
  146SAPE  C31716128   2.919   1.632   8.410  0.2450 -0.0260  0.2228
  146SAPE  H17X16129   2.973   1.536   8.395 -0.4755 -0.7294  1.9990
  146SAPE  H17Y16130   2.995   1.703   8.448  1.9678 -0.3507 -2.4530
  146SAPE  C31816131   2.868   1.680   8.276  0.0584  0.0972 -0.3457
  146SAPE  H18X16132   2.809   1.774   8.279  2.5782  1.7569 -1.5259
  146SAPE  H18Y16133   2.797   1.602   8.239 -1.4000  1.0236  0.4214
  146SAPE  H18Z16134   2.943   1.695   8.196 -0.1788  1.7205 -0.2804
  147SAPE     N16135   5.970   5.321   6.310 -0.1650  0.2072  0.4001
  147SAPE   HN116136   6.057   5.315   6.253 -0.4531 -0.3494  0.0035
  147SAPE   HN216137   5.958   5.239   6.373  0.8229  0.7334  1.2809
  147SAPE   HN316138   5.899   5.316   6.234  0.3233 -0.2950 -0.0297
  147SAPE   C1216139   5.971   5.454   6.369 -0.2933 -0.2780  0.1450
  147SAPE  H12A16140   6.005   5.534   6.300  1.0546 -0.9823 -0.0210
  147SAPE  H12B16141   6.048   5.449   6.449  1.7517 -2.2738 -1.8753
  147SAPE   C1116142   5.830   5.498   6.425  0.8517  0.2916 -0.2082
  147SAPE  H11A16143   5.854   5.566   6.509  1.3200  1.3640 -1.1895
  147SAPE  H11B16144   5.781   5.415   6.480 -1.9822  1.4531 -0.9064
  147SAPE     P16145   5.741   5.713   6.310 -0.0042  0.5350  0.1991
  147SAPE   O1316146   5.866   5.757   6.242  0.4271 -0.2260  0.1098
  147SAPE   O1416147   5.613   5.748   6.251 -0.3805  0.2209  0.1775
  147SAPE   O1216148   5.744   5.555   6.328  0.0458 -0.0845 -0.2586
  147SAPE   O1116149   5.735   5.765   6.462  0.2117 -0.0774 -0.0632
  147SAPE    C116150   5.617   5.751   6.539  0.4268 -0.8694  0.5172
  147SAPE    HA16151   5.550   5.837   6.519 -0.4930 -1.7293 -0.1629
  147SAPE    HB16152   5.561   5.662   6.503 -0.3860 -0.2364  0.1852
  147SAPE    C216153   5.657   5.736   6.687  0.3686  0.0055  0.2213
  147SAPE    HS16154   5.721   5.822   6.715  0.0826 -0.4660  2.3867
  147SAPE   O2116155   5.726   5.606   6.701  0.0645 -0.2723  0.1504
  147SAPE   C2116156   5.811   5.604   6.800 -0.0660 -0.1592  0.5381
  147SAPE   O2216157   5.855   5.704   6.855 -0.1398  0.1898  0.0301
  147SAPE   C2216158   5.853   5.461   6.837  0.7068 -0.4246 -0.0883
  147SAPE   H2R16159   5.780   5.392   6.789  2.6477 -1.2775 -1.9045
  147SAPE   H2S16160   5.940   5.442   6.769  0.4653  0.7783 -0.7581
  147SAPE    C316161   5.537   5.726   6.782  1.1452  0.1176 -0.4916
  147SAPE    HX16162   5.493   5.628   6.754 -1.8617  1.4532 -0.5585
  147SAPE    HY16163   5.454   5.798   6.765  1.7655 -0.1291 -5.2947
  147SAPE   O3116164   5.575   5.727   6.920 -0.6243  0.4443  0.1695
  147SAPE   C3116165   5.599   5.853   6.978 -0.2659  0.0286 -0.2740
  147SAPE   O3216166   5.575   5.959   6.917  0.0231 -0.2995 -0.1926
  147SAPE   C3216167   5.641   5.825   7.124  0.1958  0.3488 -0.1537
  147SAPE   H2X16168   5.748   5.797   7.126  0.1360  0.1612  0.8474
  147SAPE   H2Y16169   5.580   5.736   7.153  0.6973  0.0832  0.0886
  147SAPE   C2316170   5.879   5.441   6.989 -0.2556  0.3671  0.1462
  147SAPE   H3R16171   5.872   5.541   7.038  3.9273  0.5408  0.5591
  147SAPE   H3S16172   5.981   5.400   7.003  0.0814  0.4327 -2.0767
  147SAPE   C2416173   5.780   5.353   7.061  0.1230  0.0551 -0.4450
  147SAPE   H4R16174   5.829   5.342   7.160 -1.7533 -1.7309  0.3029
  147SAPE   H4S16175   5.767   5.251   7.019  0.7985  0.2383 -1.1131
  147SAPE   C2516176   5.639   5.414   7.057 -0.4925  0.2096  0.7396
  147SAPE   H5R16177   5.605   5.441   6.956  0.1892  0.6585  0.6291
  147SAPE   C2616178   5.570   5.446   7.166 -0.4163 -0.1116 -0.3435
  147SAPE   H6R16179   5.468   5.485   7.147 -0.4355 -0.6117 -1.2941
  147SAPE   C2716180   5.619   5.445   7.307  0.4621  0.2149 -0.2859
  147SAPE   H7R16181   5.649   5.342   7.337 -0.3679  0.1356  0.2786
  147SAPE   H7S16182   5.534   5.464   7.375  0.1710 -1.4077 -0.1635
  147SAPE   C2816183   5.723   5.542   7.348 -0.5848 -0.1248  0.5323
  147SAPE   H8R16184   5.724   5.633   7.287  0.7979  0.7583  1.8286
  147SAPE   C2916185   5.814   5.524   7.438 -0.0415  0.1970 -0.4463
  147SAPE   H9R16186   5.889   5.600   7.463  0.2720 -0.0674 -0.5889
  147SAPE  C21016187   5.831   5.398   7.529  0.9516 -0.3487 -0.0201
  147SAPE  H10R16188   5.927   5.406   7.583  0.8890 -1.7244  0.3066
  147SAPE  H10S16189   5.843   5.312   7.459  1.8330 -1.4868  1.4999
  147SAPE  C21116190   5.724   5.369   7.632 -0.1845  0.8211 -0.5189
  147SAPE  H11R16191   5.650   5.293   7.602  0.9147 -0.3608 -0.2511
  147SAPE  C21216192   5.710   5.442   7.752  0.9740 -0.5086 -0.4749
  147SAPE  H12R16193   5.643   5.403   7.830  0.6486  0.5845 -0.2055
  147SAPE  C21316194   5.791   5.560   7.789  0.3399  0.0243 -0.7784
  147SAPE  H13R16195   5.728   5.641   7.833  1.9861  1.3117 -0.7386
  147SAPE  H13S16196   5.832   5.613   7.701  1.1356 -1.6607 -1.4263
  147SAPE  C21416197   5.906   5.528   7.882 -0.2835 -0.1774 -0.2330
  147SAPE  H14R16198   5.990   5.477   7.833  1.0728  1.3710  0.4288
  147SAPE  C21516199   5.903   5.540   8.016 -0.4418 -0.4164  0.8019
  147SAPE  H15R16200   5.991   5.532   8.081  0.2698 -0.0904 -0.0995
  147SAPE  C21616201   5.781   5.600   8.091  0.9477 -0.0050 -0.2440
  147SAPE  H16R16202   5.689   5.607   8.030  1.0232 -0.3899 -0.4034
  147SAPE  H16S16203   5.808   5.701   8.129 -0.9643  0.7146 -0.7577
  147SAPE  C21716204   5.748   5.519   8.222 -0.4335  0.3626 -0.5552
  147SAPE  H17R16205   5.838   5.515   8.286 -0.1322  1.3492 -0.9058
  147SAPE  H17S16206   5.719   5.414   8.199  2.7973 -1.6679  4.0163
  147SAPE  C21816207   5.628   5.574   8.288 -0.0481  0.6028 -0.1900
  147SAPE  H18R16208   5.543   5.573   8.217 -0.5946  0.6060  0.4676
  147SAPE  H18S16209   5.636   5.677   8.329  1.6053  0.7712 -0.9013
  147SAPE  C21916210   5.577   5.503   8.409  0.3484  0.3766 -0.8187
  147SAPE  H19R16211   5.487   5.555   8.449  0.2496  1.6478 -2.6147
  147SAPE  H19S16212   5.650   5.515   8.492 -0.2398 -2.0837  0.0703
  147SAPE  C22016213   5.554   5.351   8.389 -0.5555  0.0420  0.4632
  147SAPE  H20R16214   5.479   5.325   8.312 -1.1105  0.1396  0.9642
  147SAPE  H20S16215   5.522   5.306   8.486 -2.5336  0.1417 -0.1309
  147SAPE  H20T16216   5.651   5.307   8.358 -0.8829 -0.1388 -0.2930
  147SAPE   C3316217   5.606   5.947   7.219  0.6646 -0.3915  0.0804
  147SAPE   H3X16218   5.500   5.978   7.204 -0.4947 -2.0824  3.9815
  147SAPE   H3Y16219   5.677   6.031   7.200  2.1419 -1.8838 -1.1485
  147SAPE   C3416220   5.626   5.894   7.359 -0.7580 -0.1524  0.6705
  147SAPE   H4X16221   5.734   5.869   7.352 -0.1752  1.2296  3.9679
  147SAPE   H4Y16222   5.572   5.797   7.362 -0.0298 -0.7402 -2.6007
  147SAPE   C3516223   5.580   5.991   7.468  0.3081  0.9035 -0.6340
  147SAPE   H5X16224   5.472   6.011   7.450 -0.1957 -0.4898  0.6692
  147SAPE   H5Y16225   5.626   6.092   7.457  0.7743  0.7155 -0.4142
  147SAPE   C3616226   5.610   5.926   7.600 -0.1513  0.1475  0.2893
  147SAPE   H6X16227   5.721   5.935   7.594 -0.1716 -0.8276 -2.2975
  147SAPE   H6Y16228   5.578   5.822   7.582  0.6582  0.0925 -0.8656
  147SAPE   C3716229   5.543   5.989   7.725 -0.2223 -0.1326  0.1812
  147SAPE   H7X16230   5.434   5.974   7.713 -0.4695  1.9179 -0.2454
  147SAPE   H7Y16231   5.576   6.095   7.733 -1.4346  0.2286  0.4114
  147SAPE   C3816232   5.587   5.913   7.856  0.6178  0.1908 -0.1346
  147SAPE   H8X16233   5.698   5.912   7.856  0.6282 -1.7494  0.3274
  147SAPE   H8Y16234   5.554   5.807   7.844 -2.6712  1.1533 -0.1968
  147SAPE   C3916235   5.531   5.988   7.975  0.4018  0.0776 -0.5377
  147SAPE   H9X16236   5.421   5.995   7.971  0.3318 -0.5546  0.2643
  147SAPE   H9Y16237   5.573   6.091   7.978 -1.1587  0.7194 -0.2559
  147SAPE  C31016238   5.558   5.906   8.103  0.3017 -0.0755 -0.6375
  147SAPE  H10X16239   5.665   5.877   8.098  0.2760 -0.3309  0.2508
  147SAPE  H10Y16240   5.497   5.813   8.109 -0.2920  0.4274  1.9121
  147SAPE  C31116241   5.541   5.992   8.231 -0.2335 -0.4322 -0.1636
  147SAPE  H11X16242   5.618   6.072   8.237 -1.3823  0.7804 -1.2066
  147SAPE  H11Y16243   5.547   5.936   8.327 -1.5914 -1.7111 -0.8060
  147SAPE  C31216244   5.402   6.064   8.239 -0.0436 -0.2211  0.5268
  147SAPE  H12X16245   5.326   6.001   8.189  1.7248  0.4757 -3.2159
  147SAPE  H12Y16246   5.397   6.161   8.184 -0.2984  0.4350  1.6886
  147SAPE  C31316247   5.345   6.091   8.378  0.1522  0.7462  0.3743
  147SAPE  H13X16248   5.421   6.143   8.439  0.9721 -0.6285  0.5376
  147SAPE  H13Y16249   5.326   5.992   8.424 -1.8295  1.2051  0.6119
  147SAPE  C31416250   5.224   6.188   8.376  0.3469 -0.3899  0.1690
  147SAPE  H14X16251   5.150   6.146   8.304  0.5237 -0.0432 -0.2186
  147SAPE  H14Y16252   5.256   6.271   8.309  0.0163  0.8824  1.5605
  147SAPE  C31516253   5.155   6.235   8.505  0.5725 -0.2376 -0.5129
  147SAPE  H15X16254   5.119   6.145   8.560 -2.8546 -1.2307 -4.0836
  147SAPE  H15Y16255   5.070   6.301   8.475 -2.0796 -2.5446  1.6506
  147SAPE  C31616256   5.245   6.316   8.599  0.1431  0.8667  0.0682
  147SAPE  H16X16257   5.283   6.407   8.548  1.2781 -1.0266 -2.6057
  147SAPE  H16Y16258   5.338   6.256   8.613 -0.6075 -0.2093  0.4948
  147SAPE  C31716259   5.193   6.359   8.734 -0.2758  0.5111 -0.8255
  147SAPE  H17X16260   5.110   6.428   8.708  0.6365  1.5305 -1.0648
  147SAPE  H17Y16261   5.263   6.424   8.790 -1.9808  0.7357  1.0759
  147SAPE  C31816262   5.148   6.254   8.822 -0.2845 -0.5886 -0.0958
  147SAPE  H18X16263   5.224   6.173   8.823 -0.2243 -0.5553  2.6107
  147SAPE  H18Y16264   5.045   6.218   8.796  0.7542 -2.7028 -1.4413
  147SAPE  H18Z16265   5.140   6.299   8.923 -0.5781  1.4817 -1.0283
  148SAPE     N16266   4.954   2.918   6.647  0.2554  0.2662 -0.5722
  148SAPE   HN116267   4.927   3.007   6.693  2.0324  0.4803  0.1032
  148SAPE   HN216268   5.040   2.896   6.702 -0.3651  1.2919  0.8384
  148SAPE   HN316269   4.988   2.941   6.551  0.5053 -0.1300 -0.5775
  148SAPE   C1216270   4.856   2.808   6.648 -0.5800  0.0815 -0.0251
  148SAPE  H12A16271   4.916   2.715   6.662 -1.4893 -0.2811  1.6324
  148SAPE  H12B16272   4.805   2.816   6.549  1.3992 -0.0043 -1.0812
  148SAPE   C1116273   4.760   2.832   6.769  0.2689 -0.2995  0.3464
  148SAPE  H11A16274   4.819   2.799   6.858 -0.1100  1.3999  1.2407
  148SAPE  H11B16275   4.681   2.754   6.760 -0.2007  0.1841  0.2432
  148SAPE     P16276   4.574   3.002   6.718  0.0725 -0.2039  0.1143
  148SAPE   O1316277   4.574   2.953   6.575  0.4099 -0.3992  0.4623
  148SAPE   O1416278   4.473   2.939   6.798 -0.2743 -0.0869  0.1574
  148SAPE   O1216279   4.710   2.963   6.780  0.5716 -0.3665  0.9336
  148SAPE   O1116280   4.561   3.156   6.719 -0.2171 -0.2351  0.3110
  148SAPE    C116281   4.670   3.245   6.760  0.9360 -0.3053  0.4450
  148SAPE    HA16282   4.771   3.199   6.766  1.1710  0.4543  2.5830
  148SAPE    HB16283   4.674   3.332   6.690 -1.3866  0.0547  0.7148
  148SAPE    C216284   4.634   3.308   6.899 -0.0011 -0.1031 -0.0915
  148SAPE    HS16285   4.699   3.398   6.907 -1.4466  0.7637  2.4326
  148SAPE   O2116286   4.662   3.215   7.001  0.0241  0.8071  0.1607
  148SAPE   C2116287   4.788   3.196   7.038 -0.6096  0.7614 -0.0104
  148SAPE   O2216288   4.886   3.251   6.998 -0.4245 -0.0144 -0.5059
  148SAPE   C2216289   4.787   3.084   7.139  0.8326 -0.0124 -0.2970
  148SAPE   H2R16290   4.685   3.040   7.151 -0.2577  2.5665  0.0544
  148SAPE   H2S16291   4.855   3.007   7.098  0.3073 -1.1736  0.9716
  148SAPE    C316292   4.486   3.359   6.893  0.5271  0.6365 -0.0820
  148SAPE    HX16293   4.414   3.275   6.889  0.0553  1.1077 -2.0191
  148SAPE    HY16294   4.472   3.417   6.799 -0.2900  1.0572  0.2906
  148SAPE   O3116295   4.461   3.432   7.013  0.4896  0.1465  0.6646
  148SAPE   C3116296   4.373   3.533   7.015  0.1500  0.4314  0.1023
  148SAPE   O3216297   4.310   3.584   6.925  0.2387  0.0368 -0.2248
  148SAPE   C3216298   4.368   3.586   7.155 -0.3643 -0.9406 -0.1114
  148SAPE   H2X16299   4.389   3.695   7.159  0.2403 -1.0543 -0.1092
  148SAPE   H2Y16300   4.429   3.527   7.227 -0.8312 -1.2125  0.0582
  148SAPE   C2316301   4.846   3.128   7.267 -0.8034 -0.6261 -0.2859
  148SAPE   H3R16302   4.942   3.182   7.253 -1.2933  0.7178  1.3588
  148SAPE   H3S16303   4.874   3.038   7.325 -0.8618 -0.6751 -0.3344
  148SAPE   C2416304   4.759   3.218   7.354  0.0151 -0.2475  0.4352
  148SAPE   H4R16305   4.677   3.152   7.389  0.0158 -0.8677 -0.7313
  148SAPE   H4S16306   4.707   3.303   7.305  1.4126  0.8841  0.8657
  148SAPE   C2516307   4.828   3.261   7.478  0.4718  0.0669  0.4916
  148SAPE   H5R16308   4.850   3.191   7.559  1.2002 -0.0187  0.2257
  148SAPE   C2616309   4.859   3.391   7.508  0.1105 -0.5180 -0.5207
  148SAPE   H6R16310   4.904   3.421   7.604 -1.7998  3.5704 -0.7547
  148SAPE   C2716311   4.834   3.508   7.418  0.7070  0.4368 -0.6284
  148SAPE   H7R16312   4.802   3.604   7.463  0.5686  0.0297  0.1525
  148SAPE   H7S16313   4.753   3.489   7.344  1.0735 -0.3358 -0.8380
  148SAPE   C2816314   4.960   3.528   7.335  0.1467 -0.0054 -0.0156
  148SAPE   H8R16315   4.952   3.478   7.238  1.0859 -2.7302  1.2601
  148SAPE   C2916316   5.087   3.573   7.355 -0.5945  0.1950  0.7820
  148SAPE   H9R16317   5.153   3.570   7.267 -0.0869  0.0272  1.1673
  148SAPE  C21016318   5.126   3.628   7.487  0.1601 -0.0949  0.8501
  148SAPE  H10R16319   5.183   3.548   7.538 -1.0057 -1.4423  0.0826
  148SAPE  H10S16320   5.047   3.647   7.563 -1.3399  0.4820 -0.8073
  148SAPE  C21116321   5.191   3.765   7.479 -0.0878  0.6544 -0.0784
  148SAPE  H11R16322   5.165   3.829   7.394 -0.3120  2.5400  1.3736
  148SAPE  C21216323   5.281   3.809   7.564  0.2034 -0.1802 -0.6038
  148SAPE  H12R16324   5.327   3.909   7.556  1.4413 -0.7202 -0.4348
  148SAPE  C21316325   5.333   3.732   7.688  0.1834 -0.5079  0.0078
  148SAPE  H13R16326   5.308   3.624   7.679 -0.6816 -0.0903 -3.0004
  148SAPE  H13S16327   5.293   3.759   7.788 -1.4276 -0.9605 -0.5092
  148SAPE  C21416328   5.484   3.748   7.688 -0.0128 -0.4352  0.6643
  148SAPE  H14R16329   5.528   3.797   7.600 -1.7087 -0.7197 -0.3584
  148SAPE  C21516330   5.563   3.702   7.787  0.1685 -0.0801  0.2721
  148SAPE  H15R16331   5.670   3.728   7.787 -0.6065  3.2289  0.5487
  148SAPE  C21616332   5.519   3.622   7.907 -0.0488  0.6269 -0.0481
  148SAPE  H16R16333   5.572   3.524   7.908 -2.4287 -0.6856  1.6852
  148SAPE  H16S16334   5.413   3.595   7.890  0.1091  0.7093 -1.2252
  148SAPE  C21716335   5.549   3.692   8.038 -0.2486 -0.4492  0.1100
  148SAPE  H17R16336   5.515   3.798   8.036 -1.2148 -0.7506  0.4570
  148SAPE  H17S16337   5.658   3.697   8.059  0.1214  1.5482 -2.0801
  148SAPE  C21816338   5.473   3.616   8.147  0.3581  0.2835 -0.2277
  148SAPE  H18R16339   5.515   3.513   8.155  1.4646  0.8371  1.3228
  148SAPE  H18S16340   5.364   3.606   8.126  1.0027 -1.3727 -3.0427
  148SAPE  C21916341   5.479   3.683   8.290 -0.1329  0.4693  0.0428
  148SAPE  H19R16342   5.455   3.791   8.273  0.8499  0.7525  0.3995
  148SAPE  H19S16343   5.586   3.685   8.321  0.0802 -0.6549 -0.6074
  148SAPE  C22016344   5.393   3.614   8.391 -0.3662  0.1637  0.0071
  148SAPE  H20R16345   5.285   3.616   8.367 -0.1508  0.4475 -0.9449
  148SAPE  H20S16346   5.398   3.661   8.492 -1.4748 -1.5132  0.8832
  148SAPE  H20T16347   5.420   3.507   8.405  0.9602  0.3812 -0.8407
  148SAPE   C3316348   4.217   3.586   7.198 -0.4568  0.5036 -0.1792
  148SAPE   H3X16349   4.160   3.492   7.186 -3.6086  2.4053 -0.5577
  148SAPE   H3Y16350   4.151   3.652   7.137 -0.8474  2.0486  1.8489
  148SAPE   C3416351   4.203   3.637   7.345 -0.3715  0.5574  0.1156
  148SAPE   H4X16352   4.192   3.747   7.347 -0.9283  0.5279 -0.9411
  148SAPE   H4Y16353   4.301   3.623   7.395  0.2112 -1.2516 -1.4809
  148SAPE   C3516354   4.085   3.576   7.419 -0.4359  0.1599  0.0165
  148SAPE   H5X16355   4.110   3.467   7.420  1.4076  0.5018  4.2099
  148SAPE   H5Y16356   3.990   3.591   7.365 -0.4909  1.2557  0.3975
  148SAPE   C3616357   4.071   3.646   7.550 -0.6241 -0.0335 -0.2199
  148SAPE   H6X16358   3.971   3.613   7.586 -0.1935 -3.2977 -1.8931
  148SAPE   H6Y16359   4.071   3.756   7.536 -1.5581 -0.0321 -0.2298
  148SAPE   C3716360   4.168   3.596   7.660 -0.1018  0.0970  0.4673
  148SAPE   H7X16361   4.267   3.621   7.616 -0.1107 -2.5145 -1.1489
  148SAPE   H7Y16362   4.168   3.486   7.672 -2.1715 -0.0150 -0.3585
  148SAPE   C3816363   4.139   3.671   7.787 -0.2583  0.4805 -0.1439
  148SAPE   H8X16364   4.031   3.694   7.801  0.0623  2.8512 -1.3092
  148SAPE   H8Y16365   4.178   3.775   7.791 -2.9903  1.6152 -1.5520
  148SAPE   C3916366   4.182   3.589   7.911 -0.2642  0.9009 -0.3150
  148SAPE   H9X16367   4.291   3.571   7.897 -0.2515  1.7708 -1.3371
  148SAPE   H9Y16368   4.136   3.488   7.909  1.8400 -0.0817 -1.6787
  148SAPE  C31016369   4.146   3.664   8.041  0.2725  0.0598 -0.2668
  148SAPE  H10X16370   4.035   3.664   8.050  0.4183 -0.0856  1.7482
  148SAPE  H10Y16371   4.181   3.764   8.006 -0.5091  0.4863  0.1624
  148SAPE  C31116372   4.212   3.615   8.169  1.1292 -1.0897 -0.4759
  148SAPE  H11X16373   4.217   3.697   8.244  1.5481 -1.2652 -0.3149
  148SAPE  H11Y16374   4.310   3.578   8.133  1.6027 -1.3049  1.0238
  148SAPE  C31216375   4.149   3.483   8.225  0.1276  0.2406  0.2365
  148SAPE  H12X16376   4.209   3.442   8.310 -0.8250  0.0730  0.8370
  148SAPE  H12Y16377   4.136   3.405   8.147  2.5334  0.0928 -0.0604
  148SAPE  C31316378   4.008   3.502   8.277  0.0328 -0.1795 -0.4262
  148SAPE  H13X16379   3.936   3.510   8.193  2.4570 -1.4040 -2.7107
  148SAPE  H13Y16380   4.003   3.597   8.335 -0.0783 -0.0571 -0.6351
  148SAPE  C31416381   3.953   3.398   8.371  0.2734 -0.1382  0.2776
  148SAPE  H14X16382   4.023   3.365   8.450  0.3700  1.9099  1.0787
  148SAPE  H14Y16383   3.915   3.329   8.293 -2.9906  1.0286  0.7639
  148SAPE  C31516384   3.823   3.442   8.454  0.6023  0.8425 -0.2659
  148SAPE  H15X16385   3.748   3.472   8.378 -1.1768 -2.0966  0.2777
  148SAPE  H15Y16386   3.863   3.536   8.499  1.1786  0.1136  0.7576
  148SAPE  C31616387   3.785   3.345   8.567 -0.2097 -0.4408 -0.4369
  148SAPE  H16X16388   3.866   3.329   8.641 -0.4303  0.2869 -0.0284
  148SAPE  H16Y16389   3.739   3.253   8.525 -1.0077  0.2311 -1.0656
  148SAPE  C31716390   3.677   3.412   8.658 -0.6980  0.2946  0.2721
  148SAPE  H17X16391   3.574   3.401   8.616 -1.3368 -0.0365  1.9068
  148SAPE  H17Y16392   3.681   3.522   8.643 -1.8749  0.6302  2.2554
  148SAPE  C31816393   3.680   3.373   8.806 -0.3148 -0.2615 -0.4678
  148SAPE  H18X16394   3.781   3.387   8.852 -0.5747  1.3871 -0.3778
  148SAPE  H18Y16395   3.642   3.269   8.815  1.0813 -0.6904  0.8777
  148SAPE  H18Z16396   3.612   3.444   8.858 -2.3423 -1.5388 -1.3234
  149SAPE     N16397   4.736   3.892   6.322  0.9056 -0.1680  0.8724
  149SAPE   HN116398   4.777   3.817   6.264 -0.1197 -0.9865  1.1687
  149SAPE   HN216399   4.786   3.982   6.314 -0.9086  0.6698 -1.8307
  149SAPE   HN316400   4.735   3.853   6.419  0.8546 -0.3391  0.8020
  149SAPE   C1216401   4.598   3.916   6.279 -0.1218  0.4706  0.1806
  149SAPE  H12A16402   4.600   3.963   6.178 -0.8424  2.2270  0.9596
  149SAPE  H12B16403   4.551   3.981   6.355  1.4626  0.9689  0.7594
  149SAPE   C1116404   4.523   3.783   6.263 -0.3592  0.0453 -0.3034
  149SAPE  H11A16405   4.523   3.743   6.367 -2.7728  0.6249 -0.0504
  149SAPE  H11B16406   4.590   3.721   6.201 -1.3355 -0.7819 -0.5420
  149SAPE     P16407   4.269   3.783   6.307  0.1590 -0.4008 -0.1267
  149SAPE   O1316408   4.145   3.840   6.247 -0.2572 -0.3227  0.2810
  149SAPE   O1416409   4.254   3.644   6.353 -0.4417 -0.0178 -0.0597
  149SAPE   O1216410   4.390   3.804   6.206 -0.0414 -0.3835  0.0251
  149SAPE   O1116411   4.302   3.873   6.432 -0.1232  0.2337 -0.5535
  149SAPE    C116412   4.254   4.000   6.471  0.2597 -0.2877 -0.0868
  149SAPE    HA16413   4.343   4.064   6.458  0.5889 -0.5865  0.6742
  149SAPE    HB16414   4.177   4.037   6.400 -0.5967 -1.8471 -0.0033
  149SAPE    C216415   4.177   4.011   6.604  0.8193  0.0329  0.1327
  149SAPE    HS16416   4.131   4.112   6.613  0.8766 -0.2413  4.3876
  149SAPE   O2116417   4.256   3.983   6.720 -0.0330 -0.0705 -0.0627
  149SAPE   C2116418   4.335   4.090   6.758  0.0452 -0.5234  0.5194
  149SAPE   O2216419   4.344   4.191   6.700 -0.4469 -0.6366 -0.9453
  149SAPE   C2216420   4.405   4.051   6.891  0.2096 -0.2022  0.5035
  149SAPE   H2R16421   4.475   3.967   6.871 -0.2823 -0.4772 -0.0918
  149SAPE   H2S16422   4.470   4.136   6.921  0.9890 -0.6596  0.1274
  149SAPE    C316423   4.048   3.914   6.603 -0.1131 -0.2609  0.3652
  149SAPE    HX16424   4.086   3.810   6.601  0.3325 -0.0726 -2.4700
  149SAPE    HY16425   3.988   3.933   6.511 -0.0515  1.0840  0.5927
  149SAPE   O3116426   3.959   3.941   6.718 -0.1599 -0.6178  0.0137
  149SAPE   C3116427   3.964   3.848   6.812  0.5330 -0.3747 -0.0411
  149SAPE   O3216428   4.018   3.739   6.803  0.3336 -0.8896  0.5145
  149SAPE   C3216429   3.868   3.887   6.928  0.6604 -0.0527  0.4496
  149SAPE   H2X16430   3.769   3.857   6.887  0.9924  1.5013 -1.6196
  149SAPE   H2Y16431   3.866   3.998   6.932 -0.4483 -0.0807  0.8255
  149SAPE   C2316432   4.304   4.027   7.006 -0.2039 -0.4961  0.7208
  149SAPE   H3R16433   4.350   3.977   7.094 -3.1661 -0.7099  2.2066
  149SAPE   H3S16434   4.231   3.949   6.976 -1.2385  0.1157  1.6219
  149SAPE   C2416435   4.223   4.149   7.048  0.1893  0.4320 -0.0177
  149SAPE   H4R16436   4.183   4.209   6.964 -1.2170  0.7159  0.8397
  149SAPE   H4S16437   4.288   4.222   7.101  0.3550  0.3641 -0.1280
  149SAPE   C2516438   4.114   4.100   7.141 -0.0720  0.4809 -0.2257
  149SAPE   H5R16439   4.024   4.081   7.081  0.6781  0.3767 -1.3190
  149SAPE   C2616440   4.115   4.082   7.278  0.3147  0.4631 -0.1373
  149SAPE   H6R16441   4.024   4.036   7.320  0.9690  1.1437  2.0856
  149SAPE   C2716442   4.224   4.097   7.379 -0.0789  0.2295 -0.3287
  149SAPE   H7R16443   4.323   4.114   7.330 -1.9327  0.0238 -4.3035
  149SAPE   H7S16444   4.244   3.999   7.428  0.1116  0.7236  0.6053
  149SAPE   C2816445   4.190   4.203   7.486  0.2787  0.2118  0.7263
  149SAPE   H8R16446   4.236   4.296   7.449 -1.0890 -0.4812 -2.8842
  149SAPE   C2916447   4.140   4.190   7.611 -0.3918 -0.2353 -0.5499
  149SAPE   H9R16448   4.113   4.275   7.675 -1.1363 -0.6455 -0.3140
  149SAPE  C21016449   4.092   4.056   7.668  0.1407 -0.0668 -0.0968
  149SAPE  H10R16450   4.154   3.968   7.639 -0.8350 -0.7055 -0.2574
  149SAPE  H10S16451   3.993   4.044   7.620  0.1400  0.1759 -0.1551
  149SAPE  C21116452   4.061   4.048   7.816 -0.1491  0.8955 -0.1852
  149SAPE  H11R16453   3.961   4.007   7.837 -0.1191 -0.3676 -2.3210
  149SAPE  C21216454   4.153   4.073   7.908  0.6015 -0.1445  0.4554
  149SAPE  H12R16455   4.117   4.074   8.012  1.0346  0.0709  0.6078
  149SAPE  C21316456   4.299   4.113   7.880 -0.0728  0.1524  0.2801
  149SAPE  H13R16457   4.309   4.221   7.901  0.7969 -0.0412  0.9103
  149SAPE  H13S16458   4.335   4.108   7.775  0.5102  0.9985  0.4370
  149SAPE  C21416459   4.396   4.030   7.969  0.6222  0.1941  0.2410
  149SAPE  H14R16460   4.357   3.929   7.987  0.5211  0.1010 -0.4638
  149SAPE  C21516461   4.503   4.068   8.033 -0.8118 -0.9500 -0.1262
  149SAPE  H15R16462   4.551   4.000   8.105  1.7348 -1.0502 -1.8825
  149SAPE  C21616463   4.556   4.215   8.027 -0.3751  0.6926 -0.3520
  149SAPE  H16R16464   4.554   4.250   8.132 -1.9845 -0.5055  0.0393
  149SAPE  H16S16465   4.478   4.278   7.978 -0.2705 -0.7475 -2.4900
  149SAPE  C21716466   4.697   4.243   7.966 -0.5700  0.0838 -0.0092
  149SAPE  H17R16467   4.778   4.220   8.039 -1.2360 -0.5072  0.5555
  149SAPE  H17S16468   4.709   4.351   7.945 -0.4784 -0.3636 -2.4618
  149SAPE  C21816469   4.716   4.170   7.838  1.2011 -0.8085  0.4678
  149SAPE  H18R16470   4.646   4.224   7.770  1.8061 -1.0768 -0.3754
  149SAPE  H18S16471   4.704   4.060   7.846 -0.5902 -0.6482  0.1909
  149SAPE  C21916472   4.857   4.195   7.783  0.0483  0.7343 -0.1857
  149SAPE  H19R16473   4.927   4.150   7.857 -1.3681  1.7849  1.8380
  149SAPE  H19S16474   4.878   4.304   7.777 -1.3505  0.9722 -0.7726
  149SAPE  C22016475   4.870   4.136   7.642 -0.1213 -0.3295 -0.2109
  149SAPE  H20R16476   4.854   4.026   7.645 -0.1832 -0.2778  1.3326
  149SAPE  H20S16477   4.969   4.160   7.596 -0.9067  0.9772 -1.2620
  149SAPE  H20T16478   4.791   4.182   7.578  2.6310  1.3511 -2.5453
  149SAPE   C3316479   3.888   3.812   7.066 -0.0299  0.1596  0.1072
  149SAPE   H3X16480   3.993   3.830   7.097 -0.7668  1.1769  2.0944
  149SAPE   H3Y16481   3.886   3.703   7.047 -0.4608  0.6420 -2.9778
  149SAPE   C3416482   3.789   3.856   7.163  0.4479 -0.5678  0.3854
  149SAPE   H4X16483   3.681   3.840   7.140  0.5833  0.2100 -0.8160
  149SAPE   H4Y16484   3.798   3.964   7.183  1.6349 -0.8281  1.3158
  149SAPE   C3516485   3.817   3.804   7.303 -0.1554 -0.1354  0.4538
  149SAPE   H5X16486   3.918   3.840   7.333 -1.3768  1.8971  2.1646
  149SAPE   H5Y16487   3.828   3.694   7.289  1.4397  0.1925 -1.0208
  149SAPE   C3616488   3.713   3.846   7.405 -0.0402 -0.2214  0.8222
  149SAPE   H6X16489   3.619   3.786   7.400 -1.6230  2.2158  0.0303
  149SAPE   H6Y16490   3.693   3.955   7.395 -2.2949 -0.6142  0.6793
  149SAPE   C3716491   3.763   3.820   7.540 -0.6363  0.2009 -0.3090
  149SAPE   H7X16492   3.853   3.883   7.551 -0.7952  0.1240  1.6030
  149SAPE   H7Y16493   3.797   3.714   7.543  2.1356  1.0550 -0.5153
  149SAPE   C3816494   3.662   3.850   7.657  0.4691  0.1964 -0.3034
  149SAPE   H8X16495   3.595   3.761   7.664 -0.8012  1.1427 -0.2325
  149SAPE   H8Y16496   3.602   3.936   7.619  0.8145 -0.0759 -1.4991
  149SAPE   C3916497   3.716   3.873   7.796  0.4934 -0.6784  0.3339
  149SAPE   H9X16498   3.772   3.969   7.796  0.8416 -0.8675  1.0829
  149SAPE   H9Y16499   3.794   3.797   7.822 -0.5767 -1.3445  1.6607
  149SAPE  C31016500   3.602   3.882   7.900 -0.9328  0.0903 -0.2503
  149SAPE  H10X16501   3.560   3.780   7.917 -0.9323  0.0649 -0.4064
  149SAPE  H10Y16502   3.516   3.949   7.879  0.2031  1.4283 -0.6504
  149SAPE  C31116503   3.677   3.917   8.036  0.4802 -0.6483 -0.4153
  149SAPE  H11X16504   3.684   4.028   8.031  1.2520 -0.7281 -1.2949
  149SAPE  H11Y16505   3.779   3.873   8.043  0.8050  0.4384  2.1957
  149SAPE  C31216506   3.585   3.884   8.153 -0.5306  0.0485 -0.6577
  149SAPE  H12X16507   3.563   3.775   8.147  0.9100 -0.1738 -2.1961
  149SAPE  H12Y16508   3.485   3.932   8.156 -0.5455 -0.0375  0.5563
  149SAPE  C31316509   3.648   3.920   8.294  0.5776 -0.6018 -0.2756
  149SAPE  H13X16510   3.623   4.027   8.312 -0.6939 -1.2725  2.1944
  149SAPE  H13Y16511   3.758   3.907   8.292  0.5303 -0.9572 -0.4902
  149SAPE  C31416512   3.593   3.830   8.403 -0.4240 -0.6238  0.4356
  149SAPE  H14X16513   3.615   3.881   8.499  1.3121  0.4581 -0.5012
  149SAPE  H14Y16514   3.656   3.740   8.411  1.6019  0.6055 -1.1230
  149SAPE  C31516515   3.447   3.785   8.406 -0.6039 -0.3646 -0.0255
  149SAPE  H15X16516   3.435   3.727   8.312 -0.4569 -0.6085  0.1081
  149SAPE  H15Y16517   3.374   3.868   8.411 -0.3866 -0.3427  3.6125
  149SAPE  C31616518   3.407   3.685   8.519  0.5654  0.2035  1.2060
  149SAPE  H16X16519   3.386   3.750   8.607 -1.0658 -0.4162  1.3069
  149SAPE  H16Y16520   3.491   3.615   8.541  1.1487  0.1443 -1.0843
  149SAPE  C31716521   3.280   3.592   8.500 -0.8207 -0.3042  0.1676
  149SAPE  H17X16522   3.300   3.543   8.402 -0.6648  1.2939 -0.6108
  149SAPE  H17Y16523   3.191   3.658   8.499 -0.8097 -0.2928 -1.1194
  149SAPE  C31816524   3.257   3.475   8.599 -0.7376  0.0799 -0.0524
  149SAPE  H18X16525   3.244   3.507   8.705  0.4775 -2.3048  0.8394
  149SAPE  H18Y16526   3.339   3.402   8.584  0.0767  1.6678 -3.9782
  149SAPE  H18Z16527   3.164   3.417   8.580 -0.8229  0.8021 -1.9327
  150SAPE     N16528   3.420   5.481   6.280 -0.0455  0.3404 -0.1263
  150SAPE   HN116529   3.355   5.432   6.215 -2.0845 -0.8770  2.7160
  150SAPE   HN216530   3.514   5.444   6.254  0.1453 -0.4264  1.5871
  150SAPE   HN316531   3.396   5.454   6.377 -2.9232  0.6705 -0.6957
  150SAPE   C1216532   3.426   5.622   6.251 -0.6090 -0.5458  0.6552
  150SAPE  H12A16533   3.323   5.663   6.261 -0.4997  0.2226 -1.3139
  150SAPE  H12B16534   3.451   5.626   6.143  0.2131 -0.2264  0.8594
  150SAPE   C1116535   3.532   5.679   6.346 -0.6396 -0.0511 -0.0551
  150SAPE  H11A16536   3.481   5.682   6.445 -1.0134 -0.6461 -0.2229
  150SAPE  H11B16537   3.551   5.781   6.307 -0.8500  0.5980  1.5256
  150SAPE     P16538   3.800   5.678   6.388  0.1726  0.0747  0.2556
  150SAPE   O1316539   3.905   5.577   6.349  0.0732 -0.2480 -0.3012
  150SAPE   O1416540   3.812   5.819   6.339 -0.3523 -0.3077  0.3609
  150SAPE   O1216541   3.662   5.611   6.346 -0.3457 -0.4777 -0.2508
  150SAPE   O1116542   3.794   5.675   6.546  0.0661  0.3385 -0.0825
  150SAPE    C116543   3.756   5.555   6.613 -0.0551  0.0098  0.1988
  150SAPE    HA16544   3.646   5.550   6.628 -0.1590 -4.4265 -1.3089
  150SAPE    HB16545   3.783   5.461   6.560 -1.4260 -0.2266 -0.1115
  150SAPE    C216546   3.847   5.531   6.733 -0.1119  0.2950 -0.1716
  150SAPE    HS16547   3.811   5.437   6.781 -0.8439  1.2110  1.1024
  150SAPE   O2116548   3.832   5.635   6.833  0.1349  0.0014  0.3998
  150SAPE   C2116549   3.720   5.637   6.896 -0.2856  0.0139  0.5565
  150SAPE   O2216550   3.628   5.553   6.896 -0.1033  0.4838 -0.4438
  150SAPE   C2216551   3.718   5.763   6.983 -0.0823  0.1664 -0.0120
  150SAPE   H2R16552   3.819   5.786   7.022 -0.3284  1.4654 -0.1216
  150SAPE   H2S16553   3.691   5.845   6.913 -1.3318 -1.0354 -0.9669
  150SAPE    C316554   3.991   5.523   6.686 -0.3926  0.1872  0.3182
  150SAPE    HX16555   4.027   5.624   6.657  0.6456 -0.7409 -1.7994
  150SAPE    HY16556   4.000   5.463   6.593  0.3332 -1.1367  1.2240
  150SAPE   O3116557   4.083   5.473   6.785 -0.0302  0.5268 -0.5064
  150SAPE   C3116558   4.073   5.344   6.809  1.1593  0.2278  0.4074
  150SAPE   O3216559   3.990   5.269   6.763  0.2453  0.1737  0.1825
  150SAPE   C3216560   4.165   5.318   6.927 -0.1306  0.5290 -0.1893
  150SAPE   H2X16561   4.109   5.345   7.019 -2.5391 -0.2933 -1.3685
  150SAPE   H2Y16562   4.249   5.391   6.919 -1.0594  1.4776 -1.3576
  150SAPE   C2316563   3.616   5.744   7.095  0.9719 -0.2796 -0.0282
  150SAPE   H3R16564   3.659   5.667   7.163 -0.6862 -0.8017  0.4735
  150SAPE   H3S16565   3.521   5.707   7.050  0.3714 -0.4280  1.3155
  150SAPE   C2416566   3.600   5.883   7.168  0.1918 -0.2661  0.2506
  150SAPE   H4R16567   3.590   5.952   7.081  0.0875  1.1215  1.3569
  150SAPE   H4S16568   3.692   5.917   7.219 -0.2074 -0.5075  1.1332
  150SAPE   C2516569   3.473   5.906   7.237  0.0701  0.4614 -0.0601
  150SAPE   H5R16570   3.380   5.877   7.186  0.7419 -2.9398  0.5724
  150SAPE   C2616571   3.464   5.944   7.367 -0.0173 -0.7447  0.2719
  150SAPE   H6R16572   3.362   5.944   7.408 -0.3362  2.9972 -0.3821
  150SAPE   C2716573   3.574   5.984   7.471 -1.4779 -0.1146  0.0751
  150SAPE   H7R16574   3.620   6.082   7.446  0.4179 -1.2563 -1.1040
  150SAPE   H7S16575   3.654   5.907   7.464 -2.0475 -0.8706  1.8116
  150SAPE   C2816576   3.527   5.993   7.612 -0.7519 -0.1700  0.6889
  150SAPE   H8R16577   3.451   6.072   7.626  0.8817  1.5605  0.0652
  150SAPE   C2916578   3.542   5.902   7.717  0.0320  0.6411 -0.7321
  150SAPE   H9R16579   3.506   5.919   7.819 -0.4633 -3.0931 -0.2347
  150SAPE  C21016580   3.614   5.764   7.706  0.5854  0.1950 -0.4868
  150SAPE  H10R16581   3.667   5.731   7.798  1.4055  1.1054 -0.6253
  150SAPE  H10S16582   3.690   5.777   7.626  1.1347  0.7138  0.1160
  150SAPE  C21116583   3.506   5.658   7.681  0.6417  0.7567 -0.4473
  150SAPE  H11R16584   3.490   5.637   7.575 -0.6434 -1.2125  0.1146
  150SAPE  C21216585   3.448   5.583   7.780  0.3304 -0.0188  0.3569
  150SAPE  H12R16586   3.384   5.500   7.751  1.2011 -0.5282 -0.1320
  150SAPE  C21316587   3.473   5.599   7.933  0.3408  0.7314 -0.0721
  150SAPE  H13R16588   3.510   5.702   7.953 -0.3810  0.8251  0.8277
  150SAPE  H13S16589   3.551   5.529   7.969 -0.0762  0.1604 -0.2697
  150SAPE  C21416590   3.354   5.590   8.020  0.7777  0.3839 -0.1667
  150SAPE  H14R16591   3.311   5.688   8.047 -1.3503 -0.5520 -0.0477
  150SAPE  C21516592   3.281   5.477   8.058 -1.1327  0.2070 -0.7490
  150SAPE  H15R16593   3.201   5.487   8.132 -1.8495  0.0848 -1.5070
  150SAPE  C21616594   3.308   5.331   8.030  0.0044 -0.3682  0.0553
  150SAPE  H16R16595   3.396   5.314   7.965  0.3197 -0.4687  0.5028
  150SAPE  H16S16596   3.212   5.293   7.989  1.1879 -0.8741 -2.2967
  150SAPE  C21716597   3.347   5.264   8.163  0.4045 -0.7424  1.0474
  150SAPE  H17R16598   3.354   5.155   8.145  2.0646 -0.3754 -0.6572
  150SAPE  H17S16599   3.261   5.280   8.232 -0.3964 -2.3284  0.4417
  150SAPE  C21816600   3.482   5.307   8.221  0.0290 -0.2771 -0.5785
  150SAPE  H18R16601   3.487   5.418   8.219  1.4663 -0.3216 -0.0761
  150SAPE  H18S16602   3.563   5.275   8.151  1.2408 -1.9135  1.5087
  150SAPE  C21916603   3.513   5.247   8.364  0.4117  0.4241  0.6562
  150SAPE  H19R16604   3.475   5.145   8.383  1.4553 -0.3796 -1.4407
  150SAPE  H19S16605   3.462   5.321   8.430  0.0574  2.2939 -1.6178
  150SAPE  C22016606   3.662   5.239   8.391 -0.0190 -0.3594 -0.0935
  150SAPE  H20R16607   3.683   5.200   8.493  2.3451  0.2208 -0.3172
  150SAPE  H20S16608   3.713   5.337   8.388 -2.1674  0.7715 -0.5982
  150SAPE  H20T16609   3.718   5.182   8.313  1.0994  0.0729  0.3750
  150SAPE   C3316610   4.215   5.171   6.932 -0.8618 -0.1147 -0.0703
  150SAPE   H3X16611   4.294   5.151   6.856  1.0102 -0.4236  1.9330
  150SAPE   H3Y16612   4.125   5.105   6.930  0.3599 -1.7764 -1.3030
  150SAPE   C3416613   4.310   5.136   7.052  0.3717  0.4137 -0.0991
  150SAPE   H4X16614   4.412   5.176   7.031  0.6385 -0.6849 -0.9933
  150SAPE   H4Y16615   4.324   5.026   7.056  0.0667  0.4322  2.0628
  150SAPE   C3516616   4.244   5.166   7.187  0.3597  0.3237 -0.2186
  150SAPE   H5X16617   4.148   5.109   7.189  0.5378 -0.0242 -1.3083
  150SAPE   H5Y16618   4.219   5.273   7.202  1.1178  0.6339 -1.1167
  150SAPE   C3616619   4.327   5.125   7.310 -0.5660  0.1856  0.6216
  150SAPE   H6X16620   4.430   5.167   7.303 -1.2350  1.7730 -0.1074
  150SAPE   H6Y16621   4.349   5.016   7.310  0.4734  0.2956 -3.6606
  150SAPE   C3716622   4.257   5.165   7.442  0.2623  0.5248  0.2728
  150SAPE   H7X16623   4.148   5.146   7.430  0.3833 -0.4088  0.6424
  150SAPE   H7Y16624   4.267   5.276   7.452 -0.6990  0.5682  0.8907
  150SAPE   C3816625   4.321   5.094   7.565 -0.5081  0.1775 -0.1451
  150SAPE   H8X16626   4.430   5.111   7.568 -0.3141 -0.8369 -0.9744
  150SAPE   H8Y16627   4.301   4.985   7.564  0.9959 -0.1236  1.2001
  150SAPE   C3916628   4.267   5.152   7.703  0.0784 -0.1722 -0.3939
  150SAPE   H9X16629   4.168   5.106   7.723 -0.3355  1.9457  2.6860
  150SAPE   H9Y16630   4.249   5.261   7.688 -3.0833 -0.5068  0.5959
  150SAPE  C31016631   4.371   5.133   7.815  0.2064 -0.3684 -0.7075
  150SAPE  H10X16632   4.338   5.181   7.910 -2.0832 -0.8038 -1.2526
  150SAPE  H10Y16633   4.457   5.193   7.779 -1.5945  0.8972 -3.0269
  150SAPE  C31116634   4.402   4.988   7.856  0.1796  0.1717  0.9734
  150SAPE  H11X16635   4.452   4.934   7.773 -0.2677  1.9856 -0.5214
  150SAPE  H11Y16636   4.310   4.934   7.887  0.5592 -0.8577  0.3284
  150SAPE  C31216637   4.491   4.992   7.981 -0.4344 -0.1479 -0.0729
  150SAPE  H12X16638   4.524   5.097   7.997 -1.6991  0.0589  1.3165
  150SAPE  H12Y16639   4.581   4.929   7.967 -1.1909 -1.3947  0.6207
  150SAPE  C31316640   4.432   4.956   8.117  0.1929 -0.5588  0.0803
  150SAPE  H13X16641   4.508   4.927   8.192 -0.3025 -0.4607  0.6182
  150SAPE  H13Y16642   4.380   4.859   8.105 -2.0575  0.5376  0.8526
  150SAPE  C31416643   4.342   5.061   8.188 -0.0005  0.1320  0.1251
  150SAPE  H14X16644   4.247   5.059   8.130 -0.9206 -0.1410  1.6145
  150SAPE  H14Y16645   4.389   5.162   8.194  1.4399 -0.6006  1.3384
  150SAPE  C31516646   4.307   5.020   8.334  0.0074  0.6276 -0.1949
  150SAPE  H15X16647   4.408   5.019   8.381 -1.1590 -1.8983  2.3944
  150SAPE  H15Y16648   4.266   4.916   8.334 -1.0630  1.0489 -1.2312
  150SAPE  C31616649   4.205   5.126   8.386  0.2142 -0.5805 -0.4507
  150SAPE  H16X16650   4.112   5.098   8.332 -0.4274  0.2822  0.2005
  150SAPE  H16Y16651   4.250   5.226   8.367 -1.5136 -0.0632 -1.9133
  150SAPE  C31716652   4.198   5.121   8.539 -0.3706  0.2497 -1.5177
  150SAPE  H17X16653   4.289   5.165   8.586 -1.3946  1.2447 -0.4359
  150SAPE  H17Y16654   4.205   5.016   8.575 -1.5445  0.9479  0.8084
  150SAPE  C31816655   4.081   5.191   8.600  0.7140  0.4865  0.2990
  150SAPE  H18X16656   3.986   5.135   8.587  1.5677 -1.6169  2.7216
  150SAPE  H18Y16657   4.071   5.293   8.555  0.1253  1.2083  2.0095
  150SAPE  H18Z16658   4.096   5.199   8.710  0.3584 -0.9936  0.4540
  151SAPE     N16659   5.613   3.436   6.154 -0.6798 -0.0794  0.6362
  151SAPE   HN116660   5.538   3.393   6.211 -0.3281  0.0991  1.2346
  151SAPE   HN216661   5.591   3.426   6.053 -2.3220  1.6514  0.7963
  151SAPE   HN316662   5.705   3.390   6.170 -0.4483  0.8786  2.1897
  151SAPE   C1216663   5.621   3.580   6.186 -0.0468 -0.4760 -0.2428
  151SAPE  H12A16664   5.613   3.582   6.297  0.2040 -0.2757 -0.2291
  151SAPE  H12B16665   5.539   3.640   6.141 -0.0780 -0.8127 -0.6339
  151SAPE   C1116666   5.756   3.638   6.144 -0.0801  0.5263  0.1567
  151SAPE  H11A16667   5.758   3.745   6.172 -1.3637 -0.1667  3.0633
  151SAPE  H11B16668   5.764   3.631   6.033 -4.1390 -1.0852 -0.1370
  151SAPE     P16669   6.002   3.632   6.220  0.1422  0.4142  0.0134
  151SAPE   O1316670   6.099   3.523   6.251  0.5008 -0.3565  0.7097
  151SAPE   O1416671   6.027   3.698   6.092  0.0945 -0.1909 -0.4657
  151SAPE   O1216672   5.859   3.559   6.204  0.4063 -0.6432 -0.0336
  151SAPE   O1116673   5.986   3.742   6.330 -0.2664  0.3980 -0.6563
  151SAPE    C116674   5.911   3.712   6.446  0.0036 -0.1474  0.2825
  151SAPE    HA16675   5.858   3.802   6.486 -1.8294 -0.9118 -0.3520
  151SAPE    HB16676   5.833   3.634   6.437 -0.1329  0.0210 -0.0307
  151SAPE    C216677   6.010   3.662   6.554 -0.5653  0.2265  0.5614
  151SAPE    HS16678   6.049   3.561   6.529  0.8516  0.7476  0.6043
  151SAPE   O2116679   5.947   3.644   6.682 -0.0462 -0.0940  0.0760
  151SAPE   C2116680   5.870   3.539   6.697  0.4553  0.4768  0.1815
  151SAPE   O2216681   5.862   3.447   6.618 -0.1053  0.8009  0.2430
  151SAPE   C2216682   5.807   3.527   6.835 -0.4752  0.0019  0.4488
  151SAPE   H2R16683   5.807   3.629   6.881  1.6356  0.1464  0.1672
  151SAPE   H2S16684   5.702   3.497   6.811 -0.3324  1.9800 -3.0264
  151SAPE    C316685   6.130   3.766   6.568  0.0746 -0.0913 -0.0261
  151SAPE    HX16686   6.078   3.863   6.582 -1.0219 -0.8721  1.3936
  151SAPE    HY16687   6.196   3.764   6.478  0.4113 -0.4900  0.2327
  151SAPE   O3116688   6.201   3.738   6.690 -0.8857 -0.3369  0.7234
  151SAPE   C3116689   6.300   3.656   6.676 -0.0660  0.2956  0.3695
  151SAPE   O3216690   6.336   3.600   6.574  0.4571  0.4962  0.5700
  151SAPE   C3216691   6.380   3.639   6.808  0.0655 -0.3498  0.3855
  151SAPE   H2X16692   6.453   3.722   6.803 -1.0013  0.5011 -1.6501
  151SAPE   H2Y16693   6.428   3.539   6.808  0.5153 -0.1389 -1.2825
  151SAPE   C2316694   5.882   3.424   6.929  0.3555  0.5441 -1.3138
  151SAPE   H3R16695   5.970   3.469   6.980  0.4349 -0.8230 -0.2061
  151SAPE   H3S16696   5.924   3.350   6.858 -0.8091 -0.6396 -0.7894
  151SAPE   C2416697   5.800   3.360   7.041  0.3562  0.1700 -0.4681
  151SAPE   H4R16698   5.717   3.301   6.995 -0.1047 -0.3748  1.0474
  151SAPE   H4S16699   5.760   3.448   7.095  0.9331  0.8252 -1.0991
  151SAPE   C2516700   5.874   3.272   7.140  0.2497 -0.3496  0.3297
  151SAPE   H5R16701   5.954   3.323   7.196 -2.2635  2.2260  1.6939
  151SAPE   C2616702   5.841   3.141   7.164  0.4092  0.1833  0.1337
  151SAPE   H6R16703   5.888   3.085   7.246 -0.9747  0.2832  1.0250
  151SAPE   C2716704   5.726   3.064   7.102  0.5272 -0.0647  0.6515
  151SAPE   H7R16705   5.707   3.094   6.996 -0.0799 -1.5704  0.3134
  151SAPE   H7S16706   5.638   3.093   7.163  1.7990  1.8265  1.6016
  151SAPE   C2816707   5.725   2.915   7.098  0.3506 -0.0786  0.0699
  151SAPE   H8R16708   5.765   2.871   7.006 -2.7155 -0.8415 -0.9534
  151SAPE   C2916709   5.682   2.822   7.186  0.3587  0.4301  0.1932
  151SAPE   H9R16710   5.703   2.716   7.165  0.2149  0.6069 -0.8695
  151SAPE  C21016711   5.611   2.848   7.322 -0.0270 -0.8898  0.5265
  151SAPE  H10R16712   5.618   2.958   7.336 -0.4848 -0.2711 -3.3958
  151SAPE  H10S16713   5.672   2.801   7.401 -0.3668 -1.9737  0.1608
  151SAPE  C21116714   5.469   2.819   7.318 -0.3778 -0.2161 -0.1768
  151SAPE  H11R16715   5.421   2.831   7.220 -1.2620 -0.0085  0.2681
  151SAPE  C21216716   5.397   2.771   7.426  0.6455 -0.3231  0.6470
  151SAPE  H12R16717   5.291   2.748   7.411  0.5673  0.0975  0.5687
  151SAPE  C21316718   5.445   2.750   7.569 -0.3781  0.0373 -0.1445
  151SAPE  H13R16719   5.356   2.751   7.636  0.1974  1.3869  0.6311
  151SAPE  H13S16720   5.512   2.836   7.590  0.4912 -0.4239 -1.0117
  151SAPE  C21416721   5.514   2.619   7.606  0.0672 -0.7564  0.2893
  151SAPE  H14R16722   5.568   2.574   7.522 -0.1246 -0.4838  0.0190
  151SAPE  C21516723   5.516   2.551   7.728  0.7152  0.5209 -0.3592
  151SAPE  H15R16724   5.568   2.454   7.739 -0.0764  0.3417  1.9786
  151SAPE  C21616725   5.442   2.593   7.857  0.2008 -0.0288  0.1730
  151SAPE  H16R16726   5.458   2.507   7.925 -0.0964 -2.6739 -3.0001
  151SAPE  H16S16727   5.332   2.594   7.844  0.1036 -1.7989  0.7435
  151SAPE  C21716728   5.486   2.731   7.913 -0.7829  0.1061  0.5889
  151SAPE  H17R16729   5.424   2.767   7.997 -0.1257  0.0514  1.0994
  151SAPE  H17S16730   5.489   2.804   7.828 -2.1890  0.9673  1.2610
  151SAPE  C21816731   5.630   2.726   7.961 -1.0162 -0.3043  0.2830
  151SAPE  H18R16732   5.700   2.685   7.885  1.6379 -1.5020  3.2387
  151SAPE  H18S16733   5.639   2.661   8.051  1.3120 -0.3252  0.0701
  151SAPE  C21916734   5.698   2.858   8.001 -0.6928  0.5078  0.1845
  151SAPE  H19R16735   5.686   2.936   7.923  1.2832  0.4317 -0.2124
  151SAPE  H19S16736   5.806   2.834   8.003 -0.5325  1.2934  1.3581
  151SAPE  C22016737   5.641   2.919   8.129 -0.5188  0.5254 -0.1958
  151SAPE  H20R16738   5.672   2.866   8.221 -1.3793 -3.9162 -2.3423
  151SAPE  H20S16739   5.679   3.023   8.139 -0.9405  0.5029  1.7222
  151SAPE  H20T16740   5.531   2.929   8.121 -0.4581  1.1333 -0.3093
  151SAPE   C3316741   6.307   3.657   6.948  0.2888 -0.1752 -0.4862
  151SAPE   H3X16742   6.259   3.757   6.949 -1.4954 -1.0056 -1.5420
  151SAPE   H3Y16743   6.401   3.665   7.008 -0.8927 -0.4125  1.4360
  151SAPE   C3416744   6.204   3.551   6.986  0.0730 -0.4469  0.3476
  151SAPE   H4X16745   6.234   3.450   6.952  0.1369 -1.0622  2.1934
  151SAPE   H4Y16746   6.127   3.594   6.919 -0.0397  1.8066  1.8356
  151SAPE   C3516747   6.168   3.553   7.136 -0.0314 -0.1447  0.3420
  151SAPE   H5X16748   6.261   3.545   7.196  1.3602 -2.4344 -1.9944
  151SAPE   H5Y16749   6.112   3.461   7.163 -3.3441  2.1803  1.6175
  151SAPE   C3616750   6.091   3.674   7.191  0.5497 -0.3691 -0.2601
  151SAPE   H6X16751   6.011   3.700   7.118 -1.2418  1.8482  2.4158
  151SAPE   H6Y16752   6.168   3.751   7.213  0.7845 -0.2467 -1.4411
  151SAPE   C3716753   6.027   3.638   7.328 -0.0883 -0.2741  0.5346
  151SAPE   H7X16754   6.086   3.548   7.355 -0.7566  0.0673  3.3010
  151SAPE   H7Y16755   5.921   3.611   7.305  1.1899 -0.9635 -5.0043
  151SAPE   C3816756   6.042   3.757   7.424 -0.3663  0.2750  0.6654
  151SAPE   H8X16757   5.975   3.837   7.388  1.0852  1.6275  0.9453
  151SAPE   H8Y16758   6.144   3.801   7.423 -0.2045 -0.0880  0.9514
  151SAPE   C3916759   5.997   3.724   7.560 -0.7126 -0.7132 -0.7349
  151SAPE   H9X16760   6.023   3.617   7.573 -1.9319 -1.0738 -1.1920
  151SAPE   H9Y16761   5.886   3.727   7.563 -0.6776 -0.1223  0.3727
  151SAPE  C31016762   6.057   3.807   7.673 -0.2506  0.2549  0.9311
  151SAPE  H10X16763   6.026   3.913   7.658  0.2849  0.6486  2.5744
  151SAPE  H10Y16764   6.168   3.804   7.670 -0.2787  0.0961 -0.7178
  151SAPE  C31116765   6.024   3.760   7.809  0.3356 -0.5933 -0.0997
  151SAPE  H11X16766   6.032   3.649   7.807 -4.9649 -1.0696 -2.3169
  151SAPE  H11Y16767   5.917   3.779   7.831  0.0219  1.3024 -3.0284
  151SAPE  C31216768   6.119   3.817   7.915  0.0056  0.3162 -0.1162
  151SAPE  H12X16769   6.092   3.922   7.938 -0.9264  0.1268 -0.3373
  151SAPE  H12Y16770   6.222   3.822   7.874 -0.2435  1.1614 -0.6424
  151SAPE  C31316771   6.131   3.729   8.040 -0.0144 -0.7585  0.6073
  151SAPE  H13X16772   6.179   3.633   8.012  0.1742 -1.1130  2.0876
  151SAPE  H13Y16773   6.034   3.703   8.087 -0.8668  0.1146 -0.6656
  151SAPE  C31416774   6.211   3.806   8.141  0.1853  0.3986 -0.2365
  151SAPE  H14X16775   6.180   3.912   8.147 -0.6104  0.2376 -1.3689
  151SAPE  H14Y16776   6.317   3.817   8.110  0.6875 -2.6089  0.2294
  151SAPE  C31516777   6.205   3.763   8.289 -0.1244  0.4335 -0.5730
  151SAPE  H15X16778   6.233   3.655   8.288 -0.8075  0.2569 -1.3148
  151SAPE  H15Y16779   6.100   3.773   8.326 -0.5633 -0.1134 -1.6373
  151SAPE  C31616780   6.295   3.849   8.375  0.3580 -0.0973 -0.1561
  151SAPE  H16X16781   6.283   3.954   8.339  0.7038  0.7152  2.0076
  151SAPE  H16Y16782   6.397   3.814   8.349  0.0833 -1.0674  0.0726
  151SAPE  C31716783   6.268   3.845   8.522  0.7976  0.3383 -0.6195
  151SAPE  H17X16784   6.356   3.881   8.580  1.4586 -2.6360  0.3312
  151SAPE  H17Y16785   6.250   3.740   8.554 -0.1444  0.9864  1.0345
  151SAPE  C31816786   6.144   3.916   8.568  0.5346  0.5408 -0.3628
  151SAPE  H18X16787   6.142   3.912   8.679  0.2963 -2.6054 -0.4525
  151SAPE  H18Y16788   6.046   3.879   8.530  0.6890  0.6235 -0.8413
  151SAPE  H18Z16789   6.152   4.023   8.538  1.2112  1.2256  2.1511
  152SAPE     N16790   2.656   5.957   6.440 -0.3323  0.1490 -0.1355
  152SAPE   HN116791   2.751   5.972   6.480 -0.9743  0.2575  1.3506
  152SAPE   HN216792   2.589   5.981   6.516  0.6899 -3.3917  1.9957
  152SAPE   HN316793   2.655   5.856   6.416 -1.5301  0.0523  0.2929
  152SAPE   C1216794   2.630   6.047   6.320  0.4586  0.1436 -0.3077
  152SAPE  H12A16795   2.693   6.138   6.329  0.9342 -0.4424  2.9466
  152SAPE  H12B16796   2.525   6.079   6.335  0.4977  0.0860  0.0841
  152SAPE   C1116797   2.653   5.972   6.192  0.4901  0.0451  0.5334
  152SAPE  H11A16798   2.630   6.034   6.102 -0.1812  0.5616  1.0443
  152SAPE  H11B16799   2.597   5.876   6.191  0.9060 -0.1910 -0.5653
  152SAPE     P16800   2.902   6.019   6.136  0.2863  0.2201 -0.2226
  152SAPE   O1316801   2.930   5.963   6.002 -0.4457 -1.0331  0.7186
  152SAPE   O1416802   2.864   6.161   6.138  0.1136 -0.3761  0.1346
  152SAPE   O1216803   2.793   5.927   6.199 -0.5181  0.3827 -0.7175
  152SAPE   O1116804   3.025   5.995   6.222 -0.3455 -0.3637  0.1054
  152SAPE    C116805   3.072   5.860   6.253 -0.3143  0.5321 -0.3090
  152SAPE    HA16806   3.032   5.776   6.193 -0.0702 -0.2434  0.5987
  152SAPE    HB16807   3.181   5.861   6.234 -0.1919  1.7586  0.4051
  152SAPE    C216808   3.037   5.827   6.405 -0.0808 -0.0600 -0.7959
  152SAPE    HS16809   2.927   5.836   6.412 -0.0965 -0.6965 -0.1792
  152SAPE   O2116810   3.103   5.930   6.485  0.4283  0.3916 -0.1810
  152SAPE   C2116811   3.023   6.038   6.521  1.0019  0.6706 -0.2558
  152SAPE   O2216812   2.898   6.039   6.520  0.2395  0.2131  0.4743
  152SAPE   C2216813   3.107   6.157   6.560  0.1367  0.2157 -0.3212
  152SAPE   H2R16814   3.211   6.117   6.559  0.7023  1.5145  2.8511
  152SAPE   H2S16815   3.102   6.226   6.473 -0.5276 -0.7046 -1.0326
  152SAPE    C316816   3.094   5.698   6.449  0.5246  0.3969 -0.0701
  152SAPE    HX16817   3.205   5.704   6.439  0.4570  0.7021 -0.7396
  152SAPE    HY16818   3.035   5.634   6.380 -0.2593 -1.5846  2.4045
  152SAPE   O3116819   3.056   5.666   6.585 -0.4983  0.2433 -0.9225
  152SAPE   C3116820   3.155   5.678   6.677 -0.1071  0.3590 -0.0292
  152SAPE   O3216821   3.270   5.700   6.653 -0.2560  0.0409 -0.1937
  152SAPE   C3216822   3.104   5.643   6.821 -0.2430 -0.5721  0.2682
  152SAPE   H2X16823   3.109   5.534   6.838  1.6541 -0.5184  0.1905
  152SAPE   H2Y16824   2.996   5.667   6.831 -0.4926 -1.0732 -1.0904
  152SAPE   C2316825   3.074   6.221   6.694  0.6732  0.7867  0.1030
  152SAPE   H3R16826   2.970   6.258   6.693  0.8077  1.1967  1.3532
  152SAPE   H3S16827   3.127   6.317   6.712  0.0053  1.2604 -0.4191
  152SAPE   C2416828   3.072   6.125   6.817  0.2286  0.1585 -0.2861
  152SAPE   H4R16829   3.013   6.032   6.803  1.1092 -0.5203  0.4594
  152SAPE   H4S16830   3.028   6.181   6.901 -1.3922  2.9735 -2.9282
  152SAPE   C2516831   3.205   6.071   6.859  0.5275  0.3314  0.1116
  152SAPE   H5R16832   3.254   6.008   6.783  0.0535  0.8792 -0.6621
  152SAPE   C2616833   3.261   6.080   6.982  0.5873 -0.5046 -0.2906
  152SAPE   H6R16834   3.362   6.040   7.000  0.2338  0.0412  3.3814
  152SAPE   C2716835   3.195   6.138   7.104 -0.3043 -0.7759  0.2428
  152SAPE   H7R16836   3.119   6.211   7.068  0.0494 -1.3352 -1.6894
  152SAPE   H7S16837   3.274   6.188   7.165 -1.1907 -1.6833  2.1579
  152SAPE   C2816838   3.142   6.037   7.205  1.1803 -0.3468  0.3170
  152SAPE   H8R16839   3.119   5.933   7.179 -1.4288  0.0759  0.8135
  152SAPE   C2916840   3.124   6.080   7.329 -0.4743  0.7244 -0.2761
  152SAPE   H9R16841   3.067   6.014   7.396 -0.0438 -0.4802 -1.0865
  152SAPE  C21016842   3.148   6.213   7.394 -0.7587  0.6094 -0.0217
  152SAPE  H10R16843   3.227   6.273   7.344 -0.0097 -0.6102 -0.3130
  152SAPE  H10S16844   3.176   6.204   7.501 -1.3246 -2.1759 -0.0763
  152SAPE  C21116845   3.026   6.293   7.364  0.3725  0.1605  0.3206
  152SAPE  H11R16846   2.975   6.296   7.267 -0.3279  0.2279  0.6899
  152SAPE  C21216847   2.955   6.355   7.462 -0.1052  0.7190 -0.3989
  152SAPE  H12R16848   2.881   6.430   7.431 -1.1068 -0.4597 -0.9016
  152SAPE  C21316849   2.989   6.350   7.613  0.3404  0.0453  1.0912
  152SAPE  H13R16850   3.084   6.406   7.631  0.5359 -0.0391  0.3382
  152SAPE  H13S16851   2.981   6.243   7.639 -0.8675  0.0787  0.8449
  152SAPE  C21416852   2.879   6.404   7.697  0.3806 -0.5270 -0.0595
  152SAPE  H14R16853   2.779   6.404   7.651  0.2299  0.1100  0.2618
  152SAPE  C21516854   2.902   6.453   7.815 -0.0261 -0.5681 -0.2643
  152SAPE  H15R16855   2.817   6.486   7.877  0.3109 -0.3980  0.1124
  152SAPE  C21616856   3.033   6.464   7.893  0.0230 -0.0041 -0.6904
  152SAPE  H16R16857   3.099   6.541   7.849 -0.5848  0.8937 -0.0538
  152SAPE  H16S16858   3.083   6.364   7.893  0.7897  0.3789 -0.7990
  152SAPE  C21716859   3.004   6.487   8.045  0.1497 -0.2919 -0.1805
  152SAPE  H17R16860   2.979   6.392   8.098  2.8526 -0.5931  0.6405
  152SAPE  H17S16861   2.922   6.559   8.063 -2.6034 -3.0035 -1.4334
  152SAPE  C21816862   3.128   6.542   8.111  0.1018 -0.0012 -0.0904
  152SAPE  H18R16863   3.129   6.651   8.091  0.4453 -0.3643 -2.2255
  152SAPE  H18S16864   3.221   6.499   8.068  0.4603  0.4829  0.2085
  152SAPE  C21916865   3.126   6.519   8.267 -0.2604 -0.1503  0.7633
  152SAPE  H19R16866   3.094   6.418   8.303 -1.2212  0.7449  2.5313
  152SAPE  H19S16867   3.051   6.589   8.308 -0.5407 -0.3612  0.6122
  152SAPE  C22016868   3.257   6.557   8.331  0.4716 -0.2551  0.6877
  152SAPE  H20R16869   3.251   6.537   8.440 -1.5288 -2.7751  0.1621
  152SAPE  H20S16870   3.288   6.662   8.311 -0.0059 -0.0545  0.9668
  152SAPE  H20T16871   3.336   6.487   8.300  0.9665 -0.8647  3.1993
  152SAPE   C3316872   3.179   5.714   6.936 -0.1256 -0.4278  0.4419
  152SAPE   H3X16873   3.142   5.814   6.969 -2.1434 -1.2230  0.6568
  152SAPE   H3Y16874   3.288   5.719   6.918  0.3209  0.7505  3.1301
  152SAPE   C3416875   3.173   5.628   7.062 -0.2455  0.4867  0.3534
  152SAPE   H4X16876   3.220   5.689   7.142 -0.8684 -1.7981  2.5349
  152SAPE   H4Y16877   3.241   5.539   7.061 -1.0618 -0.1561  0.9586
  152SAPE   C3516878   3.033   5.594   7.113 -0.5825  0.5843  0.1303
  152SAPE   H5X16879   2.971   5.533   7.043  0.8789 -2.0781  1.0671
  152SAPE   H5Y16880   2.988   5.691   7.141 -0.3589  0.9457 -0.7555
  152SAPE   C3616881   3.044   5.496   7.236 -0.0083  0.3368  0.3813
  152SAPE   H6X16882   3.096   5.553   7.316  0.7116  0.0451  0.1324
  152SAPE   H6Y16883   3.110   5.414   7.198 -1.8991 -2.2931  2.5848
  152SAPE   C3716884   2.914   5.442   7.305  0.7183 -0.1509  0.6618
  152SAPE   H7X16885   2.934   5.379   7.394 -1.4440  0.8506  1.8916
  152SAPE   H7Y16886   2.856   5.379   7.234  1.0713  1.7345 -1.3571
  152SAPE   C3816887   2.823   5.551   7.359 -0.3996 -0.1238  0.2608
  152SAPE   H8X16888   2.741   5.495   7.410  0.0870 -0.1946  0.9629
  152SAPE   H8Y16889   2.765   5.602   7.279 -0.0643  0.1235  0.1763
  152SAPE   C3916890   2.900   5.657   7.440  0.0467 -0.3664  0.5403
  152SAPE   H9X16891   2.818   5.717   7.486 -0.3049  0.3552 -0.9998
  152SAPE   H9Y16892   2.974   5.718   7.383 -0.5941 -0.6421 -0.5997
  152SAPE  C31016893   2.984   5.608   7.558  0.4505  0.6941  0.1492
  152SAPE  H10X16894   3.077   5.551   7.540  0.5934  0.7982  0.5401
  152SAPE  H10Y16895   2.926   5.543   7.627  0.3735 -0.9344 -1.4365
  152SAPE  C31116896   3.021   5.726   7.651 -0.3390  0.8265  0.2287
  152SAPE  H11X16897   3.036   5.689   7.755 -0.1589 -0.8207 -0.3678
  152SAPE  H11Y16898   2.931   5.791   7.649 -1.4735 -0.7052  0.9070
  152SAPE  C31216899   3.143   5.811   7.605  0.8063  0.1232  0.5582
  152SAPE  H12X16900   3.132   5.830   7.496  0.8523 -3.8354 -0.2150
  152SAPE  H12Y16901   3.237   5.760   7.636  0.3710  0.9296  3.2887
  152SAPE  C31316902   3.149   5.945   7.672  0.0671 -0.5319  0.5665
  152SAPE  H13X16903   3.050   5.995   7.663  0.0519 -0.5967  0.3699
  152SAPE  H13Y16904   3.216   6.011   7.613 -0.0763 -1.0354 -0.1756
  152SAPE  C31416905   3.172   5.926   7.821 -0.5676 -0.1890  0.2832
  152SAPE  H14X16906   3.259   5.860   7.844 -0.0598 -0.3760 -1.9948
  152SAPE  H14Y16907   3.087   5.876   7.871 -0.5103 -0.3997  0.1731
  152SAPE  C31516908   3.207   6.060   7.884  0.3361 -0.0518 -0.0378
  152SAPE  H15X16909   3.116   6.123   7.894  0.3200  0.2999 -2.2685
  152SAPE  H15Y16910   3.277   6.111   7.816  1.1787 -2.2776 -0.9022
  152SAPE  C31616911   3.246   6.056   8.025 -0.5753 -0.1840 -0.6247
  152SAPE  H16X16912   3.180   5.992   8.088  2.5490 -0.0717  2.9592
  152SAPE  H16Y16913   3.260   6.154   8.076  2.0911 -0.5948 -0.5041
  152SAPE  C31716914   3.384   5.988   8.051  0.3258  0.3382 -0.2950
  152SAPE  H17X16915   3.455   6.047   7.989 -0.0879  0.8475 -0.2854
  152SAPE  H17Y16916   3.388   5.880   8.022  0.4406  0.4844 -0.8408
  152SAPE  C31816917   3.416   5.985   8.205  1.2842  0.9163 -0.2199
  152SAPE  H18X16918   3.401   6.090   8.236 -0.0321  0.8365 -0.5506
  152SAPE  H18Y16919   3.517   5.942   8.224  1.1369  1.1597  1.2174
  152SAPE  H18Z16920   3.339   5.926   8.260  0.5863 -0.3511 -2.4974
  153SAPE     N16921   5.984   6.783   6.249  0.2959  0.0941  0.9549
  153SAPE   HN116922   6.013   6.700   6.194  1.0160  1.5644 -0.9841
  153SAPE   HN216923   5.894   6.814   6.208  0.2866 -1.4477 -0.2125
  153SAPE   HN316924   6.061   6.852   6.234  1.6602 -1.5164  0.4873
  153SAPE   C1216925   5.972   6.737   6.390 -0.4041 -0.6937  0.0009
  153SAPE  H12A16926   5.910   6.645   6.392  1.1494 -1.7768 -0.9993
  153SAPE  H12B16927   5.912   6.817   6.439  0.6653  0.9424 -1.2963
  153SAPE   C1116928   6.109   6.720   6.474 -0.0794 -0.6254 -0.8929
  153SAPE  H11A16929   6.098   6.635   6.544  0.4830 -1.5163 -1.8683
  153SAPE  H11B16930   6.108   6.815   6.531 -0.9461 -1.5968  0.7711
  153SAPE     P16931   6.371   6.739   6.408  0.5900  0.3727  0.0091
  153SAPE   O1316932   6.457   6.631   6.364 -0.6044  0.6651 -0.0795
  153SAPE   O1416933   6.391   6.874   6.351  1.0252  0.4441  0.3271
  153SAPE   O1216934   6.219   6.701   6.386 -0.3143  0.0376  0.1330
  153SAPE   O1116935   6.379   6.756   6.569  0.2198  0.4066  0.0320
  153SAPE    C116936   6.378   6.632   6.641 -0.1642 -0.0046  0.0811
  153SAPE    HA16937   6.353   6.661   6.746  0.5843 -0.4763  0.3936
  153SAPE    HB16938   6.294   6.565   6.617  0.1709 -0.6512  0.6943
  153SAPE    C216939   6.509   6.563   6.656 -0.2047  0.2807  0.3436
  153SAPE    HS16940   6.519   6.494   6.570  2.1856  0.8649  0.1096
  153SAPE   O2116941   6.503   6.483   6.772 -0.3577 -0.3550 -0.3020
  153SAPE   C2116942   6.606   6.397   6.784 -0.9077  0.7827 -0.4518
  153SAPE   O2216943   6.676   6.363   6.691  0.5500  0.8434 -0.4708
  153SAPE   C2216944   6.627   6.362   6.932  0.2392  0.3980  0.3629
  153SAPE   H2R16945   6.596   6.260   6.960  1.1390  0.2737  0.9174
  153SAPE   H2S16946   6.736   6.369   6.953  0.1461  2.3146  0.3247
  153SAPE    C316947   6.629   6.663   6.673  0.5532  0.0859  0.6586
  153SAPE    HX16948   6.633   6.711   6.573 -2.7874 -3.2981 -1.2265
  153SAPE    HY16949   6.723   6.606   6.691 -1.2400 -2.7807  1.3315
  153SAPE   O3116950   6.601   6.749   6.782 -0.6766 -0.4611  0.2594
  153SAPE   C3116951   6.663   6.861   6.778  0.4401  0.5479  0.3803
  153SAPE   O3216952   6.762   6.885   6.707 -0.4306  0.8172 -0.1003
  153SAPE   C3216953   6.592   6.964   6.862  0.1945  0.1744  0.3405
  153SAPE   H2X16954   6.488   6.944   6.828  0.5768  3.6992 -3.2292
  153SAPE   H2Y16955   6.617   7.064   6.820 -0.9770 -0.5463 -2.2116
  153SAPE   C2316956   6.572   6.461   7.034 -0.4977  0.7861  0.3200
  153SAPE   H3R16957   6.461   6.453   7.038 -0.4768  1.2850  2.1407
  153SAPE   H3S16958   6.577   6.565   6.995  2.4302 -0.0748 -1.7828
  153SAPE   C2416959   6.631   6.430   7.176  0.3949 -0.4997  0.0172
  153SAPE   H4R16960   6.741   6.419   7.165  0.4871 -0.3923  0.8170
  153SAPE   H4S16961   6.585   6.334   7.207 -2.0895  0.4863 -0.4689
  153SAPE   C2516962   6.596   6.553   7.260  0.0600 -0.8022 -0.5478
  153SAPE   H5R16963   6.595   6.648   7.204  0.1648  0.0947  0.9370
  153SAPE   C2616964   6.588   6.564   7.390  0.6857 -0.3510  0.1837
  153SAPE   H6R16965   6.581   6.669   7.420 -3.2533  0.0965 -2.0477
  153SAPE   C2716966   6.610   6.453   7.492 -0.4485  0.3083  0.2381
  153SAPE   H7R16967   6.650   6.371   7.428  2.6574  1.2441  0.8563
  153SAPE   H7S16968   6.514   6.427   7.539 -0.2442 -0.5337  0.1912
  153SAPE   C2816969   6.701   6.479   7.614  0.1230 -0.5049  0.3188
  153SAPE   H8R16970   6.788   6.539   7.585  0.3904 -0.8118  0.4805
  153SAPE   C2916971   6.696   6.430   7.739  0.2612 -0.7171  0.7016
  153SAPE   H9R16972   6.785   6.454   7.799  0.1901 -0.0392  0.5414
  153SAPE  C21016973   6.594   6.329   7.797 -0.1173 -0.3535 -0.4751
  153SAPE  H10R16974   6.490   6.342   7.760  0.6334 -0.9926 -2.9257
  153SAPE  H10S16975   6.595   6.336   7.908  0.8069 -2.9345 -0.2786
  153SAPE  C21116976   6.642   6.191   7.750  0.4024  0.5688  0.0908
  153SAPE  H11R16977   6.627   6.170   7.643  1.2315 -0.0311  0.0883
  153SAPE  C21216978   6.699   6.098   7.825  0.1056  0.1258 -0.3881
  153SAPE  H12R16979   6.726   6.002   7.780 -0.1441 -0.8327  1.4653
  153SAPE  C21316980   6.718   6.113   7.975 -0.3813 -0.3704 -0.3760
  153SAPE  H13R16981   6.732   6.015   8.025 -1.2548 -0.8021 -0.9688
  153SAPE  H13S16982   6.622   6.141   8.022 -1.1612 -4.0125  0.3208
  153SAPE  C21416983   6.841   6.198   8.021  0.0833 -0.3890 -0.9910
  153SAPE  H14R16984   6.891   6.253   7.940 -1.9898 -0.9956 -2.7226
  153SAPE  C21516985   6.897   6.211   8.147 -0.1743  0.4005  0.1097
  153SAPE  H15R16986   6.979   6.283   8.160 -0.5177  1.2305 -2.1302
  153SAPE  C21616987   6.861   6.146   8.276  0.2597 -0.1600 -0.5745
  153SAPE  H16R16988   6.952   6.104   8.326 -0.0205  1.8817  1.7322
  153SAPE  H16S16989   6.791   6.065   8.245 -0.0587  0.2380 -0.8978
  153SAPE  C21716990   6.789   6.246   8.362  0.8467 -0.2425  0.5181
  153SAPE  H17R16991   6.698   6.282   8.311  1.3360  2.1651  1.3105
  153SAPE  H17S16992   6.854   6.334   8.382  2.0721 -1.3115  1.3504
  153SAPE  C21816993   6.737   6.188   8.494  0.6539 -0.2774  0.4254
  153SAPE  H18R16994   6.677   6.272   8.535 -3.0336 -2.2444 -0.6442
  153SAPE  H18S16995   6.823   6.168   8.561 -0.1661 -1.2277  1.1927
  153SAPE  C21916996   6.661   6.055   8.481 -0.0103 -0.5897  0.7545
  153SAPE  H19R16997   6.730   5.975   8.446 -0.1294 -0.1798 -0.4256
  153SAPE  H19S16998   6.593   6.065   8.394  0.8576  1.4914  0.3101
  153SAPE  C22016999   6.600   6.007   8.616 -0.1283 -0.2595  0.1864
  153SAPE  H20R17000   6.692   6.003   8.677  0.2491  1.7924 -0.2332
  153SAPE  H20S17001   6.553   5.906   8.608 -1.4188  0.2209  1.3703
  153SAPE  H20T17002   6.522   6.074   8.658 -0.3406  1.6567 -3.0646
  153SAPE   C3317003   6.626   6.952   7.010 -0.2393 -0.2064 -0.0821
  153SAPE   H3X17004   6.590   6.858   7.057  1.1217 -1.0501 -0.6685
  153SAPE   H3Y17005   6.562   7.030   7.054 -0.4998 -0.9799  0.9277
  153SAPE   C3417006   6.778   6.968   7.034  0.0661 -0.4243  0.3565
  153SAPE   H4X17007   6.818   7.032   6.952 -1.1333  0.1665  0.2288
  153SAPE   H4Y17008   6.828   6.872   7.006 -0.2297 -0.9012  1.4411
  153SAPE   C3517009   6.816   7.020   7.165  0.9336  0.3608  0.2821
  153SAPE   H5X17010   6.770   7.121   7.171  0.1631  0.1286 -1.5010
  153SAPE   H5Y17011   6.925   7.038   7.178  0.8316 -0.0582  1.9222
  153SAPE   C3617012   6.769   6.930   7.284 -0.1158 -0.2446 -0.0799
  153SAPE   H6X17013   6.795   6.822   7.276  1.4254  0.0757  0.3094
  153SAPE   H6Y17014   6.658   6.930   7.287 -0.0811 -1.1235  2.6831
  153SAPE   C3717015   6.838   6.973   7.417  0.1187 -0.2122  0.6742
  153SAPE   H7X17016   6.870   7.079   7.411 -2.0518  0.5592  1.8780
  153SAPE   H7Y17017   6.926   6.913   7.445 -0.9817 -1.0501  2.4439
  153SAPE   C3817018   6.732   6.974   7.539  0.2117 -1.0203 -0.4097
  153SAPE   H8X17019   6.703   6.874   7.576  2.1912 -1.8555 -1.0854
  153SAPE   H8Y17020   6.647   7.037   7.504  1.3768  1.4404  1.0209
  153SAPE   C3917021   6.798   7.039   7.669  0.5906 -0.6715  1.3701
  153SAPE   H9X17022   6.847   7.135   7.647 -0.0378 -0.5248  0.6033
  153SAPE   H9Y17023   6.879   6.971   7.703  1.1085  0.4939  2.4790
  153SAPE  C31017024   6.712   7.060   7.790 -0.3874 -0.0318 -0.1514
  153SAPE  H10X17025   6.667   6.962   7.819  1.0806 -0.6506  0.0817
  153SAPE  H10Y17026   6.626   7.128   7.776 -0.8489 -0.0153  2.3997
  153SAPE  C31117027   6.796   7.088   7.919  0.4567 -0.2455 -0.1119
  153SAPE  H11X17028   6.854   6.996   7.942 -0.0481 -0.6367 -0.4056
  153SAPE  H11Y17029   6.723   7.117   7.998  0.2586  1.3344 -0.8571
  153SAPE  C31217030   6.906   7.198   7.906  0.5336 -0.4843  0.4374
  153SAPE  H12X17031   6.855   7.293   7.880  0.5384 -0.7944 -0.6970
  153SAPE  H12Y17032   6.967   7.173   7.817  2.1989  1.5683  0.9573
  153SAPE  C31317033   6.995   7.208   8.021  0.3055  0.4884  0.2062
  153SAPE  H13X17034   7.015   7.108   8.064  0.0016  0.1025 -0.5412
  153SAPE  H13Y17035   6.948   7.262   8.107  0.2010 -1.4274  1.3941
  153SAPE  C31417036   7.141   7.255   7.994  0.0038  0.3271  1.2250
  153SAPE  H14X17037   7.139   7.359   7.954 -1.9481 -1.0790 -2.5582
  153SAPE  H14Y17038   7.182   7.196   7.909 -1.3204  1.3647 -0.1583
  153SAPE  C31517039   7.238   7.246   8.109 -0.3495  0.3434 -0.5128
  153SAPE  H15X17040   7.184   7.294   8.193  0.7277  1.9013 -0.6851
  153SAPE  H15Y17041   7.325   7.313   8.095  0.1892 -0.1454  0.4127
  153SAPE  C31617042   7.276   7.097   8.137 -0.7059  0.2386  0.1641
  153SAPE  H16X17043   7.305   7.073   8.033 -0.4587  2.3652 -0.2901
  153SAPE  H16Y17044   7.185   7.038   8.162 -0.5659  0.2757  0.7801
  153SAPE  C31717045   7.383   7.097   8.246  0.6299 -0.6358  0.1186
  153SAPE  H17X17046   7.335   7.131   8.341 -0.6382  1.0869 -1.1030
  153SAPE  H17Y17047   7.458   7.177   8.227 -1.7150  1.2766 -1.4407
  153SAPE  C31817048   7.436   6.952   8.266  0.6107  0.2686 -0.1459
  153SAPE  H18X17049   7.362   6.878   8.231  1.7384 -0.7013 -0.5003
  153SAPE  H18Y17050   7.474   6.926   8.367 -0.7881 -3.5814 -0.5384
  153SAPE  H18Z17051   7.525   6.950   8.200 -1.2073 -3.1104 -2.6675
  154SAPE     N17052   4.253   5.565   6.081 -0.3976 -0.3006  0.3277
  154SAPE   HN117053   4.234   5.557   6.183 -0.8368 -1.2531  0.1833
  154SAPE   HN217054   4.271   5.470   6.043  0.8605  1.4978 -3.8597
  154SAPE   HN317055   4.324   5.636   6.056 -0.0985 -0.2345  1.3548
  154SAPE   C1217056   4.129   5.630   6.029  0.2997  0.0687  0.3024
  154SAPE  H12A17057   4.033   5.584   6.059 -0.2680  1.1560  0.1993
  154SAPE  H12B17058   4.151   5.650   5.922  2.1947 -0.3872  0.5842
  154SAPE   C1117059   4.116   5.777   6.085 -0.1646  0.7242  0.5290
  154SAPE  H11A17060   4.117   5.774   6.196  0.8721 -1.2046  0.4936
  154SAPE  H11B17061   4.014   5.807   6.053 -0.5957 -0.2093  0.9904
  154SAPE     P17062   4.287   5.985   6.096  0.0654 -0.4120 -0.4307
  154SAPE   O1317063   4.428   5.965   6.067  0.2661 -0.2599 -0.0502
  154SAPE   O1417064   4.220   6.117   6.064 -0.0749  0.3564 -0.4522
  154SAPE   O1217065   4.208   5.866   6.021 -0.0016  0.2809 -0.7338
  154SAPE   O1117066   4.250   5.947   6.242  0.3889 -0.1696  0.5736
  154SAPE    C117067   4.347   5.917   6.345 -0.8193  0.4427  0.6736
  154SAPE    HA17068   4.318   5.820   6.392 -2.1157 -0.0550 -1.0873
  154SAPE    HB17069   4.450   5.908   6.307 -1.5732 -1.4959 -1.0158
  154SAPE    C217070   4.364   6.033   6.454  0.3223 -0.0022  0.3911
  154SAPE    HS17071   4.390   6.129   6.404 -1.0453 -0.2271 -0.7947
  154SAPE   O2117072   4.478   6.005   6.542 -0.1707  0.3226  0.3747
  154SAPE   C2117073   4.506   6.095   6.632 -0.5018 -0.0776 -0.5777
  154SAPE   O2217074   4.451   6.207   6.650  0.5015  0.2499  0.1861
  154SAPE   C2217075   4.630   6.059   6.709  0.0275  0.4781 -0.6290
  154SAPE   H2R17076   4.624   5.956   6.749 -0.8373  1.1124  0.9277
  154SAPE   H2S17077   4.718   6.077   6.644  1.6730  1.7212  1.8563
  154SAPE    C317078   4.234   6.053   6.535 -0.2426 -1.0852 -0.4181
  154SAPE    HX17079   4.155   6.055   6.457  0.1625 -0.2678 -0.8134
  154SAPE    HY17080   4.226   6.151   6.586  0.8193 -0.2543 -1.8194
  154SAPE   O3117081   4.212   5.937   6.618  0.9335 -0.3273 -0.6611
  154SAPE   C3117082   4.220   5.953   6.747  0.1887  0.9526 -0.2854
  154SAPE   O3217083   4.247   6.060   6.801 -0.0650  0.1791 -0.2056
  154SAPE   C3217084   4.201   5.811   6.824  0.4392  0.4230 -0.1434
  154SAPE   H2X17085   4.287   5.747   6.797  0.6962  1.1179 -0.9855
  154SAPE   H2Y17086   4.114   5.754   6.783  0.0025  0.0685  1.2482
  154SAPE   C2317087   4.648   6.144   6.835  0.3211  0.3792  0.4253
  154SAPE   H3R17088   4.617   6.249   6.814 -2.3311 -0.8198 -1.9030
  154SAPE   H3S17089   4.752   6.142   6.874  0.3003  0.2598  0.4770
  154SAPE   C2417090   4.548   6.102   6.944  0.6544  0.2483 -0.8939
  154SAPE   H4R17091   4.569   6.002   6.988  0.9182  0.3512 -0.7837
  154SAPE   H4S17092   4.453   6.098   6.887  0.0020  0.2122  0.1754
  154SAPE   C2517093   4.525   6.210   7.055 -0.1415 -0.0905  0.5631
  154SAPE   H5R17094   4.481   6.305   7.021  0.4023  0.2035  0.6711
  154SAPE   C2617095   4.544   6.206   7.192 -0.3747 -0.0602 -0.0945
  154SAPE   H6R17096   4.517   6.292   7.254 -1.3190 -1.0321  0.8749
  154SAPE   C2717097   4.605   6.088   7.259  0.0430  0.0776  0.7058
  154SAPE   H7R17098   4.681   6.117   7.334 -1.2594  2.9942  0.9596
  154SAPE   H7S17099   4.661   6.030   7.182  0.2736  1.5929 -0.3001
  154SAPE   C2817100   4.502   5.993   7.308 -0.1645 -0.0466 -0.4311
  154SAPE   H8R17101   4.450   5.929   7.235  0.3575 -0.0514 -0.7981
  154SAPE   C2917102   4.458   5.969   7.433 -0.3170  0.6381  0.6376
  154SAPE   H9R17103   4.402   5.876   7.446 -0.1840  0.2209 -1.5315
  154SAPE  C21017104   4.498   6.031   7.562 -0.3216 -0.4270  0.4581
  154SAPE  H10R17105   4.592   5.976   7.584 -1.0224 -1.8710 -0.1565
  154SAPE  H10S17106   4.426   5.996   7.638  3.2526 -0.4504  3.9699
  154SAPE  C21117107   4.512   6.181   7.569  0.1959 -0.1083 -0.1803
  154SAPE  H11R17108   4.478   6.243   7.484  1.8995  1.3841  0.1980
  154SAPE  C21217109   4.539   6.234   7.691 -0.4696 -0.4478 -0.1286
  154SAPE  H12R17110   4.555   6.343   7.694 -2.3977 -0.1765  0.8296
  154SAPE  C21317111   4.574   6.165   7.820  0.6189 -0.0889  0.2672
  154SAPE  H13R17112   4.648   6.232   7.868  0.1009 -0.5148  1.6841
  154SAPE  H13S17113   4.621   6.066   7.807  1.8190  0.5035  0.0459
  154SAPE  C21417114   4.455   6.159   7.910  0.1001  1.4011 -0.1965
  154SAPE  H14R17115   4.383   6.243   7.909  0.8758  2.1377 -3.5712
  154SAPE  C21517116   4.424   6.049   7.981  0.4698  0.1043  0.0028
  154SAPE  H15R17117   4.328   6.055   8.034  0.2875  3.4276 -0.5909
  154SAPE  C21617118   4.489   5.912   8.003  0.8788 -0.1221 -0.1827
  154SAPE  H16R17119   4.524   5.878   7.903  1.4582 -1.8155  0.5780
  154SAPE  H16S17120   4.408   5.844   8.037 -0.7223  1.5334 -0.6117
  154SAPE  C21717121   4.611   5.917   8.091  0.1678  0.0846  0.8091
  154SAPE  H17R17122   4.676   5.999   8.052 -2.1755  2.1020  1.0622
  154SAPE  H17S17123   4.671   5.824   8.080  1.2442  0.9212 -0.5020
  154SAPE  C21817124   4.577   5.941   8.243  0.5918 -0.3309  0.4349
  154SAPE  H18R17125   4.482   5.888   8.266  0.4454 -1.0551 -1.7801
  154SAPE  H18S17126   4.547   6.046   8.261 -1.0253 -0.7551  0.2740
  154SAPE  C21917127   4.688   5.905   8.346  0.4013 -0.0584  0.3284
  154SAPE  H19R17128   4.745   5.996   8.376  0.3204  0.4928 -1.1168
  154SAPE  H19S17129   4.754   5.825   8.306 -0.7429 -1.0027  0.3274
  154SAPE  C22017130   4.615   5.856   8.477  0.1806  0.1853 -0.1583
  154SAPE  H20R17131   4.539   5.933   8.499 -0.2561  0.2857 -1.9575
  154SAPE  H20S17132   4.689   5.846   8.560  0.5000  2.5284 -0.1386
  154SAPE  H20T17133   4.569   5.755   8.466  0.0021  0.3847 -1.3021
  154SAPE   C3317134   4.176   5.816   6.975  0.1208  0.1804 -0.0270
  154SAPE   H3X17135   4.092   5.883   7.003 -0.9381  0.6931 -4.0466
  154SAPE   H3Y17136   4.246   5.883   7.029 -2.3409  0.9677  2.2972
  154SAPE   C3417137   4.159   5.686   7.044  0.6063  0.2890 -0.0548
  154SAPE   H4X17138   4.257   5.635   7.057  1.9308  2.6659 -0.4376
  154SAPE   H4Y17139   4.101   5.618   6.978  0.6386  0.6904 -0.5017
  154SAPE   C3517140   4.082   5.697   7.169  0.7894 -0.4200 -0.0744
  154SAPE   H5X17141   3.978   5.711   7.130  0.2074  1.8697  2.2220
  154SAPE   H5Y17142   4.108   5.790   7.224 -3.2901  2.8457 -3.2686
  154SAPE   C3617143   4.095   5.589   7.274 -0.1575 -1.1150 -0.5737
  154SAPE   H6X17144   4.196   5.608   7.315 -0.8097  0.8474  0.2240
  154SAPE   H6Y17145   4.101   5.485   7.235  1.8529 -1.0794 -0.4218
  154SAPE   C3717146   3.994   5.601   7.390  0.5752 -0.4224 -0.2684
  154SAPE   H7X17147   3.928   5.512   7.388 -1.0337  0.6984  1.5744
  154SAPE   H7Y17148   3.923   5.685   7.376 -1.6129 -1.9501  1.3338
  154SAPE   C3817149   4.048   5.605   7.533  0.0813 -0.3988 -0.4116
  154SAPE   H8X17150   4.094   5.506   7.553  0.8779 -0.2908 -1.6447
  154SAPE   H8Y17151   3.963   5.605   7.604  0.8988 -0.1015  0.5698
  154SAPE   C3917152   4.149   5.714   7.568  0.7915  0.4880  0.0843
  154SAPE   H9X17153   4.096   5.806   7.532 -2.5768 -1.1439  0.6802
  154SAPE   H9Y17154   4.244   5.703   7.511 -0.0221  1.3707 -1.4848
  154SAPE  C31017155   4.189   5.728   7.717  0.6256 -0.4356  0.2983
  154SAPE  H10X17156   4.098   5.755   7.775  0.1309  0.5997 -0.9283
  154SAPE  H10Y17157   4.267   5.807   7.720  1.6213 -1.4373  0.9222
  154SAPE  C31117158   4.249   5.594   7.772  0.0843  0.4279 -0.2496
  154SAPE  H11X17159   4.306   5.543   7.691 -0.7027  0.1532 -0.6383
  154SAPE  H11Y17160   4.166   5.534   7.816 -1.3057  1.8467 -0.8653
  154SAPE  C31217161   4.359   5.616   7.866  0.1068 -0.8288 -0.3775
  154SAPE  H12X17162   4.341   5.712   7.918  0.2158 -0.6579 -0.6588
  154SAPE  H12Y17163   4.450   5.635   7.805  0.1369  0.3826  0.0422
  154SAPE  C31317164   4.372   5.511   7.975  0.8197  0.1804  0.0667
  154SAPE  H13X17165   4.375   5.410   7.929 -0.6060  0.1363  0.0373
  154SAPE  H13Y17166   4.279   5.517   8.036  0.2689 -2.5441 -0.4195
  154SAPE  C31417167   4.494   5.532   8.063 -0.0426  0.4359  0.3611
  154SAPE  H14X17168   4.509   5.640   8.085  1.5248  0.1552  0.7509
  154SAPE  H14Y17169   4.588   5.515   8.007  0.0423  1.4743  0.1863
  154SAPE  C31517170   4.489   5.440   8.182 -0.1567  0.2601 -0.3427
  154SAPE  H15X17171   4.504   5.337   8.144  3.7713  0.2804  0.9536
  154SAPE  H15Y17172   4.391   5.441   8.235  0.6719  2.9743  1.2245
  154SAPE  C31617173   4.600   5.467   8.287  0.2423  0.5808 -0.3549
  154SAPE  H16X17174   4.590   5.565   8.339  0.0136  1.1120 -1.3787
  154SAPE  H16Y17175   4.701   5.463   8.241  1.0338 -2.4882  1.5171
  154SAPE  C31717176   4.595   5.364   8.400  0.1110 -0.0853  0.0989
  154SAPE  H17X17177   4.537   5.275   8.365 -1.4286  0.8663  0.2006
  154SAPE  H17Y17178   4.535   5.415   8.479 -0.8024 -1.1876  0.1330
  154SAPE  C31817179   4.734   5.317   8.439  0.3123 -0.7221 -0.6363
  154SAPE  H18X17180   4.739   5.252   8.529 -1.5831 -0.3956 -0.2825
  154SAPE  H18Y17181   4.791   5.406   8.472  0.9788 -1.3284 -0.1380
  154SAPE  H18Z17182   4.782   5.264   8.353  1.8657 -1.7921  0.8502
  155SAPE     N17183   3.912   6.755   6.188  0.2939 -0.2362 -0.4569
  155SAPE   HN117184   3.971   6.817   6.129  0.3261 -0.7184 -0.9414
  155SAPE   HN217185   3.942   6.662   6.152  0.0624 -0.4693 -0.0553
  155SAPE   HN317186   3.814   6.780   6.163  0.2768  0.0289 -0.1200
  155SAPE   C1217187   3.931   6.756   6.338 -0.4736 -0.4439 -0.0099
  155SAPE  H12A17188   4.039   6.736   6.354 -0.6774 -1.8875 -0.3206
  155SAPE  H12B17189   3.865   6.674   6.374  0.4287 -0.5049  1.5444
  155SAPE   C1117190   3.884   6.891   6.398 -0.0711  0.0046  0.1821
  155SAPE  H11A17191   3.907   6.884   6.507 -2.4945  2.7894  0.9351
  155SAPE  H11B17192   3.776   6.909   6.385 -0.1818  0.4977  1.6287
  155SAPE     P17193   4.067   7.087   6.399  0.2193  0.0001 -0.3758
  155SAPE   O1317194   4.190   7.007   6.397  0.3449  0.0121 -0.3484
  155SAPE   O1417195   4.071   7.228   6.338  0.4229 -0.2610  0.0491
  155SAPE   O1217196   3.953   7.001   6.336  0.5572  0.4688  0.1680
  155SAPE   O1117197   4.008   7.099   6.544  0.2747 -0.3114 -0.4436
  155SAPE    C117198   4.008   7.226   6.613 -0.2539  0.3223 -0.1896
  155SAPE    HA17199   4.013   7.308   6.538 -0.0349 -0.7219 -1.3444
  155SAPE    HB17200   3.906   7.229   6.656 -0.1804 -1.9001  0.1698
  155SAPE    C217201   4.113   7.234   6.722  0.5412  0.0772 -0.0335
  155SAPE    HS17202   4.207   7.254   6.667  0.7242  0.8916  0.5630
  155SAPE   O2117203   4.109   7.109   6.792  0.1823  0.8659  0.1474
  155SAPE   C2117204   4.217   7.047   6.804  0.1434 -0.2795  0.3120
  155SAPE   O2217205   4.321   7.078   6.748  0.9103 -0.2590 -0.0872
  155SAPE   C2217206   4.188   6.921   6.886  0.2492 -0.9442 -0.5394
  155SAPE   H2R17207   4.168   6.957   6.990 -1.6547 -0.6434 -0.9813
  155SAPE   H2S17208   4.092   6.873   6.858 -0.9835  0.1501  1.5905
  155SAPE    C317209   4.098   7.356   6.818 -0.3772 -0.1180 -0.5835
  155SAPE    HX17210   3.993   7.351   6.852 -0.7595  0.3635 -1.6789
  155SAPE    HY17211   4.102   7.458   6.776  1.1959 -0.3832 -1.1358
  155SAPE   O3117212   4.193   7.354   6.927 -0.7932 -0.2147 -0.1939
  155SAPE   C3117213   4.131   7.367   7.044  0.0691  0.8194  0.3760
  155SAPE   O3217214   4.016   7.405   7.065 -0.0781  0.5091  0.0916
  155SAPE   C3217215   4.229   7.328   7.152 -0.2676 -0.7141 -0.0685
  155SAPE   H2X17216   4.174   7.324   7.248  1.5616 -0.1943  1.0254
  155SAPE   H2Y17217   4.301   7.412   7.144 -2.6781  1.4405  0.2262
  155SAPE   C2317218   4.302   6.820   6.886 -0.2613 -0.3289 -0.3291
  155SAPE   H3R17219   4.398   6.875   6.881 -1.4196  1.6779 -0.9956
  155SAPE   H3S17220   4.285   6.757   6.796 -4.3421  2.4456 -1.6493
  155SAPE   C2417221   4.301   6.739   7.018 -0.2670 -0.4198  0.2992
  155SAPE   H4R17222   4.206   6.683   7.029  0.6675 -2.1962 -0.5140
  155SAPE   H4S17223   4.314   6.808   7.104  0.2982 -0.0770 -0.0542
  155SAPE   C2517224   4.416   6.642   7.020  0.9806  0.1141 -0.1300
  155SAPE   H5R17225   4.438   6.597   6.922  1.6497 -0.9834  0.5223
  155SAPE   C2617226   4.490   6.595   7.121 -0.4758  0.1036 -0.1980
  155SAPE   H6R17227   4.570   6.525   7.092 -1.6847 -1.4750  0.2272
  155SAPE   C2717228   4.486   6.630   7.260 -0.2558 -0.2403  0.7531
  155SAPE   H7R17229   4.458   6.736   7.274 -0.7889  0.0950 -2.5304
  155SAPE   H7S17230   4.585   6.610   7.306  0.2813 -2.6146 -1.3216
  155SAPE   C2817231   4.383   6.538   7.328 -0.1300 -0.2011 -0.1453
  155SAPE   H8R17232   4.323   6.465   7.271 -0.1935 -1.0483  0.9804
  155SAPE   C2917233   4.372   6.530   7.463  0.7172  0.2068 -0.1098
  155SAPE   H9R17234   4.320   6.445   7.508 -0.0017  0.0989 -1.1281
  155SAPE  C21017235   4.454   6.598   7.572 -0.5978  0.0811 -0.1158
  155SAPE  H10R17236   4.499   6.694   7.538 -0.5319 -0.5301 -1.7789
  155SAPE  H10S17237   4.536   6.536   7.614 -1.0230  0.0898  0.7521
  155SAPE  C21117238   4.360   6.639   7.680  0.3772 -0.1014  0.7172
  155SAPE  H11R17239   4.263   6.681   7.652  0.4728 -0.8243 -0.7697
  155SAPE  C21217240   4.380   6.621   7.815 -0.7100  0.0075  0.3224
  155SAPE  H12R17241   4.300   6.642   7.888 -0.0681 -4.8035  2.6002
  155SAPE  C21317242   4.500   6.567   7.890 -0.4303  0.6129 -0.0147
  155SAPE  H13R17243   4.582   6.524   7.829 -2.4956 -0.8230 -1.8832
  155SAPE  H13S17244   4.470   6.491   7.965  0.6286  1.4804  1.3018
  155SAPE  C21417245   4.574   6.681   7.957  0.0130 -0.0539 -0.7742
  155SAPE  H14R17246   4.558   6.776   7.904 -0.2838 -1.8780 -4.1049
  155SAPE  C21517247   4.636   6.681   8.073  0.2133  0.1360  0.2112
  155SAPE  H15R17248   4.675   6.778   8.106 -0.4772  0.8288 -1.0061
  155SAPE  C21617249   4.664   6.556   8.157 -0.2463  0.0117  0.3966
  155SAPE  H16R17250   4.772   6.552   8.184 -0.2142 -0.0406  0.2563
  155SAPE  H16S17251   4.645   6.460   8.106 -0.7008  0.0552  0.4816
  155SAPE  C21717252   4.578   6.541   8.282 -0.3406  0.7925  0.3728
  155SAPE  H17R17253   4.471   6.524   8.255 -0.2840 -1.7812  1.6376
  155SAPE  H17S17254   4.583   6.630   8.348  0.5020  0.2397  1.0729
  155SAPE  C21817255   4.615   6.416   8.364  0.1676  0.7554  0.6972
  155SAPE  H18R17256   4.716   6.422   8.410 -0.4623  1.3296  2.0410
  155SAPE  H18S17257   4.620   6.330   8.293 -0.2545  0.0482  1.5088
  155SAPE  C21917258   4.514   6.385   8.480  0.2310  0.2245  0.0910
  155SAPE  H19R17259   4.411   6.368   8.441 -0.0117 -0.6730  1.0784
  155SAPE  H19S17260   4.509   6.481   8.535 -1.1855  0.8706 -1.1290
  155SAPE  C22017261   4.555   6.267   8.568 -0.1290  0.5172 -0.7504
  155SAPE  H20R17262   4.500   6.285   8.663  1.7872  0.4365  0.4061
  155SAPE  H20S17263   4.664   6.278   8.587 -0.1859  0.4939 -0.4044
  155SAPE  H20T17264   4.534   6.170   8.519 -1.7797  1.0195 -1.0664
  155SAPE   C3317265   4.296   7.190   7.146  0.0951 -0.4580  0.2447
  155SAPE   H3X17266   4.325   7.163   7.042  0.7914  3.1435 -0.5417
  155SAPE   H3Y17267   4.219   7.114   7.172  0.8726 -1.2562  0.2270
  155SAPE   C3417268   4.426   7.188   7.225  0.6614 -0.3757 -0.3652
  155SAPE   H4X17269   4.495   7.271   7.199 -0.4187  0.8774  0.6513
  155SAPE   H4Y17270   4.469   7.085   7.226 -0.0788 -0.6900  0.9329
  155SAPE   C3517271   4.397   7.212   7.376  0.5070 -0.7098  0.5031
  155SAPE   H5X17272   4.299   7.165   7.400 -0.0928 -0.5530 -1.5130
  155SAPE   H5Y17273   4.379   7.321   7.386 -1.3221 -0.9313 -0.1105
  155SAPE   C3617274   4.507   7.154   7.465  0.3521 -0.0801 -0.4889
  155SAPE   H6X17275   4.600   7.194   7.418  1.2749  0.6746  1.9346
  155SAPE   H6Y17276   4.508   7.043   7.452  2.0061 -0.1482  0.1263
  155SAPE   C3717277   4.506   7.200   7.607  0.0722 -0.6859  0.3325
  155SAPE   H7X17278   4.527   7.309   7.602  0.1363 -0.7299 -0.3485
  155SAPE   H7Y17279   4.580   7.145   7.668 -0.2145 -1.5942 -0.1286
  155SAPE   C3817280   4.366   7.188   7.677 -0.2638 -0.2733  0.3003
  155SAPE   H8X17281   4.327   7.084   7.682  3.5775 -1.8299 -0.2198
  155SAPE   H8Y17282   4.288   7.230   7.610  0.4159 -0.2475 -0.4910
  155SAPE   C3917283   4.371   7.240   7.822  0.1659  0.4099  0.2759
  155SAPE   H9X17284   4.377   7.350   7.825  0.2631  0.3988  0.5204
  155SAPE   H9Y17285   4.447   7.199   7.893  0.7746 -0.2986 -0.7684
  155SAPE  C31017286   4.242   7.215   7.906 -0.0132 -0.2957 -0.4574
  155SAPE  H10X17287   4.226   7.105   7.909  0.7183 -0.3997 -0.2840
  155SAPE  H10Y17288   4.152   7.270   7.872 -0.1343 -1.4381 -1.9852
  155SAPE  C31117289   4.272   7.259   8.049 -0.1758 -0.0228  0.2761
  155SAPE  H11X17290   4.285   7.369   8.048 -2.0798  0.2194  0.1134
  155SAPE  H11Y17291   4.357   7.198   8.086  0.8041 -1.2721 -3.7640
  155SAPE  C31217292   4.154   7.220   8.137  0.9723  0.6549 -0.2967
  155SAPE  H12X17293   4.086   7.152   8.082  1.8990 -0.4373 -0.0948
  155SAPE  H12Y17294   4.096   7.314   8.151 -0.1251  0.3151 -2.3512
  155SAPE  C31317295   4.191   7.152   8.272 -0.1414 -0.4739 -0.1130
  155SAPE  H13X17296   4.285   7.201   8.305 -1.0706  1.1707  0.1330
  155SAPE  H13Y17297   4.213   7.043   8.263 -2.1984 -1.0663  1.6982
  155SAPE  C31417298   4.085   7.171   8.384 -1.2958  0.6900  0.6417
  155SAPE  H14X17299   3.991   7.126   8.347  0.4104 -2.7077  0.2149
  155SAPE  H14Y17300   4.077   7.280   8.403 -0.8567  0.6917  0.8373
  155SAPE  C31517301   4.117   7.109   8.514 -0.4666  1.0597  0.2764
  155SAPE  H15X17302   4.213   7.148   8.556 -0.5828 -0.7792  2.3281
  155SAPE  H15Y17303   4.142   7.002   8.504  2.9346  1.6024  2.1791
  155SAPE  C31617304   4.017   7.147   8.622  0.4681 -0.1860 -0.1653
  155SAPE  H16X17305   3.919   7.099   8.600 -0.3568  1.0750  0.7105
  155SAPE  H16Y17306   4.008   7.255   8.646 -1.5995 -0.4819  0.4967
  155SAPE  C31717307   4.057   7.094   8.759  0.3684 -0.1419  0.0212
  155SAPE  H17X17308   4.130   7.158   8.813  0.1978 -0.8498  1.1272
  155SAPE  H17Y17309   4.108   6.998   8.736 -0.5125 -0.3864 -0.9070
  155SAPE  C31817310   3.941   7.067   8.861 -0.1469 -0.5617  0.7540
  155SAPE  H18X17311   3.906   7.163   8.905 -2.0581 -0.9398  0.1191
  155SAPE  H18Y17312   3.990   7.016   8.947  1.1677 -1.2366 -0.3816
  155SAPE  H18Z17313   3.862   7.006   8.811 -0.7860  0.9364 -0.0721
  156SAPE     N17314   2.267   1.307   6.633 -0.6648 -0.1096  0.6414
  156SAPE   HN117315   2.249   1.319   6.735 -1.7276 -0.5368  0.5044
  156SAPE   HN217316   2.360   1.262   6.625  0.6509  2.0290  2.9712
  156SAPE   HN317317   2.262   1.402   6.591  2.0077 -0.2342 -0.0465
  156SAPE   C1217318   2.179   1.214   6.563 -0.4923  1.3172 -0.2783
  156SAPE  H12A17319   2.209   1.198   6.458  1.2756 -3.2412  0.8342
  156SAPE  H12B17320   2.073   1.250   6.563 -1.4207 -1.3287 -1.3859
  156SAPE   C1117321   2.184   1.070   6.638  0.0954  0.1497  0.6109
  156SAPE  H11A17322   2.135   1.092   6.735 -1.6436  0.4954 -0.3205
  156SAPE  H11B17323   2.289   1.037   6.646  0.6218  2.3876  3.7591
  156SAPE     P17324   2.138   0.863   6.487  0.1420  0.1202 -0.0731
  156SAPE   O1317325   2.031   0.850   6.384  0.5767  0.2294 -0.0903
  156SAPE   O1417326   2.271   0.887   6.430 -0.1078 -0.8625  0.5824
  156SAPE   O1217327   2.098   0.981   6.574 -0.1246  1.0154  0.5307
  156SAPE   O1117328   2.144   0.746   6.595  0.0449 -0.2012  0.4652
  156SAPE    C117329   2.028   0.705   6.674 -0.7074 -0.0212  0.3553
  156SAPE    HA17330   2.051   0.717   6.782  2.3726 -4.5243  0.2955
  156SAPE    HB17331   1.942   0.772   6.652  0.7113  2.0730  1.0319
  156SAPE    C217332   1.986   0.558   6.633  0.0554 -0.2511  0.2277
  156SAPE    HS17333   1.979   0.556   6.522  0.4071  2.1478  0.1246
  156SAPE   O2117334   1.856   0.532   6.679  0.7479  0.2771 -0.3487
  156SAPE   C2117335   1.785   0.430   6.614 -0.2360  0.1365 -0.5516
  156SAPE   O2217336   1.825   0.379   6.507 -0.1206  0.2535 -0.5641
  156SAPE   C2217337   1.661   0.403   6.690  0.3586 -0.2906 -0.3008
  156SAPE   H2R17338   1.650   0.482   6.768  3.4212  0.3915 -0.5013
  156SAPE   H2S17339   1.580   0.417   6.615  1.2730 -0.4992 -1.3328
  156SAPE    C317340   2.086   0.457   6.694  0.2938  0.1026  0.1046
  156SAPE    HX17341   2.180   0.483   6.641  0.9640  0.9104  1.6410
  156SAPE    HY17342   2.051   0.354   6.673  0.7293 -0.0714  0.2344
  156SAPE   O3117343   2.102   0.480   6.836  0.4265 -0.6101  0.0937
  156SAPE   C3117344   2.199   0.412   6.892  0.1268 -0.2960 -0.0182
  156SAPE   O3217345   2.264   0.328   6.837 -0.2648 -0.2760  0.0154
  156SAPE   C3217346   2.210   0.456   7.035  0.0122 -0.8752  0.0115
  156SAPE   H2X17347   2.109   0.453   7.081 -0.1080  2.4033  0.0962
  156SAPE   H2Y17348   2.245   0.561   7.029  0.2127 -0.9447 -0.0481
  156SAPE   C2317349   1.656   0.257   6.743  0.3046 -0.0030  0.2901
  156SAPE   H3R17350   1.676   0.194   6.653 -0.5089 -0.8208  0.6796
  156SAPE   H3S17351   1.550   0.233   6.765  0.1354  0.4964  0.0286
  156SAPE   C2417352   1.752   0.213   6.859  0.0139  0.0883 -0.2144
  156SAPE   H4R17353   1.846   0.259   6.821 -0.0523  1.0071  0.7076
  156SAPE   H4S17354   1.763   0.103   6.852  1.3715  0.2240 -0.3929
  156SAPE   C2517355   1.718   0.256   7.004  0.2353  0.1826 -0.5308
  156SAPE   H5R17356   1.644   0.193   7.056 -1.8293  2.2082 -0.9277
  156SAPE   C2617357   1.760   0.357   7.082  0.2157  0.4975  0.1807
  156SAPE   H6R17358   1.723   0.355   7.185 -2.1442  4.8220 -0.4811
  156SAPE   C2717359   1.860   0.468   7.045  0.3252  0.3653 -0.6217
  156SAPE   H7R17360   1.919   0.456   6.951  0.0404 -0.5855 -0.6865
  156SAPE   H7S17361   1.926   0.468   7.134  1.4262  2.1595 -1.3947
  156SAPE   C2817362   1.789   0.600   7.037 -0.0733  0.5418 -0.1003
  156SAPE   H8R17363   1.719   0.596   6.952  1.0407 -2.2533 -0.9368
  156SAPE   C2917364   1.814   0.715   7.100  0.6383  0.0515  1.0072
  156SAPE   H9R17365   1.751   0.803   7.080  1.7264  0.4566 -0.7470
  156SAPE  C21017366   1.916   0.726   7.214 -0.2163 -1.0620 -0.0749
  156SAPE  H10R17367   1.911   0.634   7.276 -1.9187 -0.2808  0.9796
  156SAPE  H10S17368   1.875   0.815   7.267  3.6751  0.4635  0.5184
  156SAPE  C21117369   2.062   0.753   7.184  0.2516  0.1015  0.2779
  156SAPE  H11R17370   2.096   0.731   7.082  0.9598 -0.9017  0.7239
  156SAPE  C21217371   2.152   0.805   7.272  0.1245  0.6020 -0.0749
  156SAPE  H12R17372   2.251   0.830   7.231 -0.3427  0.8056 -1.0890
  156SAPE  C21317373   2.132   0.851   7.417  0.2641 -0.4001  0.6994
  156SAPE  H13R17374   2.025   0.869   7.441 -0.1434 -1.8582  0.0415
  156SAPE  H13S17375   2.177   0.951   7.433  1.9823 -1.4078  2.2522
  156SAPE  C21417376   2.180   0.746   7.513 -0.5310 -0.3532  0.0733
  156SAPE  H14R17377   2.194   0.647   7.467  2.3841  0.7273 -1.5375
  156SAPE  C21517378   2.197   0.764   7.646  0.4738  0.5756  0.0476
  156SAPE  H15R17379   2.235   0.678   7.704 -2.8941 -1.3673 -0.5273
  156SAPE  C21617380   2.167   0.891   7.721  0.3606  0.3060 -0.1245
  156SAPE  H16R17381   2.062   0.879   7.755  1.5830 -2.9712  2.8435
  156SAPE  H16S17382   2.173   0.983   7.659 -0.2405  0.6049  0.2683
  156SAPE  C21717383   2.253   0.922   7.846 -0.5891 -0.6465  0.7110
  156SAPE  H17R17384   2.210   1.015   7.887 -1.9822 -0.4604 -1.1393
  156SAPE  H17S17385   2.361   0.938   7.824 -1.0955 -0.8521 -2.0716
  156SAPE  C21817386   2.263   0.806   7.958  0.4734 -0.5339  0.2271
  156SAPE  H18R17387   2.296   0.710   7.912  1.9791  0.4199 -0.7515
  156SAPE  H18S17388   2.160   0.790   7.995  0.2778  0.2518  0.0225
  156SAPE  C21917389   2.355   0.850   8.070  0.2063  0.3630 -0.1200
  156SAPE  H19R17390   2.318   0.945   8.114 -3.2446 -0.1967 -1.6280
  156SAPE  H19S17391   2.452   0.877   8.023  1.2927 -2.0332  0.6683
  156SAPE  C22017392   2.369   0.754   8.189  0.8626  0.2704  0.3082
  156SAPE  H20R17393   2.436   0.673   8.153  0.5243 -0.1245  0.5551
  156SAPE  H20S17394   2.273   0.707   8.220  0.5216  1.3596  0.9308
  156SAPE  H20T17395   2.415   0.805   8.276  1.5106  0.8114 -0.3446
  156SAPE   C3317396   2.313   0.369   7.106 -0.4308 -0.0280  0.2285
  156SAPE   H3X17397   2.412   0.396   7.063 -1.7708  2.0651 -1.6596
  156SAPE   H3Y17398   2.303   0.260   7.089  1.0126  0.3247 -3.3413
  156SAPE   C3417399   2.307   0.401   7.255 -0.5762 -1.2557 -0.2450
  156SAPE   H4X17400   2.199   0.393   7.282 -0.0296 -2.2235  1.7171
  156SAPE   H4Y17401   2.331   0.508   7.269  0.3086 -1.2448 -1.7169
  156SAPE   C3517402   2.401   0.319   7.344  0.4252 -0.3081  0.1927
  156SAPE   H5X17403   2.503   0.351   7.314  0.3591  0.6828  1.0092
  156SAPE   H5Y17404   2.391   0.209   7.328  0.7372 -0.4158  0.7201
  156SAPE   C3617405   2.377   0.345   7.489  0.3922 -0.6861 -0.1708
  156SAPE   H6X17406   2.330   0.445   7.499  0.3365 -0.7765  0.4984
  156SAPE   H6Y17407   2.468   0.379   7.544 -1.7049  1.3917  2.1260
  156SAPE   C3717408   2.305   0.236   7.569  0.1431  0.2025 -0.1993
  156SAPE   H7X17409   2.381   0.155   7.574  0.2543  0.3828  0.9317
  156SAPE   H7Y17410   2.219   0.192   7.514 -0.1778 -0.0136  0.4705
  156SAPE   C3817411   2.253   0.277   7.708 -0.1254 -0.2483  0.4593
  156SAPE   H8X17412   2.190   0.188   7.730 -0.7281  0.5656  2.1449
  156SAPE   H8Y17413   2.186   0.364   7.693  0.7242  0.0276 -2.0405
  156SAPE   C3917414   2.362   0.301   7.810 -0.6310 -0.9781  0.0741
  156SAPE   H9X17415   2.405   0.400   7.781 -0.4342 -0.5578  1.7281
  156SAPE   H9Y17416   2.440   0.222   7.808  2.3110  1.8144 -1.0776
  156SAPE  C31017417   2.314   0.320   7.954 -0.3344  0.3952 -0.5147
  156SAPE  H10X17418   2.385   0.384   8.011 -1.3683  0.0117  1.2339
  156SAPE  H10Y17419   2.316   0.219   8.001  0.9165 -0.8988 -3.2649
  156SAPE  C31117420   2.178   0.390   7.967  0.8009 -0.4866 -0.2168
  156SAPE  H11X17421   2.088   0.358   7.910  1.3328  1.2097 -2.0728
  156SAPE  H11Y17422   2.192   0.492   7.925  0.6511 -0.9015 -1.2651
  156SAPE  C31217423   2.142   0.412   8.117 -0.5126 -0.4467 -0.2421
  156SAPE  H12X17424   2.211   0.481   8.171 -1.1305  0.2436 -0.3231
  156SAPE  H12Y17425   2.144   0.316   8.171 -2.8112 -0.4063 -0.0153
  156SAPE  C31317426   1.998   0.471   8.135  0.1386  0.3177 -0.5149
  156SAPE  H13X17427   1.934   0.381   8.131 -2.0386  1.8706 -1.0281
  156SAPE  H13Y17428   1.975   0.537   8.049  1.1708 -0.2582 -1.2335
  156SAPE  C31417429   1.977   0.556   8.261 -0.2753 -0.6733  0.1978
  156SAPE  H14X17430   2.060   0.629   8.263 -1.5245  0.7548  1.1049
  156SAPE  H14Y17431   1.983   0.489   8.349  0.1284 -0.6363  0.1977
  156SAPE  C31517432   1.836   0.619   8.258  0.2828  0.1128 -0.3195
  156SAPE  H15X17433   1.768   0.533   8.244  1.4787 -1.2710  2.0868
  156SAPE  H15Y17434   1.836   0.685   8.168  3.8614  0.4932 -0.1008
  156SAPE  C31617435   1.784   0.708   8.374  0.3518 -0.3140 -0.7476
  156SAPE  H16X17436   1.839   0.804   8.390  0.0204 -0.1939 -0.3177
  156SAPE  H16Y17437   1.788   0.649   8.468 -2.9800 -0.4314 -0.6294
  156SAPE  C31717438   1.638   0.764   8.341  0.8968  0.4485  0.3798
  156SAPE  H17X17439   1.574   0.681   8.304 -1.0708  0.3585  3.7792
  156SAPE  H17Y17440   1.641   0.835   8.256 -1.0629  0.0705 -0.0184
  156SAPE  C31817441   1.567   0.827   8.455  0.6440 -0.3004  0.3653
  156SAPE  H18X17442   1.564   0.753   8.538  1.3597  0.6990  1.2861
  156SAPE  H18Y17443   1.469   0.861   8.417  0.3474  0.0346  1.4152
  156SAPE  H18Z17444   1.620   0.915   8.497  1.6207 -1.2495  1.1655
  157SAPE     N17445   5.726   2.776   6.417 -0.1373 -0.0163 -0.1998
  157SAPE   HN117446   5.746   2.786   6.519 -0.0682  0.1203 -0.2260
  157SAPE   HN217447   5.745   2.863   6.364 -0.6757 -0.8452 -1.7844
  157SAPE   HN317448   5.624   2.761   6.413 -0.0823 -0.5442  0.2666
  157SAPE   C1217449   5.798   2.652   6.371  0.3180 -0.1070  0.6831
  157SAPE  H12A17450   5.757   2.622   6.272  2.0209  1.6511 -0.5906
  157SAPE  H12B17451   5.774   2.577   6.449 -2.7300 -0.5241 -0.5883
  157SAPE   C1117452   5.953   2.677   6.356  0.3404 -0.7074  0.0105
  157SAPE  H11A17453   5.996   2.579   6.326  2.0882 -0.6017  2.0701
  157SAPE  H11B17454   6.003   2.693   6.454  1.0871 -0.1541 -0.4663
  157SAPE     P17455   6.021   2.928   6.297 -0.0241 -0.0079  0.3047
  157SAPE   O1317456   6.109   2.984   6.188  0.4572  0.1271  0.2360
  157SAPE   O1417457   5.906   3.010   6.324  0.2521 -0.0323 -0.0037
  157SAPE   O1217458   5.970   2.781   6.261 -0.2332  0.3197  0.1537
  157SAPE   O1117459   6.097   2.913   6.430 -0.4613 -0.2544 -0.6644
  157SAPE    C117460   6.229   2.856   6.438  0.5996  0.2641 -0.4707
  157SAPE    HA17461   6.258   2.800   6.347  0.5538 -0.0107 -0.3152
  157SAPE    HB17462   6.305   2.936   6.449  0.8890 -0.1058  0.1856
  157SAPE    C217463   6.234   2.768   6.561 -0.2252 -0.7600 -0.1973
  157SAPE    HS17464   6.338   2.788   6.596 -1.5213  0.7914  3.0341
  157SAPE   O2117465   6.207   2.639   6.525  0.0317  0.4932 -0.2579
  157SAPE   C2117466   6.300   2.584   6.438  0.0158 -0.7219 -0.0594
  157SAPE   O2217467   6.414   2.633   6.420  0.2978  0.0362  0.1296
  157SAPE   C2217468   6.249   2.457   6.381  0.4853  0.4356  0.0035
  157SAPE   H2R17469   6.182   2.401   6.450  1.5383  1.5973  2.0146
  157SAPE   H2S17470   6.197   2.480   6.286 -0.6858  0.6906  0.7017
  157SAPE    C317471   6.131   2.814   6.672 -0.9299  0.2116  0.1972
  157SAPE    HX17472   6.036   2.768   6.639  0.5329 -2.0001 -1.0602
  157SAPE    HY17473   6.133   2.925   6.672  3.2197  0.2450  0.5736
  157SAPE   O3117474   6.179   2.768   6.799  0.0955 -0.0868 -0.3087
  157SAPE   C3117475   6.092   2.824   6.883  0.4343  0.1439 -0.5343
  157SAPE   O3217476   5.990   2.885   6.852  0.3748  0.2696  0.5683
  157SAPE   C3217477   6.126   2.788   7.029  0.1884  0.1627  0.0732
  157SAPE   H2X17478   6.226   2.833   7.044  1.1525 -2.3137  1.2073
  157SAPE   H2Y17479   6.150   2.680   7.038  0.4188  0.0888 -1.2986
  157SAPE   C2317480   6.356   2.349   6.344  1.0549 -0.0546 -0.3178
  157SAPE   H3R17481   6.437   2.405   6.293 -1.1048  1.4747 -2.1848
  157SAPE   H3S17482   6.315   2.268   6.281  2.0726 -0.9246  0.1385
  157SAPE   C2417483   6.427   2.290   6.472 -0.3290 -0.4025  0.2287
  157SAPE   H4R17484   6.456   2.374   6.538 -2.4199  0.1121  0.5327
  157SAPE   H4S17485   6.521   2.235   6.452  0.2706  0.5903  0.2960
  157SAPE   C2517486   6.338   2.185   6.540 -0.2564 -0.4786  1.1632
  157SAPE   H5R17487   6.284   2.123   6.467  0.1602  0.3111  0.1881
  157SAPE   C2617488   6.311   2.160   6.667  0.0768 -0.0007 -0.7327
  157SAPE   H6R17489   6.257   2.068   6.694 -0.1551  0.4892  0.4719
  157SAPE   C2717490   6.361   2.237   6.785 -0.0333 -0.8560  0.3856
  157SAPE   H7R17491   6.468   2.263   6.768 -0.1701 -1.6920 -1.9576
  157SAPE   H7S17492   6.369   2.164   6.868 -2.9772 -1.7704 -0.0665
  157SAPE   C2817493   6.274   2.356   6.808  0.6284  0.0176 -0.4346
  157SAPE   H8R17494   6.232   2.420   6.729 -0.1598 -0.4965 -0.4343
  157SAPE   C2917495   6.226   2.387   6.931 -0.4919  0.3319  0.0034
  157SAPE   H9R17496   6.151   2.467   6.942  0.6013  1.1801  1.5349
  157SAPE  C21017497   6.248   2.319   7.065 -0.3912  1.2260 -0.0008
  157SAPE  H10R17498   6.220   2.211   7.066 -0.5224  1.2514 -0.7253
  157SAPE  H10S17499   6.177   2.356   7.143  0.9669 -0.2480  1.9872
  157SAPE  C21117500   6.386   2.344   7.120 -0.1212  0.1734  0.4522
  157SAPE  H11R17501   6.457   2.387   7.048  0.2135 -2.6364 -0.9925
  157SAPE  C21217502   6.425   2.326   7.246 -0.0275  0.0746 -0.1767
  157SAPE  H12R17503   6.525   2.363   7.275  1.0134 -1.5982 -1.5745
  157SAPE  C21317504   6.333   2.280   7.360  0.0971 -0.3898  0.4178
  157SAPE  H13R17505   6.380   2.197   7.416 -1.7049 -0.4414  1.9090
  157SAPE  H13S17506   6.257   2.214   7.312 -0.9836 -0.6675  2.4359
  157SAPE  C21417507   6.287   2.390   7.461  0.2347  0.0160 -0.1455
  157SAPE  H14R17508   6.223   2.467   7.417  1.5085  1.4092  0.3743
  157SAPE  C21517509   6.313   2.391   7.600 -0.1682  0.1908  0.5416
  157SAPE  H15R17510   6.281   2.475   7.664  2.2759 -0.2174  2.3474
  157SAPE  C21617511   6.386   2.287   7.672  0.5317 -0.0124 -0.6549
  157SAPE  H16R17512   6.482   2.268   7.618  2.3415  2.9389  1.4200
  157SAPE  H16S17513   6.326   2.193   7.668 -2.7138  2.0159 -1.5590
  157SAPE  C21717514   6.422   2.326   7.818 -0.4687 -0.7777 -0.4531
  157SAPE  H17R17515   6.326   2.359   7.863  0.1004  0.9674 -0.4784
  157SAPE  H17S17516   6.494   2.407   7.844 -1.6408  0.6290 -1.4927
  157SAPE  C21817517   6.463   2.205   7.905  0.4658  0.1978  0.5183
  157SAPE  H18R17518   6.516   2.138   7.833 -2.1759 -1.3324 -0.0725
  157SAPE  H18S17519   6.372   2.151   7.938  0.4047 -0.4282 -0.6529
  157SAPE  C21917520   6.550   2.230   8.029 -0.1711  0.3354 -0.4244
  157SAPE  H19R17521   6.506   2.288   8.113  2.0618  0.4809  0.6812
  157SAPE  H19S17522   6.641   2.290   8.007 -0.6591  1.1323 -0.2768
  157SAPE  C22017523   6.585   2.089   8.075 -0.5216  0.1906  0.2452
  157SAPE  H20R17524   6.662   2.087   8.154 -0.7421 -1.7772  0.4409
  157SAPE  H20S17525   6.629   2.033   7.990 -0.9978 -0.8662  0.6825
  157SAPE  H20T17526   6.492   2.037   8.108 -0.6049 -1.5258 -2.5440
  157SAPE   C3317527   6.044   2.849   7.140  0.1411 -0.1041 -0.4187
  157SAPE   H3X17528   5.941   2.806   7.142  0.8965 -1.8866  1.5532
  157SAPE   H3Y17529   6.035   2.959   7.124  1.7818 -0.0800 -1.3018
  157SAPE   C3417530   6.109   2.820   7.277  0.0984 -0.0354 -0.5256
  157SAPE   H4X17531   6.196   2.888   7.273 -0.1198  0.2463 -0.5202
  157SAPE   H4Y17532   6.145   2.715   7.276  0.6143  0.1463 -0.8743
  157SAPE   C3517533   6.010   2.845   7.398  0.2447  0.1541  1.0623
  157SAPE   H5X17534   5.935   2.766   7.374 -0.9016  1.1457  1.3560
  157SAPE   H5Y17535   5.961   2.943   7.383 -0.1895 -0.2646 -0.2682
  157SAPE   C3617536   6.081   2.825   7.527  0.7043  0.8964 -0.6143
  157SAPE   H6X17537   6.164   2.899   7.522  0.6370  0.9163 -1.3905
  157SAPE   H6Y17538   6.127   2.726   7.546  1.6927  1.3412 -0.6621
  157SAPE   C3717539   5.991   2.843   7.654 -0.4174 -0.6904 -0.4377
  157SAPE   H7X17540   5.936   2.747   7.658 -2.1555  0.2358 -1.8272
  157SAPE   H7Y17541   5.917   2.920   7.628  1.4793  0.7679 -1.6552
  157SAPE   C3817542   6.071   2.886   7.784  0.1302 -0.2796 -0.1406
  157SAPE   H8X17543   5.988   2.890   7.856 -0.5297  0.5946 -0.9312
  157SAPE   H8Y17544   6.128   2.981   7.771 -1.4782  0.7520  0.2192
  157SAPE   C3917545   6.153   2.768   7.831 -0.3070  0.1941 -0.8691
  157SAPE   H9X17546   6.229   2.737   7.755 -2.0642 -0.5380 -2.3598
  157SAPE   H9Y17547   6.080   2.685   7.825 -0.9536  0.8018 -1.3652
  157SAPE  C31017548   6.229   2.779   7.961  0.0345  0.2960 -0.0839
  157SAPE  H10X17549   6.315   2.846   7.945 -0.4911  0.8792 -0.4782
  157SAPE  H10Y17550   6.266   2.676   7.984  0.7336  0.4343 -0.5800
  157SAPE  C31117551   6.145   2.843   8.071  0.1427  0.5526 -0.5172
  157SAPE  H11X17552   6.050   2.786   8.080  0.3914  0.1014 -0.7238
  157SAPE  H11Y17553   6.099   2.944   8.062 -3.1171 -0.9380 -1.7533
  157SAPE  C31217554   6.221   2.847   8.198  0.4393 -0.6093 -0.2627
  157SAPE  H12X17555   6.319   2.898   8.185 -0.8052  1.7267 -0.6879
  157SAPE  H12Y17556   6.245   2.741   8.221 -0.4284 -0.9518 -0.9129
  157SAPE  C31317557   6.152   2.893   8.325  0.4375  0.0938 -0.9854
  157SAPE  H13X17558   6.144   3.003   8.319  1.9785  0.4536  2.1602
  157SAPE  H13Y17559   6.215   2.864   8.412 -0.5505 -2.0764 -0.9596
  157SAPE  C31417560   6.018   2.823   8.361 -0.1837  0.9305 -0.0196
  157SAPE  H14X17561   6.035   2.714   8.347  0.7563  1.2192 -1.1521
  157SAPE  H14Y17562   5.939   2.852   8.289 -2.2282 -2.1572  0.8573
  157SAPE  C31517563   5.984   2.848   8.510  0.7847 -0.6091  1.1068
  157SAPE  H15X17564   6.070   2.811   8.570  1.5358 -0.5320  0.0899
  157SAPE  H15Y17565   5.892   2.792   8.539 -0.4311  0.5206 -0.4679
  157SAPE  C31617566   5.963   2.996   8.545 -0.2007  0.0424  0.5643
  157SAPE  H16X17567   5.877   3.036   8.487  1.7136  0.5735 -1.9952
  157SAPE  H16Y17568   6.053   3.048   8.507  1.4167 -2.7011  0.5198
  157SAPE  C31717569   5.942   3.034   8.687 -0.4564  0.5095  0.7050
  157SAPE  H17X17570   6.010   3.114   8.721 -0.6526  0.9248  0.1254
  157SAPE  H17Y17571   5.952   2.939   8.744 -1.8637 -0.0488  0.0393
  157SAPE  C31817572   5.806   3.083   8.729  0.0770 -0.7830  0.5591
  157SAPE  H18X17573   5.764   3.167   8.669 -0.1145  0.3195  2.2201
  157SAPE  H18Y17574   5.794   3.110   8.836 -3.4615 -0.6473  0.2042
  157SAPE  H18Z17575   5.737   2.997   8.716  1.6142 -1.9074 -0.2174
  158SAPE     N17576   1.574   0.315   6.134 -0.2765 -0.5956  0.4770
  158SAPE   HN117577   1.517   0.401   6.119  1.9262  0.8328  0.1534
  158SAPE   HN217578   1.671   0.351   6.133 -0.8012  0.9592  2.2973
  158SAPE   HN317579   1.556   0.247   6.057 -1.9925  0.3599 -0.0082
  158SAPE   C1217580   1.545   0.245   6.253  0.0286  0.5827 -0.1049
  158SAPE  H12A17581   1.442   0.205   6.241  0.2358 -0.0501  0.1557
  158SAPE  H12B17582   1.554   0.323   6.332  0.7683 -0.5138  0.9118
  158SAPE   C1117583   1.636   0.130   6.288  1.0118 -0.2336 -0.3012
  158SAPE  H11A17584   1.576   0.063   6.353 -2.2851 -1.0228 -3.9740
  158SAPE  H11B17585   1.704   0.177   6.362  0.5331 -0.8210  0.5194
  158SAPE     P17586   1.825  -0.031   6.198 -0.2992 -0.2536 -0.0336
  158SAPE   O1317587   1.822  -0.140   6.098 -0.2025 -0.8914 -0.0285
  158SAPE   O1417588   1.951   0.043   6.210  0.2500  0.1569 -0.3278
  158SAPE   O1217589   1.711   0.077   6.176  0.1043  0.3493  0.1779
  158SAPE   O1117590   1.786  -0.090   6.340 -1.2264  0.1517 -0.1421
  158SAPE    C117591   1.881  -0.176   6.418  0.5342  0.0500 -0.1365
  158SAPE    HA17592   1.831  -0.275   6.425 -1.3642  0.9827 -0.2906
  158SAPE    HB17593   1.981  -0.196   6.373  0.7661 -1.2166  0.8999
  158SAPE    C217594   1.909  -0.122   6.564  0.1737  0.2851  0.9180
  158SAPE    HS17595   1.983  -0.181   6.622  1.4123  1.4258  0.5330
  158SAPE   O2117596   1.780  -0.103   6.632 -0.3615 -0.7186 -0.1205
  158SAPE   C2117597   1.715  -0.221   6.662 -0.0477 -0.3883  0.5050
  158SAPE   O2217598   1.761  -0.334   6.649 -0.3467 -0.3968 -0.2038
  158SAPE   C2217599   1.577  -0.183   6.706 -0.5377 -0.0330 -1.1529
  158SAPE   H2R17600   1.564  -0.074   6.726 -0.0490 -0.0264 -0.8811
  158SAPE   H2S17601   1.517  -0.198   6.613 -2.4137  0.8044 -0.1150
  158SAPE    C317602   1.973   0.022   6.557  0.8157 -0.3613 -0.2075
  158SAPE    HX17603   1.898   0.095   6.520  2.0459  0.9721 -0.1212
  158SAPE    HY17604   2.056   0.022   6.483  0.8561 -0.5353 -0.1634
  158SAPE   O3117605   2.009   0.081   6.687 -0.1090 -0.3364  0.5402
  158SAPE   C3117606   2.123   0.032   6.742 -0.5848 -0.3109  0.0224
  158SAPE   O3217607   2.199  -0.048   6.693  0.0601 -0.4567 -0.5383
  158SAPE   C3217608   2.120   0.078   6.884  0.2936 -0.6958 -0.5187
  158SAPE   H2X17609   2.074   0.179   6.885  0.7680 -0.4787  0.4095
  158SAPE   H2Y17610   2.227   0.096   6.910  0.2986  1.6113 -1.9450
  158SAPE   C2317611   1.524  -0.284   6.819 -0.1053 -0.5530 -0.9969
  158SAPE   H3R17612   1.550  -0.385   6.781  2.8445 -1.2169  2.5051
  158SAPE   H3S17613   1.414  -0.269   6.830  0.1335  1.9450 -1.5911
  158SAPE   C2417614   1.588  -0.274   6.958  0.1520  0.3106 -1.1611
  158SAPE   H4R17615   1.694  -0.305   6.963 -0.4964 -1.6344  3.0708
  158SAPE   H4S17616   1.535  -0.344   7.028  0.1455  1.7792  0.3415
  158SAPE   C2517617   1.562  -0.143   7.015  0.2484 -0.2958 -0.4469
  158SAPE   H5R17618   1.639  -0.071   6.987  1.6251 -0.8204  1.8840
  158SAPE   C2617619   1.464  -0.104   7.101  0.7949 -0.5644 -0.4420
  158SAPE   H6R17620   1.458   0.002   7.130 -1.3070 -1.4303  2.5155
  158SAPE   C2717621   1.352  -0.187   7.156  0.4906  0.2562 -0.5208
  158SAPE   H7R17622   1.390  -0.245   7.243 -0.6305 -1.1617 -0.9527
  158SAPE   H7S17623   1.318  -0.259   7.078 -0.2279  0.7465 -0.6617
  158SAPE   C2817624   1.232  -0.099   7.194 -0.1229 -0.7852 -0.7499
  158SAPE   H8R17625   1.184  -0.057   7.105 -1.2434  0.6177  0.5103
  158SAPE   C2917626   1.181  -0.079   7.315 -0.3943 -0.3302 -0.3306
  158SAPE   H9R17627   1.080  -0.037   7.325  0.0832  0.3972  1.4697
  158SAPE  C21017628   1.236  -0.123   7.450 -0.7217  0.1307  0.1980
  158SAPE  H10R17629   1.264  -0.040   7.518  2.0980 -0.2315 -0.4515
  158SAPE  H10S17630   1.327  -0.185   7.437 -0.7337  0.7486 -3.6208
  158SAPE  C21117631   1.134  -0.207   7.511  0.8133 -0.2846  0.5190
  158SAPE  H11R17632   1.082  -0.271   7.439  2.2807 -1.5150  0.5247
  158SAPE  C21217633   1.097  -0.204   7.640 -0.3771 -0.5298  0.3919
  158SAPE  H12R17634   1.019  -0.274   7.675  0.8995 -0.7805  2.8548
  158SAPE  C21317635   1.141  -0.113   7.747  0.9988 -0.4653  0.3054
  158SAPE  H13R17636   1.051  -0.075   7.801  2.1875  1.4295  1.0080
  158SAPE  H13S17637   1.188  -0.018   7.713 -0.6768  0.5689  0.8074
  158SAPE  C21417638   1.226  -0.208   7.843  0.6287 -0.5000 -0.5385
  158SAPE  H14R17639   1.299  -0.276   7.797  1.7055 -1.4919  2.5268
  158SAPE  C21517640   1.224  -0.196   7.974 -0.3037 -0.0786 -0.2557
  158SAPE  H15R17641   1.287  -0.269   8.026  1.0601  0.6193 -0.9149
  158SAPE  C21617642   1.140  -0.093   8.056 -0.3393  0.7047 -0.1428
  158SAPE  H16R17643   1.031  -0.110   8.070 -0.8022  1.7825 -2.2547
  158SAPE  H16S17644   1.130   0.007   8.010 -1.6776  0.6394  0.0025
  158SAPE  C21717645   1.196  -0.078   8.203  0.5894 -0.8897  0.4689
  158SAPE  H17R17646   1.293  -0.023   8.204  0.1921 -0.1805  0.3252
  158SAPE  H17S17647   1.216  -0.176   8.252  2.3125 -0.1533  1.2798
  158SAPE  C21817648   1.108   0.019   8.290  0.5060 -0.2169 -0.1701
  158SAPE  H18R17649   1.111   0.121   8.246 -2.5377 -0.1398 -0.3247
  158SAPE  H18S17650   1.142   0.024   8.396 -0.7993 -4.2002  0.5018
  158SAPE  C21917651   0.966  -0.025   8.301  0.6812  0.0750 -0.0785
  158SAPE  H19R17652   0.910  -0.018   8.205  0.5439  0.3149  0.0194
  158SAPE  H19S17653   0.915   0.040   8.375  1.2266  1.6800 -1.0992
  158SAPE  C22017654   0.949  -0.162   8.349  0.1947 -0.8912  0.2854
  158SAPE  H20R17655   0.843  -0.179   8.375 -0.2169  0.5418 -0.4518
  158SAPE  H20S17656   1.004  -0.164   8.446  0.5246  2.0274  0.1912
  158SAPE  H20T17657   0.980  -0.238   8.274  0.4686 -2.2378  1.7295
  158SAPE   C3317658   2.045  -0.021   6.978  0.1056  0.6816 -0.6683
  158SAPE   H3X17659   2.083  -0.125   6.981  1.6261  1.2586  1.1397
  158SAPE   H3Y17660   1.937  -0.015   6.955  0.0780  1.1492 -0.4191
  158SAPE   C3417661   2.047   0.028   7.119  0.1484  0.3611 -0.0532
  158SAPE   H4X17662   2.017   0.136   7.122 -1.0261  0.0945 -1.5627
  158SAPE   H4Y17663   2.151   0.023   7.156 -0.0391  1.8776  0.7533
  158SAPE   C3517664   1.944  -0.061   7.197 -0.1894  0.0913  0.5305
  158SAPE   H5X17665   1.991  -0.161   7.205 -0.3192  0.1239  1.9265
  158SAPE   H5Y17666   1.850  -0.054   7.139  1.6876 -0.8565 -2.7510
  158SAPE   C3617667   1.902  -0.013   7.335  0.1383  0.2482 -0.3756
  158SAPE   H6X17668   1.875   0.095   7.331  2.7000  0.9718  0.3979
  158SAPE   H6Y17669   1.994  -0.025   7.397  0.1651 -2.5893 -0.9028
  158SAPE   C3717670   1.792  -0.099   7.391  1.1566 -0.2582 -0.0210
  158SAPE   H7X17671   1.702  -0.084   7.329 -0.6387  0.3372  2.6509
  158SAPE   H7Y17672   1.819  -0.205   7.369 -1.8148 -1.3322  1.3119
  158SAPE   C3817673   1.765  -0.084   7.541  0.2364 -0.4136  0.4092
  158SAPE   H8X17674   1.676  -0.143   7.573 -0.7189  2.2154  2.8535
  158SAPE   H8Y17675   1.723   0.019   7.541  1.5415  0.1553 -1.8043
  158SAPE   C3917676   1.881  -0.109   7.636 -0.1650  0.1441  0.2448
  158SAPE   H9X17677   1.975  -0.058   7.606 -0.0276  1.7133  3.0825
  158SAPE   H9Y17678   1.902  -0.216   7.620  0.5454  0.1267  1.2103
  158SAPE  C31017679   1.867  -0.068   7.782  1.3092 -0.0296  0.1016
  158SAPE  H10X17680   1.883   0.041   7.789  0.8772  0.1629 -1.7021
  158SAPE  H10Y17681   1.958  -0.114   7.826  0.4661 -4.0547 -2.0739
  158SAPE  C31117682   1.736  -0.101   7.857  0.2551  0.2229 -0.0887
  158SAPE  H11X17683   1.711  -0.209   7.844  1.9703 -0.6721  3.4281
  158SAPE  H11Y17684   1.650  -0.039   7.823 -1.3084 -1.4059  0.7496
  158SAPE  C31217685   1.754  -0.061   8.005  0.1415  0.0048  0.3009
  158SAPE  H12X17686   1.816   0.031   8.019  2.3561 -1.7942  2.8394
  158SAPE  H12Y17687   1.808  -0.137   8.065  3.8915  1.7165 -0.7162
  158SAPE  C31317688   1.623  -0.038   8.087 -0.2943  0.2570 -0.3778
  158SAPE  H13X17689   1.586  -0.141   8.107  1.1377 -0.1033  0.4899
  158SAPE  H13Y17690   1.554   0.024   8.026  2.5639  0.4273 -3.5810
  158SAPE  C31417691   1.659   0.025   8.220  0.4113  0.1351 -0.6896
  158SAPE  H14X17692   1.735  -0.038   8.271 -1.9293 -2.0124  0.2410
  158SAPE  H14Y17693   1.571   0.019   8.287 -0.7669  0.2377 -2.1873
  158SAPE  C31517694   1.700   0.180   8.208 -0.0166  0.2531 -1.2303
  158SAPE  H15X17695   1.779   0.198   8.133  2.1244 -0.0692  0.8914
  158SAPE  H15Y17696   1.747   0.216   8.302 -1.5837 -1.2183  0.1732
  158SAPE  C31617697   1.584   0.279   8.176 -0.5133  0.2059  0.1672
  158SAPE  H16X17698   1.523   0.227   8.098 -0.2555 -1.3911  1.0163
  158SAPE  H16Y17699   1.641   0.364   8.133  1.9244 -0.8979  1.1741
  158SAPE  C31717700   1.488   0.326   8.291 -0.4009 -0.0311  0.2893
  158SAPE  H17X17701   1.538   0.390   8.366 -0.5569  1.7880 -1.0948
  158SAPE  H17Y17702   1.458   0.231   8.340 -3.6554  0.9108  0.2534
  158SAPE  C31817703   1.359   0.384   8.236 -0.4417  0.4211  0.5385
  158SAPE  H18X17704   1.292   0.428   8.314  2.1036  0.6212  2.6818
  158SAPE  H18Y17705   1.300   0.303   8.188 -2.4679  0.8603  2.1933
  158SAPE  H18Z17706   1.391   0.461   8.164 -0.0402 -0.7192 -0.5229
  159SAPE     N17707   0.626   3.440   6.173  0.5767  0.6184 -0.2660
  159SAPE   HN117708   0.660   3.519   6.114  1.0999 -0.4824 -1.4622
  159SAPE   HN217709   0.572   3.378   6.109 -2.2761  1.5568  1.1146
  159SAPE   HN317710   0.550   3.480   6.233  0.2678  0.0386 -0.2715
  159SAPE   C1217711   0.737   3.376   6.258  0.0190  0.5062 -0.2512
  159SAPE  H12A17712   0.715   3.413   6.361  1.9434  0.1707  0.2931
  159SAPE  H12B17713   0.833   3.423   6.229  0.2019 -0.1057 -0.6331
  159SAPE   C1117714   0.729   3.221   6.240 -0.0830  0.4346 -0.1880
  159SAPE  H11A17715   0.816   3.178   6.294 -1.0363 -1.3433 -0.0734
  159SAPE  H11B17716   0.743   3.211   6.130 -1.6202 -0.3976 -0.3052
  159SAPE     P17717   0.586   3.010   6.286  0.1144  0.2634  0.4035
  159SAPE   O1317718   0.474   2.993   6.378  0.4920  0.0089 -0.0615
  159SAPE   O1417719   0.565   2.952   6.149 -0.0683  0.4473  0.1153
  159SAPE   O1217720   0.606   3.167   6.267  0.4847 -0.1897  0.1958
  159SAPE   O1117721   0.724   2.964   6.349  0.2869  0.2641 -0.5807
  159SAPE    C117722   0.839   2.899   6.291  1.0059 -0.8317 -0.4738
  159SAPE    HA17723   0.810   2.829   6.210  0.1996 -0.4063 -0.5607
  159SAPE    HB17724   0.900   2.982   6.249  1.0526 -0.2972  0.6411
  159SAPE    C217725   0.904   2.828   6.411  0.0977 -0.0895 -0.0815
  159SAPE    HS17726   0.847   2.735   6.429  0.1595 -0.3599 -1.2500
  159SAPE   O2117727   0.903   2.907   6.531 -0.0703  0.1907 -0.1763
  159SAPE   C2117728   0.934   3.035   6.532 -0.3198 -0.5227 -0.1176
  159SAPE   O2217729   1.000   3.094   6.449  0.8879 -0.7453  0.2549
  159SAPE   C2217730   0.878   3.101   6.663 -0.6927  0.6115 -0.9627
  159SAPE   H2R17731   0.845   3.005   6.711 -2.9991  0.5557 -2.5664
  159SAPE   H2S17732   0.962   3.150   6.717 -1.0482  1.5931 -1.3049
  159SAPE    C317733   1.051   2.779   6.384  0.8211 -0.1323 -0.2542
  159SAPE    HX17734   1.122   2.862   6.363 -1.3670  1.7972 -0.3631
  159SAPE    HY17735   1.039   2.720   6.290  0.8444  2.1491 -1.7569
  159SAPE   O3117736   1.098   2.692   6.485  0.1724  0.0262  0.6584
  159SAPE   C3117737   1.180   2.750   6.585 -0.7559 -0.3816  0.0369
  159SAPE   O3217738   1.188   2.866   6.600  0.0211 -0.2100  0.2210
  159SAPE   C3217739   1.219   2.642   6.686  0.4856  0.6555  0.6777
  159SAPE   H2X17740   1.297   2.584   6.633 -1.2626 -0.8973 -0.2340
  159SAPE   H2Y17741   1.135   2.570   6.697  0.6668  0.4809  0.9205
  159SAPE   C2317742   0.755   3.187   6.645 -0.0172  1.1474 -0.1914
  159SAPE   H3R17743   0.688   3.157   6.561 -2.0861  1.6454  1.2300
  159SAPE   H3S17744   0.786   3.291   6.621 -2.1763  1.4041 -2.0178
  159SAPE   C2417745   0.661   3.205   6.771 -0.5619  0.2458 -0.0839
  159SAPE   H4R17746   0.581   3.281   6.756  0.1886  0.9632 -0.5264
  159SAPE   H4S17747   0.720   3.258   6.849  0.9529  0.1940 -1.1774
  159SAPE   C2517748   0.613   3.076   6.829 -0.6339  0.3506  0.0512
  159SAPE   H5R17749   0.563   3.015   6.753 -0.8132  1.7667 -0.9850
  159SAPE   C2617750   0.635   3.023   6.949  0.0817 -0.5043 -0.3171
  159SAPE   H6R17751   0.611   2.919   6.975 -0.6053 -0.0069  1.0865
  159SAPE   C2717752   0.716   3.090   7.054  0.6683 -0.2363  0.6488
  159SAPE   H7R17753   0.671   3.097   7.155  3.0663 -0.7886  1.8018
  159SAPE   H7S17754   0.728   3.199   7.035 -0.3182 -0.3975 -0.9047
  159SAPE   C2817755   0.859   3.035   7.058 -0.4007 -0.1467  0.0393
  159SAPE   H8R17756   0.903   3.015   6.959 -2.1279 -0.2188 -0.7364
  159SAPE   C2917757   0.924   3.004   7.172 -0.3510 -0.8415 -0.2254
  159SAPE   H9R17758   1.026   2.962   7.164  1.7139  2.9730  3.9632
  159SAPE  C21017759   0.877   3.024   7.311 -0.1867 -0.0864 -0.1593
  159SAPE  H10R17760   0.802   3.105   7.321 -1.0005 -0.5180 -2.3759
  159SAPE  H10S17761   0.964   3.042   7.378  0.1803  1.1363 -0.9353
  159SAPE  C21117762   0.811   2.900   7.365 -0.6037 -0.1312 -0.0995
  159SAPE  H11R17763   0.773   2.827   7.291 -1.0023 -0.6995  0.6554
  159SAPE  C21217764   0.784   2.884   7.498  0.3392  0.5376 -0.5586
  159SAPE  H12R17765   0.735   2.792   7.534  2.4538 -0.3067  0.1968
  159SAPE  C21317766   0.828   2.978   7.611 -0.2772  0.1953 -0.0327
  159SAPE  H13R17767   0.910   3.044   7.575 -0.8255 -0.4955 -2.6256
  159SAPE  H13S17768   0.864   2.910   7.691 -1.7235  0.5799  0.9808
  159SAPE  C21417769   0.706   3.060   7.645  0.3947 -0.1504 -1.0177
  159SAPE  H14R17770   0.679   3.134   7.568  0.8741  0.0377 -1.0034
  159SAPE  C21517771   0.621   3.040   7.752 -0.1947 -0.4278 -0.4822
  159SAPE  H15R17772   0.542   3.114   7.774 -1.0346 -0.3999 -3.3903
  159SAPE  C21617773   0.618   2.934   7.862 -0.2532  0.1937 -0.1935
  159SAPE  H16R17774   0.694   2.856   7.838 -2.3343 -2.2152  0.8567
  159SAPE  H16S17775   0.514   2.895   7.865  0.0056 -0.4254  0.9391
  159SAPE  C21717776   0.666   2.988   8.001 -0.4606 -0.0630 -0.4786
  159SAPE  H17R17777   0.578   3.038   8.048  0.2499 -2.4088  3.6480
  159SAPE  H17S17778   0.758   3.050   8.007 -0.0539 -0.7481  0.5155
  159SAPE  C21817779   0.687   2.861   8.089 -0.0671 -0.8791 -0.5148
  159SAPE  H18R17780   0.777   2.805   8.057  0.3075 -0.4556 -0.2133
  159SAPE  H18S17781   0.599   2.797   8.065 -0.8109  0.1183 -0.4882
  159SAPE  C21917782   0.681   2.889   8.241  0.2101  0.1528 -0.5125
  159SAPE  H19R17783   0.669   2.794   8.298  1.8459  0.4078  0.2917
  159SAPE  H19S17784   0.594   2.954   8.265  1.2866  2.5003 -2.7466
  159SAPE  C22017785   0.810   2.950   8.300  0.1331  0.1144  0.2534
  159SAPE  H20R17786   0.799   2.974   8.408  0.1015 -0.0749  0.2918
  159SAPE  H20S17787   0.842   3.046   8.253 -0.6056  0.3166  0.1684
  159SAPE  H20T17788   0.894   2.879   8.287  2.0179  2.4061 -0.4353
  159SAPE   C3317789   1.266   2.702   6.821  0.6802  0.2464  0.3068
  159SAPE   H3X17790   1.300   2.807   6.806 -0.5089  0.8623  1.7679
  159SAPE   H3Y17791   1.345   2.636   6.863 -0.0321 -0.7133  0.1745
  159SAPE   C3417792   1.151   2.691   6.921 -0.3796  0.0151  0.2725
  159SAPE   H4X17793   1.115   2.589   6.946 -3.2185  0.7825 -0.4626
  159SAPE   H4Y17794   1.062   2.751   6.894  1.2548  1.3461 -2.4216
  159SAPE   C3517795   1.185   2.748   7.060 -0.3497  0.8557  0.2747
  159SAPE   H5X17796   1.102   2.748   7.134 -0.0138  0.6401  0.6557
  159SAPE   H5Y17797   1.217   2.853   7.042 -0.7930  0.6708 -1.6887
  159SAPE   C3617798   1.292   2.672   7.133  1.0292  0.4024 -0.1360
  159SAPE   H6X17799   1.382   2.656   7.069  1.4928  0.8409  0.4050
  159SAPE   H6Y17800   1.254   2.572   7.164 -1.6450  0.0665 -4.0617
  159SAPE   C3717801   1.336   2.733   7.262 -0.2730  0.2169 -0.0899
  159SAPE   H7X17802   1.379   2.834   7.249 -1.3986  0.7753  0.4985
  159SAPE   H7Y17803   1.413   2.665   7.305 -2.5441 -2.5370 -0.1895
  159SAPE   C3817804   1.233   2.746   7.369  0.2559 -0.3451  0.8337
  159SAPE   H8X17805   1.183   2.648   7.381  0.9857 -0.5866  1.9732
  159SAPE   H8Y17806   1.142   2.808   7.356  0.4206 -0.3925 -0.6357
  159SAPE   C3917807   1.303   2.806   7.493  0.5593  0.4849 -0.2458
  159SAPE   H9X17808   1.347   2.906   7.476 -0.4911  0.8362 -0.9585
  159SAPE   H9Y17809   1.390   2.742   7.518  0.4312  0.2182 -0.4745
  159SAPE  C31017810   1.216   2.805   7.613 -0.1897 -0.0423 -0.3248
  159SAPE  H10X17811   1.183   2.702   7.637  1.1398 -0.2223  0.7795
  159SAPE  H10Y17812   1.126   2.867   7.595  0.6988  1.2712 -0.3644
  159SAPE  C31117813   1.277   2.874   7.734  0.6832  0.1141 -0.3075
  159SAPE  H11X17814   1.297   2.983   7.724  2.2685 -0.1584 -0.2657
  159SAPE  H11Y17815   1.378   2.833   7.753  1.2992  2.9959  3.2430
  159SAPE  C31217816   1.198   2.849   7.861 -0.7396  0.0411  0.8612
  159SAPE  H12X17817   1.176   2.742   7.878 -1.9866  0.2220  0.4282
  159SAPE  H12Y17818   1.094   2.887   7.852 -0.7317  0.4279  2.2875
  159SAPE  C31317819   1.252   2.911   7.991 -0.3740  0.6724 -0.2120
  159SAPE  H13X17820   1.287   3.015   7.978 -0.6040  1.1838  3.0083
  159SAPE  H13Y17821   1.353   2.865   8.001  0.6445  2.9409  0.1295
  159SAPE  C31417822   1.172   2.896   8.120 -0.5557 -0.0516 -0.1207
  159SAPE  H14X17823   1.132   2.794   8.134 -0.4560 -0.6033 -3.2956
  159SAPE  H14Y17824   1.088   2.967   8.101 -1.0544 -0.8595 -1.0123
  159SAPE  C31517825   1.256   2.927   8.243 -0.2916 -0.0441  0.2784
  159SAPE  H15X17826   1.310   3.022   8.225  0.9723 -0.3964  2.0307
  159SAPE  H15Y17827   1.342   2.857   8.251 -0.5440 -0.4548 -0.5069
  159SAPE  C31617828   1.190   2.949   8.380  0.3296  0.0502  0.3312
  159SAPE  H16X17829   1.106   2.876   8.383 -2.0975  2.7290 -0.6360
  159SAPE  H16Y17830   1.140   3.048   8.384  0.9730  0.3236  1.9353
  159SAPE  C31717831   1.264   2.907   8.497  0.6894 -0.3556 -1.0821
  159SAPE  H17X17832   1.199   2.927   8.585  1.1437  0.9373 -1.0320
  159SAPE  H17Y17833   1.358   2.964   8.514  0.0349  0.3472  0.2772
  159SAPE  C31817834   1.322   2.766   8.499 -0.4589  0.7755 -0.6941
  159SAPE  H18X17835   1.254   2.694   8.450  0.0208  0.4018 -0.8141
  159SAPE  H18Y17836   1.336   2.741   8.606 -0.9034 -0.5311 -0.9381
  159SAPE  H18Z17837   1.416   2.755   8.440 -0.0246  1.1131 -0.0794
  160SAPE     N17838   2.522   1.892   6.380  0.3430  0.3357  0.1641
  160SAPE   HN117839   2.619   1.900   6.417  1.1008 -1.6121 -1.3166
  160SAPE   HN217840   2.528   1.932   6.285  3.2465  0.1603  0.2171
  160SAPE   HN317841   2.456   1.946   6.439 -0.7988 -0.3428 -0.4723
  160SAPE   C1217842   2.481   1.747   6.369 -0.3739 -0.2101  0.3914
  160SAPE  H12A17843   2.489   1.695   6.466  2.5939 -0.5081  0.0319
  160SAPE  H12B17844   2.557   1.696   6.306  0.3851 -0.3355  1.4101
  160SAPE   C1117845   2.339   1.722   6.309 -0.1731  0.5391  0.0661
  160SAPE  H11A17846   2.332   1.615   6.283  0.7320  0.6149 -0.4926
  160SAPE  H11B17847   2.340   1.782   6.215 -1.7422  0.3444 -0.0993
  160SAPE     P17848   2.150   1.657   6.472  0.5936  0.2103  0.1436
  160SAPE   O1317849   2.070   1.585   6.369 -0.1147  0.3351 -0.2561
  160SAPE   O1417850   2.246   1.576   6.555 -0.0567 -0.1209 -0.5326
  160SAPE   O1217851   2.232   1.770   6.395 -0.5446 -0.2197  0.5652
  160SAPE   O1117852   2.057   1.740   6.574  0.4917 -0.3457  0.4011
  160SAPE    C117853   2.116   1.845   6.653  0.0975 -0.0392  0.2640
  160SAPE    HA17854   2.193   1.900   6.595 -0.7593  0.3565 -0.5159
  160SAPE    HB17855   2.046   1.929   6.671  0.8436  0.4929  0.6995
  160SAPE    C217856   2.150   1.808   6.804  0.0643 -0.0030  0.4086
  160SAPE    HS17857   2.234   1.735   6.802  0.5847  0.6122 -0.4816
  160SAPE   O2117858   2.028   1.765   6.863  0.1439 -0.9293  0.0072
  160SAPE   C2117859   2.026   1.637   6.910 -0.1080  1.1140 -0.0058
  160SAPE   O2217860   2.123   1.559   6.915 -0.2679  0.3355 -0.0774
  160SAPE   C2217861   1.886   1.602   6.959  0.0797  0.4607  0.8899
  160SAPE   H2R17862   1.812   1.654   6.894  1.0583  1.4427  0.5402
  160SAPE   H2S17863   1.874   1.494   6.936 -1.1100  1.1845 -2.0807
  160SAPE    C317864   2.201   1.934   6.887 -0.3433 -0.8613 -0.2911
  160SAPE    HX17865   2.117   2.007   6.890  1.1506  0.9117 -0.7884
  160SAPE    HY17866   2.288   1.983   6.837 -0.1224  0.4612  1.3329
  160SAPE   O3117867   2.244   1.897   7.024  0.2378 -0.1020  0.3963
  160SAPE   C3117868   2.366   1.839   7.027 -0.0533 -1.4150  0.5008
  160SAPE   O3217869   2.446   1.839   6.935  0.1043 -0.2161  0.5785
  160SAPE   C3217870   2.380   1.774   7.167 -0.1259 -0.2699 -0.5248
  160SAPE   H2X17871   2.442   1.852   7.216  1.7061  0.4860 -3.9103
  160SAPE   H2Y17872   2.439   1.680   7.156 -2.0152 -1.5675  0.1664
  160SAPE   C2317873   1.866   1.621   7.112 -0.5172  0.8934 -0.4966
  160SAPE   H3R17874   1.945   1.565   7.167 -0.2523  0.8245 -0.9420
  160SAPE   H3S17875   1.770   1.586   7.155  0.3847  1.7816  2.3441
  160SAPE   C2417876   1.861   1.764   7.160  0.3456  0.0250 -0.4305
  160SAPE   H4R17877   1.956   1.811   7.125  1.2379 -1.2396  0.2691
  160SAPE   H4S17878   1.868   1.761   7.270 -0.8476  0.4126 -0.3444
  160SAPE   C2517879   1.747   1.837   7.097  0.1320 -0.6676 -0.5041
  160SAPE   H5R17880   1.735   1.825   6.988 -1.1516 -0.7143 -0.3623
  160SAPE   C2617881   1.665   1.916   7.168  0.1358 -0.0287 -0.5560
  160SAPE   H6R17882   1.597   1.984   7.114  0.8520  1.7042  0.7027
  160SAPE   C2717883   1.678   1.947   7.318  0.8413 -0.4422 -0.1598
  160SAPE   H7R17884   1.680   2.058   7.325 -0.1936 -0.3798 -0.8736
  160SAPE   H7S17885   1.767   1.913   7.375  1.6458  0.4099 -0.8720
  160SAPE   C2817886   1.559   1.908   7.385  0.3891  0.7456 -0.3860
  160SAPE   H8R17887   1.481   1.985   7.381  0.4435  0.9757  2.1185
  160SAPE   C2917888   1.548   1.799   7.465  0.2756  0.3340  0.7579
  160SAPE   H9R17889   1.448   1.777   7.504 -0.1168 -0.9920 -0.9234
  160SAPE  C21017890   1.650   1.695   7.482  0.2781 -0.6861  0.0215
  160SAPE  H10R17891   1.745   1.721   7.432  1.4583 -0.8819  2.1140
  160SAPE  H10S17892   1.603   1.608   7.431 -3.4750  1.6899 -0.8177
  160SAPE  C21117893   1.671   1.665   7.628  0.4155 -0.0356 -0.0028
  160SAPE  H11R17894   1.771   1.688   7.665  0.5889  1.0358 -1.1010
  160SAPE  C21217895   1.597   1.585   7.698 -0.7671  0.9245 -1.1332
  160SAPE  H12R17896   1.613   1.580   7.807  2.2603  1.6400 -1.4906
  160SAPE  C21317897   1.473   1.513   7.657 -0.1677  0.5641 -0.0180
  160SAPE  H13R17898   1.492   1.454   7.565 -2.3760  1.5601 -1.1601
  160SAPE  H13S17899   1.393   1.581   7.621 -1.5340 -0.1899  1.5391
  160SAPE  C21417900   1.409   1.428   7.767  0.2939  0.0028  0.3866
  160SAPE  H14R17901   1.448   1.326   7.778 -1.0370 -0.8440 -2.3268
  160SAPE  C21517902   1.315   1.469   7.851 -0.0165 -0.4837  0.1801
  160SAPE  H15R17903   1.271   1.394   7.919  3.1302 -1.7954  0.8538
  160SAPE  C21617904   1.254   1.605   7.849  0.7879  0.5160  0.0259
  160SAPE  H16R17905   1.271   1.657   7.752  0.4408 -1.2077 -0.9644
  160SAPE  H16S17906   1.303   1.675   7.921  0.2457 -0.3454  1.2384
  160SAPE  C21717907   1.094   1.603   7.874 -0.0587  0.3133 -0.0640
  160SAPE  H17R17908   1.050   1.518   7.818  1.3325 -1.1086  0.9718
  160SAPE  H17S17909   1.049   1.698   7.836  2.2666  1.4830 -0.0379
  160SAPE  C21817910   1.061   1.594   8.013 -0.1400  1.1402  0.1770
  160SAPE  H18R17911   1.113   1.677   8.065  1.7907  2.2265 -3.3632
  160SAPE  H18S17912   1.099   1.497   8.052  0.1401  1.0629 -0.2835
  160SAPE  C21917913   0.910   1.606   8.040 -0.2729  0.8304 -0.3407
  160SAPE  H19R17914   0.846   1.552   7.967  3.2301 -1.0382 -2.1494
  160SAPE  H19S17915   0.880   1.712   8.021  1.1843  1.3513  0.1672
  160SAPE  C22017916   0.886   1.555   8.182  0.5301 -0.3804  0.3932
  160SAPE  H20R17917   0.777   1.569   8.201  0.7424  2.8476 -0.4777
  160SAPE  H20S17918   0.948   1.618   8.250  1.9852 -0.3806 -0.9049
  160SAPE  H20T17919   0.907   1.446   8.180 -0.1328 -0.5203  0.9237
  160SAPE   C3317920   2.245   1.724   7.232  0.7260  0.2296 -0.4261
  160SAPE   H3X17921   2.209   1.624   7.201 -1.5462  0.5476  1.0850
  160SAPE   H3Y17922   2.158   1.789   7.203 -0.4088 -0.6982  0.8652
  160SAPE   C3417923   2.248   1.734   7.388  0.2391 -0.2870  0.7062
  160SAPE   H4X17924   2.287   1.831   7.424  3.4222 -1.8679  1.7519
  160SAPE   H4Y17925   2.317   1.652   7.415  1.5525  0.3742 -0.5576
  160SAPE   C3517926   2.105   1.707   7.436  0.2493  0.9703  0.3868
  160SAPE   H5X17927   2.079   1.600   7.424  3.3092  0.3064 -0.6888
  160SAPE   H5Y17928   2.036   1.754   7.363  1.4620 -1.4420 -2.3645
  160SAPE   C3617929   2.071   1.761   7.572 -0.1160 -0.0407  0.6697
  160SAPE   H6X17930   1.962   1.783   7.572  0.0033  0.5612 -1.0306
  160SAPE   H6Y17931   2.100   1.868   7.579 -0.6094  0.3295 -2.5531
  160SAPE   C3717932   2.112   1.677   7.686  0.0732  0.5310  0.3710
  160SAPE   H7X17933   2.220   1.666   7.709 -0.1751  0.5130  1.5528
  160SAPE   H7Y17934   2.072   1.576   7.661  0.8604  0.1179  0.7514
  160SAPE   C3817935   2.033   1.724   7.809  0.2709 -0.3939 -0.4935
  160SAPE   H8X17936   1.924   1.722   7.790  0.3783  2.2174 -1.5545
  160SAPE   H8Y17937   2.074   1.824   7.835 -0.5095  0.8661 -3.9094
  160SAPE   C3917938   2.048   1.617   7.927 -0.3453  0.8469 -0.3281
  160SAPE   H9X17939   2.147   1.630   7.975 -0.8345  2.0931  0.3511
  160SAPE   H9Y17940   2.049   1.511   7.891  0.3835  1.7203 -3.0018
  160SAPE  C31017941   1.933   1.639   8.028  0.9310 -0.6127  0.8424
  160SAPE  H10X17942   1.842   1.626   7.965  1.9166  0.3554 -0.8376
  160SAPE  H10Y17943   1.937   1.749   8.043  0.7707 -0.5119  0.1590
  160SAPE  C31117944   1.939   1.561   8.160  0.7437 -0.0166 -0.0053
  160SAPE  H11X17945   2.038   1.579   8.209 -0.7481  1.4460  2.5966
  160SAPE  H11Y17946   1.941   1.450   8.149 -2.0498 -0.0322 -0.7259
  160SAPE  C31217947   1.839   1.615   8.264 -0.3569  0.3676 -0.0886
  160SAPE  H12X17948   1.851   1.725   8.276 -1.0480  0.4757 -0.3132
  160SAPE  H12Y17949   1.863   1.572   8.363  0.3262  0.5183 -0.1878
  160SAPE  C31317950   1.687   1.594   8.231 -0.1329  0.1945  0.1429
  160SAPE  H13X17951   1.663   1.652   8.139 -1.8518 -0.9626 -0.1544
  160SAPE  H13Y17952   1.624   1.637   8.312  2.4009  1.3598  1.5841
  160SAPE  C31417953   1.642   1.450   8.209 -0.4212 -0.2175 -0.2085
  160SAPE  H14X17954   1.674   1.388   8.295  2.4710 -1.9760 -2.4707
  160SAPE  H14Y17955   1.686   1.407   8.116  2.6990 -0.5131  1.3523
  160SAPE  C31517956   1.491   1.440   8.199 -0.5993  0.3882  0.0830
  160SAPE  H15X17957   1.467   1.470   8.095 -1.8674  1.2073  0.6016
  160SAPE  H15Y17958   1.434   1.508   8.266  0.6016 -0.7550  2.3155
  160SAPE  C31617959   1.439   1.300   8.224 -0.2879 -1.0278 -0.4310
  160SAPE  H16X17960   1.469   1.271   8.327  0.5049 -0.7540 -0.5839
  160SAPE  H16Y17961   1.493   1.239   8.149 -1.8427 -0.5151 -2.0141
  160SAPE  C31717962   1.291   1.303   8.204  1.0403  1.0972 -0.2002
  160SAPE  H17X17963   1.263   1.203   8.165  0.8259  1.4772 -1.0566
  160SAPE  H17Y17964   1.259   1.376   8.126 -1.5951  0.9619  0.6950
  160SAPE  C31817965   1.204   1.337   8.323 -0.1860  0.0871 -0.2988
  160SAPE  H18X17966   1.245   1.421   8.383  0.1675  0.0305 -0.4622
  160SAPE  H18Y17967   1.191   1.251   8.392  0.4363  0.0986 -0.1638
  160SAPE  H18Z17968   1.105   1.371   8.286 -0.5881 -0.9517 -0.1935
  161SOPE     N17969   1.751   3.130  10.781  1.0202 -0.4442  0.3128
  161SOPE   HN117970   1.786   3.192  10.705 -2.4380  0.0265 -1.0193
  161SOPE   HN217971   1.817   3.052  10.800  2.2683  0.2872 -0.9744
  161SOPE   HN317972   1.668   3.083  10.737  1.2136  0.5504 -1.1513
  161SOPE   C1217973   1.724   3.197  10.912 -0.3909 -0.2181 -0.9845
  161SOPE  H12A17974   1.824   3.230  10.948  0.2987 -1.8819 -1.3269
  161SOPE  H12B17975   1.689   3.121  10.984  1.3143  0.5019  0.6371
  161SOPE   C1117976   1.623   3.313  10.894 -0.0333 -0.7696  0.1753
  161SOPE  H11A17977   1.572   3.335  10.990  0.4467  0.3213  0.1872
  161SOPE  H11B17978   1.539   3.267  10.838  0.1950 -0.2656 -0.5831
  161SOPE     P17979   1.552   3.542  10.784 -0.1012 -0.3710  0.0974
  161SOPE   O1317980   1.607   3.680  10.784  0.0995 -0.0240  1.0488
  161SOPE   O1417981   1.434   3.528  10.868 -0.2806 -0.1060  0.8151
  161SOPE   O1217982   1.665   3.435  10.821  0.1101  0.1438  0.2165
  161SOPE   O1117983   1.523   3.496  10.640  0.1260  0.2246  0.0934
  161SOPE    C117984   1.625   3.488  10.542 -0.3450  0.2966 -1.1629
  161SOPE    HA17985   1.674   3.389  10.561  0.8000  0.8434 -1.2203
  161SOPE    HB17986   1.706   3.564  10.548 -1.1019  1.2315 -2.5834
  161SOPE    C217987   1.571   3.506  10.399  0.2765  0.0076 -0.1933
  161SOPE    HS17988   1.533   3.610  10.390 -0.9373 -0.4302 -0.2099
  161SOPE   O2117989   1.458   3.405  10.382 -0.5718 -0.4978 -0.2136
  161SOPE   C2117990   1.375   3.433  10.284 -0.6603  0.1255  0.4425
  161SOPE   O2217991   1.368   3.536  10.223 -0.0877  0.0878 -0.5510
  161SOPE   C2217992   1.298   3.302  10.254 -0.6836  0.5587  0.6336
  161SOPE   H2R17993   1.253   3.260  10.347 -0.6368 -1.9384 -0.4215
  161SOPE   H2S17994   1.381   3.232  10.229 -0.5209  1.8414 -2.6626
  161SOPE    C317995   1.688   3.476  10.300 -0.3312 -0.5621  0.2466
  161SOPE    HX17996   1.726   3.372  10.312  0.6721 -0.3972 -1.3709
  161SOPE    HY17997   1.772   3.543  10.330 -0.6642 -0.9650  2.1286
  161SOPE   O3117998   1.659   3.482  10.151  0.1574  0.7349 -0.3206
  161SOPE   C3117999   1.661   3.602  10.108  0.1558 -0.6634  0.4921
  161SOPE   O3218000   1.677   3.703  10.178 -0.1723 -0.6697  0.7511
  161SOPE   C3218001   1.666   3.603   9.954 -0.3492 -0.6547 -0.0410
  161SOPE   H2X18002   1.568   3.560   9.922 -0.8215  1.0933 -1.0378
  161SOPE   H2Y18003   1.759   3.549   9.927 -0.4923 -0.1656 -1.5926
  161SOPE   C2318004   1.200   3.316  10.138  0.2421 -0.5434  0.2496
  161SOPE   H3R18005   1.254   3.373  10.060 -0.3973 -0.0469  0.1731
  161SOPE   H3S18006   1.114   3.383  10.159  1.1639  0.6743  0.1342
  161SOPE   C2418007   1.147   3.182  10.074 -0.0924  0.0666  0.6164
  161SOPE   H4R18008   1.234   3.139  10.020 -2.1653 -0.4809 -2.4059
  161SOPE   H4S18009   1.126   3.104  10.150  0.2326 -1.4338 -0.7851
  161SOPE   C2518010   1.043   3.200   9.972  0.0021  0.1753  0.6256
  161SOPE   H5R18011   0.945   3.219  10.020  0.4825  2.0705  0.8909
  161SOPE   H5S18012   1.074   3.285   9.907  0.5352 -0.0183  0.6270
  161SOPE   C2618013   1.036   3.077   9.886 -0.1560  0.3685  1.0710
  161SOPE   H6R18014   1.111   3.080   9.804 -1.8702 -1.7150 -0.6564
  161SOPE   H6S18015   1.040   2.981   9.943  1.9993 -2.1555 -3.0551
  161SOPE   C2718016   0.899   3.060   9.820  0.2535  0.2951  0.1533
  161SOPE   H7R18017   0.820   3.055   9.897 -0.7187 -1.9832 -0.9511
  161SOPE   H7S18018   0.882   3.156   9.765  0.4037 -0.1302 -0.6457
  161SOPE   C2818019   0.898   2.942   9.717  0.4522 -0.9650 -0.0192
  161SOPE   H8R18020   0.983   2.944   9.646 -0.4876 -0.5854 -1.1325
  161SOPE   H8S18021   0.902   2.843   9.768  0.7201 -0.1107  1.6723
  161SOPE   C2918022   0.762   2.944   9.648  0.0064 -0.3105 -0.3926
  161SOPE   H9118023   0.690   2.893   9.714  0.9498 -0.1918  0.7201
  161SOPE  C21018024   0.721   2.996   9.535 -0.2370  0.7880 -0.0824
  161SOPE  H10118025   0.615   2.981   9.507 -0.2705  0.2703  0.3104
  161SOPE  C21118026   0.796   3.084   9.441  0.0586 -0.3843 -0.1024
  161SOPE  H11R18027   0.905   3.084   9.458  0.6703  1.4650 -3.5018
  161SOPE  H11S18028   0.773   3.189   9.470  1.8039  0.4094 -1.5027
  161SOPE  C21218029   0.755   3.074   9.294 -0.0513  0.0757  0.9838
  161SOPE  H12R18030   0.819   3.143   9.235  0.6494  0.9072  2.6956
  161SOPE  H12S18031   0.648   3.103   9.300 -0.2405 -0.5088  0.4846
  161SOPE  C21318032   0.770   2.939   9.221 -0.5108 -0.6296  0.2991
  161SOPE  H13R18033   0.725   2.942   9.119  3.4022 -1.2963 -1.5346
  161SOPE  H13S18034   0.715   2.856   9.270 -1.4890 -0.5243 -0.6089
  161SOPE  C21418035   0.913   2.885   9.211  0.3911 -0.2440  0.1959
  161SOPE  H14R18036   0.953   2.860   9.311 -0.8524 -0.4130  0.6641
  161SOPE  H14S18037   0.983   2.964   9.176 -2.7736  2.5191 -0.2007
  161SOPE  C21518038   0.939   2.764   9.114 -0.7975 -0.0913  0.4721
  161SOPE  H15R18039   0.876   2.681   9.152 -1.7020  0.5913  0.4793
  161SOPE  H15S18040   1.045   2.731   9.115 -1.1104 -1.1384 -0.6497
  161SOPE  C21618041   0.902   2.802   8.974  0.7657 -0.4008 -0.1062
  161SOPE  H16R18042   0.931   2.908   8.960  0.9724 -0.3337  0.7931
  161SOPE  H16S18043   0.791   2.799   8.979  0.7871  0.0390  0.7393
  161SOPE  C21718044   0.950   2.708   8.860  0.2521  0.9164 -0.1718
  161SOPE  H17R18045   0.873   2.630   8.845 -0.2128  1.6844 -1.9633
  161SOPE  H17S18046   1.049   2.660   8.876  0.2499  0.2865 -1.9769
  161SOPE  C21818047   0.959   2.781   8.725  0.3015 -0.2933  0.4988
  161SOPE  H18R18048   0.930   2.712   8.643  2.8657 -0.4412 -0.3385
  161SOPE  H18S18049   1.064   2.815   8.714  0.1374 -0.8432 -3.5674
  161SOPE  H18T18050   0.901   2.875   8.715  1.0269 -0.1740 -3.5557
  161SOPE   C3318051   1.665   3.744   9.886 -0.4056 -0.3095 -0.1770
  161SOPE   H3X18052   1.597   3.817   9.933 -1.8028 -1.0110 -1.0713
  161SOPE   H3Y18053   1.633   3.740   9.780  0.0627 -1.9658 -0.2803
  161SOPE   C3418054   1.808   3.798   9.885 -0.7835  0.0882 -0.5016
  161SOPE   H4X18055   1.858   3.747   9.970 -1.2800 -2.0434 -1.4529
  161SOPE   H4Y18056   1.798   3.907   9.904  0.1770 -0.2332  1.9705
  161SOPE   C3518057   1.898   3.781   9.758  0.0654 -0.0144 -0.0597
  161SOPE   H5X18058   1.922   3.675   9.738  0.1044 -0.4232  2.1095
  161SOPE   H5Y18059   1.995   3.829   9.784  0.0674 -0.7501  1.2875
  161SOPE   C3618060   1.833   3.841   9.633  0.3363 -0.3422  0.3638
  161SOPE   H6X18061   1.791   3.940   9.663 -0.7528 -0.6465 -0.1658
  161SOPE   H6Y18062   1.758   3.775   9.585 -0.2736  0.9362 -0.4737
  161SOPE   C3718063   1.933   3.864   9.516 -0.0876  0.3080 -0.6475
  161SOPE   H7X18064   1.981   3.764   9.507  3.7566  2.1344 -1.4835
  161SOPE   H7Y18065   2.006   3.940   9.553 -1.7745  1.1467  1.0845
  161SOPE   C3818066   1.873   3.911   9.383  0.1867  0.1204  0.1844
  161SOPE   H8X18067   1.796   3.991   9.387  0.2151  0.2404 -1.3557
  161SOPE   H8Y18068   1.823   3.827   9.331 -0.4599  0.6285 -0.0178
  161SOPE   C3918069   1.985   3.941   9.278  0.2763 -0.6462 -0.1219
  161SOPE   H9X18070   2.035   3.844   9.262  0.1639 -0.4422 -1.8516
  161SOPE   H9Y18071   2.065   4.011   9.311  0.8016 -0.8756 -0.8906
  161SOPE  C31018072   1.930   3.991   9.144  0.4667  0.2427 -0.9846
  161SOPE  H10X18073   1.868   4.082   9.161 -2.3995 -1.7197 -0.5324
  161SOPE  H10Y18074   1.863   3.916   9.096 -0.1114 -2.1224  3.3004
  161SOPE  C31118075   2.044   4.013   9.044 -0.6713  0.0860  0.5416
  161SOPE  H11X18076   2.094   3.915   9.027 -1.4362 -0.4164  1.1427
  161SOPE  H11Y18077   2.125   4.074   9.089  3.3447 -2.5965 -2.7124
  161SOPE  C31218078   1.997   4.065   8.914 -0.3190 -0.7896  0.0504
  161SOPE  H12X18079   1.917   4.141   8.922 -1.3381 -1.7100 -1.3378
  161SOPE  H12Y18080   1.943   3.985   8.860 -1.9061 -0.6859  1.4521
  161SOPE  C31318081   2.116   4.117   8.821 -0.0304 -0.2748 -0.9968
  161SOPE  H13X18082   2.201   4.047   8.836 -0.1342 -0.1157  0.3403
  161SOPE  H13Y18083   2.146   4.220   8.848 -0.5948 -0.2220 -0.5635
  161SOPE  C31418084   2.081   4.097   8.678  0.0270  0.4665 -0.5191
  161SOPE  H14X18085   2.001   4.171   8.654  0.7567  1.3529 -0.2192
  161SOPE  H14Y18086   2.031   3.998   8.668  0.7443 -0.1150  1.5096
  161SOPE  C31518087   2.209   4.103   8.585  0.3632 -0.5496 -0.8885
  161SOPE  H15X18088   2.283   4.034   8.633 -0.3835 -0.4000  0.4938
  161SOPE  H15Y18089   2.257   4.202   8.600  0.0665 -0.6587  0.9272
  161SOPE  C31618090   2.196   4.055   8.440 -0.0652  0.0338  0.8969
  161SOPE  H16X18091   2.148   3.955   8.439 -2.5026  1.1473 -0.6807
  161SOPE  H16Y18092   2.296   4.039   8.394  0.2841  2.9474  0.5174
  161SOPE  C31718093   2.103   4.144   8.353  0.9294 -0.1846  0.1709
  161SOPE  H17X18094   2.143   4.247   8.364 -1.8856  0.6023  3.8448
  161SOPE  H17Y18095   2.002   4.147   8.399  0.3143 -3.2889 -0.8357
  161SOPE  C31818096   2.091   4.095   8.209  0.1159 -0.1201  0.0528
  161SOPE  H18X18097   2.026   4.006   8.222  1.1099 -0.9534 -0.6228
  161SOPE  H18Y18098   2.189   4.067   8.165 -0.3518 -0.9132 -0.4956
  161SOPE  H18Z18099   2.042   4.168   8.140 -1.9749 -1.6572 -0.1142
  162SOPE     N18100   6.313   3.146  11.225 -0.0249 -0.0854  0.1642
  162SOPE   HN118101   6.373   3.061  11.217  1.0409  0.8125 -1.7140
  162SOPE   HN218102   6.358   3.215  11.289  0.0857  0.0435 -0.0548
  162SOPE   HN318103   6.221   3.128  11.270  0.1512 -0.2698  0.4628
  162SOPE   C1218104   6.293   3.205  11.094  0.6509 -0.0386 -0.8091
  162SOPE  H12A18105   6.196   3.260  11.096  1.4352  1.3377 -0.3179
  162SOPE  H12B18106   6.292   3.122  11.021  1.1542  0.1958 -1.0835
  162SOPE   C1118107   6.415   3.298  11.066  0.0254 -0.6796 -0.2852
  162SOPE  H11A18108   6.407   3.385  11.134  0.6472 -1.9305  1.4299
  162SOPE  H11B18109   6.401   3.341  10.964  0.0904  0.9635  0.3862
  162SOPE     P18110   6.603   3.137  10.987 -0.2829  0.3336 -0.2919
  162SOPE   O1318111   6.502   3.107  10.884  0.3643 -0.3341 -0.5895
  162SOPE   O1418112   6.656   3.023  11.064  0.3529 -0.0851  0.6839
  162SOPE   O1218113   6.543   3.236  11.091 -0.4073 -0.0158 -0.2544
  162SOPE   O1118114   6.719   3.227  10.931 -0.8531  1.1803  0.1197
  162SOPE    C118115   6.696   3.350  10.875 -0.1277 -0.0286 -0.4696
  162SOPE    HA18116   6.790   3.409  10.871 -0.4502  0.4946 -0.3271
  162SOPE    HB18117   6.629   3.413  10.937 -0.2917 -0.2242 -0.4462
  162SOPE    C218118   6.631   3.345  10.733 -0.2402 -0.5299  0.8039
  162SOPE    HS18119   6.619   3.238  10.705 -0.6995  0.0940 -1.4728
  162SOPE   O2118120   6.728   3.403  10.641 -0.3219 -0.5337  0.4505
  162SOPE   C2118121   6.829   3.339  10.606  0.2996 -0.0195 -0.4048
  162SOPE   O2218122   6.858   3.220  10.624  0.1635 -0.8077  0.5624
  162SOPE   C2218123   6.922   3.436  10.532  0.2617 -0.0087  0.0522
  162SOPE   H2R18124   7.005   3.378  10.488  0.8022  0.7339  0.0847
  162SOPE   H2S18125   6.964   3.508  10.606  0.6774 -1.4957  1.2861
  162SOPE    C318126   6.489   3.416  10.725 -0.6834  0.0946 -0.4441
  162SOPE    HX18127   6.493   3.507  10.789  1.0641 -0.0121 -0.3612
  162SOPE    HY18128   6.413   3.356  10.778  0.1564 -0.1937  0.4498
  162SOPE   O3118129   6.458   3.432  10.581 -0.1532 -0.4418  0.0682
  162SOPE   C3118130   6.445   3.553  10.532 -0.6598  0.0847 -0.5875
  162SOPE   O3218131   6.475   3.655  10.589  0.0195  0.1057  0.1088
  162SOPE   C3218132   6.372   3.549  10.403 -0.3786 -0.4057  1.3332
  162SOPE   H2X18133   6.276   3.598  10.427 -0.5379 -0.8016  1.4985
  162SOPE   H2Y18134   6.360   3.444  10.370  0.3927  0.5775 -2.2850
  162SOPE   C2318135   6.854   3.495  10.413 -0.2406 -0.0372  0.6219
  162SOPE   H3R18136   6.804   3.571  10.477 -0.0403 -0.7974  1.6734
  162SOPE   H3S18137   6.787   3.418  10.370 -1.4380  2.8875 -3.0888
  162SOPE   C2418138   6.947   3.545  10.297  0.1871 -0.3684  0.0548
  162SOPE   H4R18139   7.031   3.606  10.336  1.3151 -1.3565 -0.7809
  162SOPE   H4S18140   6.994   3.457  10.248  0.1741 -0.8403  0.8802
  162SOPE   C2518141   6.868   3.625  10.198 -0.9471 -0.2424  0.7299
  162SOPE   H5R18142   6.781   3.560  10.172 -2.0773  1.5410  0.0017
  162SOPE   H5S18143   6.834   3.725  10.233 -0.1805 -0.3711  1.8721
  162SOPE   C2618144   6.951   3.651  10.069 -0.1210  0.0548  0.2059
  162SOPE   H6R18145   6.877   3.699  10.001 -0.2531  1.2038  1.1385
  162SOPE   H6S18146   7.033   3.722  10.093  1.4405 -0.9966 -1.9539
  162SOPE   C2718147   7.026   3.548   9.989 -0.8161 -0.2439 -0.1414
  162SOPE   H7R18148   7.116   3.498  10.030 -0.0627  1.3167  0.1408
  162SOPE   H7S18149   6.959   3.459   9.986  2.0168 -2.4844 -0.0866
  162SOPE   C2818150   7.061   3.597   9.845 -0.3175  1.1082  0.3322
  162SOPE   H8R18151   7.120   3.520   9.792 -0.5877 -0.5372  2.3629
  162SOPE   H8S18152   6.968   3.604   9.786  2.1663  0.5292 -3.8303
  162SOPE   C2918153   7.136   3.728   9.837  0.0384  0.1003 -0.1688
  162SOPE   H9118154   7.173   3.769   9.932  0.3978  2.6510 -1.3559
  162SOPE  C21018155   7.161   3.800   9.731 -0.0031  0.1738 -0.2006
  162SOPE  H10118156   7.220   3.891   9.752 -0.4338  0.3987  0.0460
  162SOPE  C21118157   7.138   3.750   9.592  0.1016 -0.1525 -0.4550
  162SOPE  H11R18158   7.098   3.646   9.590  1.1070 -0.5536  0.3165
  162SOPE  H11S18159   7.235   3.751   9.539  0.1000 -0.3747 -0.4610
  162SOPE  C21218160   7.045   3.841   9.509  0.1872  0.8874 -0.2006
  162SOPE  H12R18161   7.076   3.945   9.487 -1.6330  1.7559  1.2096
  162SOPE  H12S18162   6.953   3.848   9.571 -0.6855 -3.0843 -0.8829
  162SOPE  C21318163   7.014   3.782   9.375 -0.0185 -0.0446  1.6166
  162SOPE  H13R18164   6.966   3.682   9.371  0.5873 -0.2614 -1.8024
  162SOPE  H13S18165   7.115   3.778   9.329 -1.2510  0.3805 -1.2479
  162SOPE  C21418166   6.929   3.878   9.287  0.3592 -0.5020  0.2403
  162SOPE  H14R18167   6.975   3.979   9.297 -0.8651  0.0605  0.3263
  162SOPE  H14S18168   6.828   3.880   9.335  0.8443 -1.9204  1.3421
  162SOPE  C21518169   6.918   3.809   9.145  0.0466 -0.0436 -0.4121
  162SOPE  H15R18170   6.873   3.709   9.162 -0.4171  0.4349  1.2930
  162SOPE  H15S18171   7.017   3.779   9.105  0.5385  0.0898  0.6781
  162SOPE  C21618172   6.832   3.879   9.038 -0.3895 -0.1427 -1.2716
  162SOPE  H16R18173   6.733   3.900   9.083  0.0840  2.0325 -1.1687
  162SOPE  H16S18174   6.811   3.802   8.960  2.1436 -0.6429 -1.5058
  162SOPE  C21718175   6.907   3.993   8.973  0.0892 -0.5198  0.4719
  162SOPE  H17R18176   6.951   4.056   9.053 -0.4559 -0.3269  0.6213
  162SOPE  H17S18177   6.833   4.045   8.908  1.3712 -0.1185 -0.6914
  162SOPE  C21818178   7.012   3.929   8.879  1.0731  0.0995  0.9598
  162SOPE  H18R18179   7.070   4.008   8.827 -0.4818  0.1750 -0.6990
  162SOPE  H18S18180   6.959   3.867   8.804  1.0512  0.7588  0.4220
  162SOPE  H18T18181   7.086   3.862   8.928  1.1922 -0.5346 -0.0849
  162SOPE   C3318182   6.450   3.648  10.308 -0.0800 -0.0980 -0.3780
  162SOPE   H3X18183   6.558   3.623  10.322 -0.8265 -2.5061  1.4830
  162SOPE   H3Y18184   6.431   3.750  10.345  1.7523  0.1481 -0.0434
  162SOPE   C3418185   6.395   3.653  10.169  0.4511  0.2073  0.3280
  162SOPE   H4X18186   6.417   3.753  10.126 -0.8976  0.7531  0.8615
  162SOPE   H4Y18187   6.284   3.645  10.168  0.5621 -1.4117 -0.6137
  162SOPE   C3518188   6.463   3.557  10.080  0.6396 -0.2578 -0.0476
  162SOPE   H5X18189   6.468   3.469  10.148 -2.2792 -0.5702 -0.1713
  162SOPE   H5Y18190   6.569   3.588  10.069 -0.4142  1.9205 -5.1827
  162SOPE   C3618191   6.394   3.513   9.953 -0.7977 -0.1316  0.9524
  162SOPE   H6X18192   6.378   3.595   9.880 -0.3029 -1.3274 -0.5379
  162SOPE   H6Y18193   6.289   3.487   9.978 -1.1399  0.7527  0.4705
  162SOPE   C3718194   6.457   3.395   9.875  0.1437  0.1491 -1.6326
  162SOPE   H7X18195   6.432   3.302   9.930  1.6448  1.6637  1.7489
  162SOPE   H7Y18196   6.568   3.391   9.866  0.5500 -1.5747  2.9228
  162SOPE   C3818197   6.386   3.393   9.740 -0.2995 -0.2461  0.2185
  162SOPE   H8X18198   6.405   3.481   9.674  3.1431 -1.5976 -0.6933
  162SOPE   H8Y18199   6.279   3.417   9.755 -0.6681 -1.2874 -0.6903
  162SOPE   C3918200   6.395   3.265   9.656 -0.2463  0.2906 -0.0145
  162SOPE   H9X18201   6.324   3.186   9.686  2.6861 -2.6095 -0.4188
  162SOPE   H9Y18202   6.495   3.217   9.670 -0.4332  0.4420  1.9702
  162SOPE  C31018203   6.367   3.285   9.512  0.3976 -0.5542  0.1455
  162SOPE  H10X18204   6.442   3.356   9.473 -0.5973  0.1321 -0.5429
  162SOPE  H10Y18205   6.269   3.336   9.497 -0.5041 -1.9945  0.9460
  162SOPE  C31118206   6.361   3.148   9.437  0.1981  0.7592 -0.0902
  162SOPE  H11X18207   6.269   3.096   9.472  0.3066  1.0739  0.6757
  162SOPE  H11Y18208   6.454   3.097   9.470 -0.2862 -1.2578 -1.7322
  162SOPE  C31218209   6.347   3.158   9.282 -0.1387  0.1353  0.3460
  162SOPE  H12X18210   6.330   3.055   9.245 -1.8725  0.8689 -0.9865
  162SOPE  H12Y18211   6.449   3.193   9.254 -0.4249  2.3560  1.8955
  162SOPE  C31318212   6.239   3.256   9.220 -0.4781  0.3389  0.9169
  162SOPE  H13X18213   6.252   3.354   9.270 -0.8538 -0.1248  1.9402
  162SOPE  H13Y18214   6.140   3.223   9.258 -0.3645  0.3104  1.1923
  162SOPE  C31418215   6.255   3.275   9.072 -0.0345 -0.5964  0.6759
  162SOPE  H14X18216   6.223   3.182   9.020 -1.0359 -0.1662  0.5106
  162SOPE  H14Y18217   6.362   3.292   9.049 -0.7373  0.8643 -1.6826
  162SOPE  C31518218   6.175   3.396   9.019  0.1648 -0.2056  0.1963
  162SOPE  H15X18219   6.205   3.490   9.070 -2.4003 -1.2258  3.8425
  162SOPE  H15Y18220   6.071   3.383   9.055 -0.4819 -2.1213 -2.2429
  162SOPE  C31618221   6.169   3.410   8.868  0.0973 -0.1396  0.3009
  162SOPE  H16X18222   6.126   3.511   8.849  0.4983 -0.1426 -0.6284
  162SOPE  H16Y18223   6.104   3.335   8.819 -0.3010  0.6436 -0.3785
  162SOPE  C31718224   6.301   3.392   8.797 -0.6643  0.0007 -0.4374
  162SOPE  H17X18225   6.355   3.297   8.817  3.4165  1.8275 -2.0884
  162SOPE  H17Y18226   6.361   3.476   8.838  0.8132 -0.1130 -2.3024
  162SOPE  C31818227   6.271   3.418   8.648 -0.0460  0.6249 -0.6593
  162SOPE  H18X18228   6.216   3.514   8.647 -0.3570  0.5623  3.4362
  162SOPE  H18Y18229   6.215   3.334   8.603 -0.3606  0.3802  0.1790
  162SOPE  H18Z18230   6.361   3.436   8.585  0.0405 -1.4823 -1.1832
  163SOPE     N18231   6.608   1.083  10.940  0.6979 -0.2553  0.6089
  163SOPE   HN118232   6.560   1.038  10.859  0.1436  0.1349  0.7197
  163SOPE   HN218233   6.541   1.144  10.991 -2.2660 -1.6421 -1.4931
  163SOPE   HN318234   6.683   1.139  10.896  2.3872 -2.1185  1.0185
  163SOPE   C1218235   6.656   0.975  11.038 -0.2211 -0.4758  0.6928
  163SOPE  H12A18236   6.615   0.879  11.001  0.6007 -0.1371 -1.1406
  163SOPE  H12B18237   6.610   1.012  11.132 -1.9735  3.3570 -1.5571
  163SOPE   C1118238   6.805   0.984  11.039  0.0605  0.2159 -0.7809
  163SOPE  H11A18239   6.849   0.918  11.117 -1.0507  0.1726 -0.1834
  163SOPE  H11B18240   6.840   1.086  11.065 -1.1483  0.1759  1.1077
  163SOPE     P18241   6.930   0.805  10.893  0.2455 -0.2307  0.0495
  163SOPE   O1318242   6.868   0.707  10.981 -0.3524 -0.2462 -0.7469
  163SOPE   O1418243   7.076   0.819  10.914  0.4666 -0.2206 -0.3109
  163SOPE   O1218244   6.861   0.941  10.912 -0.3057  0.5178  0.2968
  163SOPE   O1118245   6.903   0.752  10.745  0.4245 -0.1444  0.3327
  163SOPE    C118246   6.995   0.777  10.641 -0.0639  0.2734 -0.3126
  163SOPE    HA18247   6.965   0.709  10.558  0.7395 -1.7480  1.0266
  163SOPE    HB18248   7.100   0.746  10.661 -0.2368 -2.1820 -2.9041
  163SOPE    C218249   6.990   0.925  10.583  0.6789  0.1975  0.4745
  163SOPE    HS18250   7.055   0.980  10.655  0.9607 -0.3943  0.6795
  163SOPE   O2118251   6.855   0.970  10.591  0.4301 -0.4150 -0.4558
  163SOPE   C2118252   6.832   1.102  10.560 -0.7540  0.5989 -1.1402
  163SOPE   O2218253   6.919   1.179  10.530 -0.5592 -0.2816  0.2791
  163SOPE   C2218254   6.684   1.137  10.565  0.7077  0.3497 -0.0078
  163SOPE   H2R18255   6.675   1.221  10.637  0.8513 -0.7199  1.2800
  163SOPE   H2S18256   6.637   1.043  10.600 -0.7746  0.7198 -0.9254
  163SOPE    C318257   7.040   0.919  10.436 -0.2982  0.8365  1.0465
  163SOPE    HX18258   7.054   1.019  10.389  0.3982  0.2151 -0.0879
  163SOPE    HY18259   6.957   0.864  10.387  1.1661  0.1595 -0.7499
  163SOPE   O3118260   7.164   0.842  10.422 -0.4380 -0.4282 -0.3475
  163SOPE   C3118261   7.271   0.904  10.447  0.3767 -0.5997 -0.0132
  163SOPE   O3218262   7.284   1.023  10.479 -0.1679  0.7111  0.2571
  163SOPE   C3218263   7.391   0.808  10.447  0.3038 -0.1982 -0.2342
  163SOPE   H2X18264   7.400   0.757  10.545  0.0955 -0.3985 -0.3181
  163SOPE   H2Y18265   7.477   0.878  10.442  0.8564 -0.8547  0.1014
  163SOPE   C2318266   6.621   1.167  10.427  0.1207  0.2611  0.3780
  163SOPE   H3R18267   6.678   1.255  10.390  2.4888 -1.3387  0.1802
  163SOPE   H3S18268   6.527   1.218  10.458  1.7267  3.9606 -0.5612
  163SOPE   C2418269   6.610   1.059  10.320  0.6951  0.0793 -0.0957
  163SOPE   H4R18270   6.715   1.034  10.295 -0.1774 -0.9111 -2.9102
  163SOPE   H4S18271   6.571   0.962  10.358 -1.1697 -0.0221 -2.1746
  163SOPE   C2518272   6.535   1.104  10.197  0.1353  0.1422 -0.3067
  163SOPE   H5R18273   6.429   1.128  10.217 -0.4274 -1.9324 -0.6362
  163SOPE   H5S18274   6.589   1.189  10.151 -0.0356 -0.6418 -1.9934
  163SOPE   C2618275   6.542   0.982  10.102  0.4516 -0.3350 -0.4836
  163SOPE   H6R18276   6.645   0.954  10.073  0.7911  1.2678 -0.8672
  163SOPE   H6S18277   6.481   0.899  10.144 -0.7176  1.4097  1.4110
  163SOPE   C2718278   6.480   1.020   9.966 -0.0966 -0.5047  0.3145
  163SOPE   H7R18279   6.386   1.080   9.967  1.9567  2.8672 -0.8670
  163SOPE   H7S18280   6.556   1.076   9.908 -0.7222  0.0818  0.0561
  163SOPE   C2818281   6.440   0.889   9.887  0.1925 -0.4539 -0.2741
  163SOPE   H8R18282   6.375   0.840   9.963 -0.7226  1.9333  0.5182
  163SOPE   H8S18283   6.377   0.918   9.800  1.0384  2.7744  0.1333
  163SOPE   C2918284   6.532   0.782   9.849 -0.6813  0.0322 -0.2605
  163SOPE   H9118285   6.605   0.760   9.929  1.3550  1.9161 -1.5450
  163SOPE  C21018286   6.548   0.723   9.731  0.5599 -0.2193 -1.0522
  163SOPE  H10118287   6.611   0.633   9.735  1.7345  0.6190 -0.3374
  163SOPE  C21118288   6.464   0.745   9.605 -0.6134 -1.2649 -0.1173
  163SOPE  H11R18289   6.360   0.777   9.630 -0.1752 -0.4116  0.6610
  163SOPE  H11S18290   6.449   0.649   9.552 -1.1039 -1.4308  0.3125
  163SOPE  C21218291   6.530   0.848   9.509  0.9355  0.3196  0.9474
  163SOPE  H12R18292   6.639   0.830   9.503  0.5673 -1.6749 -0.1600
  163SOPE  H12S18293   6.520   0.950   9.552 -1.0688  0.4122  0.3102
  163SOPE  C21318294   6.461   0.846   9.371  0.5907  0.9084 -0.0009
  163SOPE  H13R18295   6.351   0.859   9.369  0.1901 -1.3909  2.9381
  163SOPE  H13S18296   6.470   0.752   9.313  1.2346  0.8066  0.2583
  163SOPE  C21418297   6.534   0.940   9.269  0.4289  0.0123 -0.2565
  163SOPE  H14R18298   6.642   0.921   9.254  0.3725 -1.3670  1.0457
  163SOPE  H14S18299   6.525   1.038   9.321  0.1717 -0.2861  0.2535
  163SOPE  C21518300   6.486   0.947   9.126 -0.5906  0.2529  0.3462
  163SOPE  H15R18301   6.379   0.977   9.130 -0.8643 -0.6754  0.0694
  163SOPE  H15S18302   6.508   0.854   9.070 -0.7379  0.9817 -0.9606
  163SOPE  C21618303   6.553   1.063   9.051 -0.6356 -0.2969  0.1026
  163SOPE  H16R18304   6.658   1.029   9.063 -0.1975  1.3691  1.1699
  163SOPE  H16S18305   6.537   1.157   9.108 -0.1332 -0.4470  0.4963
  163SOPE  C21718306   6.522   1.081   8.911 -0.7090  0.4966 -0.3287
  163SOPE  H17R18307   6.414   1.083   8.888 -0.7896  0.3145  0.0336
  163SOPE  H17S18308   6.566   0.997   8.852 -0.8940  0.4579 -0.4116
  163SOPE  C21818309   6.589   1.204   8.863  0.1031  0.9454  0.4838
  163SOPE  H18R18310   6.545   1.228   8.764  2.4123  0.4269 -0.7175
  163SOPE  H18S18311   6.700   1.210   8.868  0.0354  2.6746  0.3151
  163SOPE  H18T18312   6.555   1.291   8.924  0.0538  1.3186 -0.0756
  163SOPE   C3318313   7.382   0.706  10.333 -0.3339  0.0428 -0.1231
  163SOPE   H3X18314   7.299   0.633  10.342 -0.2959  0.1460  1.1566
  163SOPE   H3Y18315   7.475   0.644  10.336  0.6824  1.4653 -1.2831
  163SOPE   C3418316   7.397   0.758  10.186  0.2214  0.4085  0.0507
  163SOPE   H4X18317   7.491   0.816  10.176  1.2922 -1.0018  1.6422
  163SOPE   H4Y18318   7.306   0.819  10.167 -1.1341 -1.3627  0.6312
  163SOPE   C3518319   7.397   0.651  10.069  0.6148  0.3793 -0.4805
  163SOPE   H5X18320   7.294   0.637  10.031 -0.0984  2.6228  0.5350
  163SOPE   H5Y18321   7.437   0.560  10.119  0.1181  0.2324 -0.3477
  163SOPE   C3618322   7.470   0.703   9.946  0.1844  0.9235  0.1093
  163SOPE   H6X18323   7.578   0.712   9.969  0.9110  0.0648 -2.7756
  163SOPE   H6Y18324   7.427   0.802   9.920 -2.2710 -0.0169  0.3728
  163SOPE   C3718325   7.456   0.597   9.829  0.1152 -0.5556  0.3876
  163SOPE   H7X18326   7.351   0.560   9.828 -0.0918  0.0301 -0.4239
  163SOPE   H7Y18327   7.509   0.504   9.860  0.3160 -0.0856  1.4947
  163SOPE   C3818328   7.497   0.654   9.690  0.2671  0.0872 -0.5041
  163SOPE   H8X18329   7.597   0.701   9.693  1.2315 -1.9374  0.4531
  163SOPE   H8Y18330   7.425   0.732   9.659 -1.1708 -1.4283 -1.0515
  163SOPE   C3918331   7.486   0.549   9.581 -0.0831  0.0532 -0.1547
  163SOPE   H9X18332   7.390   0.493   9.585  0.6918 -1.2530  0.7891
  163SOPE   H9Y18333   7.563   0.469   9.581  1.1421  1.2103  1.6287
  163SOPE  C31018334   7.483   0.615   9.439 -0.2350  0.1897  0.0889
  163SOPE  H10X18335   7.574   0.679   9.432  0.8693 -1.3026  0.5759
  163SOPE  H10Y18336   7.402   0.691   9.430 -0.3358  0.0656 -0.0614
  163SOPE  C31118337   7.473   0.514   9.320  0.7399 -0.1691 -0.7234
  163SOPE  H11X18338   7.374   0.464   9.311  0.6318 -0.8160  3.1481
  163SOPE  H11Y18339   7.554   0.441   9.340  0.0170 -0.8829 -0.3641
  163SOPE  C31218340   7.512   0.568   9.182 -0.5552 -0.6614  0.2040
  163SOPE  H12X18341   7.542   0.477   9.125  1.0668  1.3060 -2.1854
  163SOPE  H12Y18342   7.592   0.644   9.186 -0.9219 -0.2526 -0.0400
  163SOPE  C31318343   7.400   0.636   9.107 -0.2085 -0.3521  0.1548
  163SOPE  H13X18344   7.346   0.716   9.163  1.4695  0.3143  0.8513
  163SOPE  H13Y18345   7.319   0.561   9.097  0.9663 -1.5907 -0.2728
  163SOPE  C31418346   7.452   0.684   8.972 -0.0258  0.6875 -0.0072
  163SOPE  H14X18347   7.498   0.596   8.922 -0.0470 -0.9362  2.7193
  163SOPE  H14Y18348   7.526   0.766   8.967  1.5844 -0.9359 -3.9947
  163SOPE  C31518349   7.329   0.729   8.881  0.4450 -0.2002  0.0366
  163SOPE  H15X18350   7.290   0.826   8.919  1.4314  0.9241 -1.6901
  163SOPE  H15Y18351   7.243   0.660   8.887 -0.9465  1.2604 -2.0707
  163SOPE  C31618352   7.365   0.736   8.730 -0.5428 -0.2727  0.5347
  163SOPE  H16X18353   7.413   0.653   8.672  1.2851 -0.0972  1.7531
  163SOPE  H16Y18354   7.443   0.815   8.725  0.7381 -1.5509 -0.1770
  163SOPE  C31718355   7.247   0.773   8.636 -1.1041  0.2389 -0.6617
  163SOPE  H17X18356   7.207   0.865   8.683 -0.5832  0.6004 -0.9190
  163SOPE  H17Y18357   7.174   0.692   8.654  0.1236 -0.9373 -0.9250
  163SOPE  C31818358   7.272   0.789   8.489 -0.5367  0.3784 -0.0448
  163SOPE  H18X18359   7.339   0.710   8.450 -0.7758 -0.5139  1.2940
  163SOPE  H18Y18360   7.317   0.890   8.481  0.8907 -0.4792 -3.4960
  163SOPE  H18Z18361   7.187   0.796   8.418  1.2731  1.2172 -2.1795
  164SOPE     N18362   3.726   5.601  10.933  0.2323 -0.1681 -0.3818
  164SOPE   HN118363   3.776   5.537  10.998  0.6705  2.1057  1.5872
  164SOPE   HN218364   3.661   5.648  10.999  1.9813  1.4996  0.1557
  164SOPE   HN318365   3.674   5.542  10.864 -0.1757 -1.0720  0.6816
  164SOPE   C1218366   3.817   5.701  10.869  0.1860 -0.8584  0.2403
  164SOPE  H12A18367   3.885   5.640  10.806 -0.5711 -1.1518 -0.3030
  164SOPE  H12B18368   3.862   5.764  10.948 -0.3955 -1.5299  1.1201
  164SOPE   C1118369   3.736   5.785  10.763 -1.0613  0.0461  0.4066
  164SOPE  H11A18370   3.705   5.705  10.693  1.0646  0.6314 -1.2802
  164SOPE  H11B18371   3.798   5.847  10.695 -1.8318  0.0851 -0.2614
  164SOPE     P18372   3.669   6.013  10.873  0.3868  0.2185 -0.2923
  164SOPE   O1318373   3.811   6.031  10.911 -0.1301 -0.2127  0.1165
  164SOPE   O1418374   3.561   6.057  10.963  0.2825  0.6582  0.3425
  164SOPE   O1218375   3.634   5.862  10.837  0.3359 -0.1228 -0.3773
  164SOPE   O1118376   3.646   6.086  10.738  0.0672  0.0325  0.7512
  164SOPE    C118377   3.522   6.088  10.659  0.7786 -0.8744 -0.2759
  164SOPE    HA18378   3.506   6.194  10.631  0.0559 -0.6116  1.0933
  164SOPE    HB18379   3.437   6.033  10.705  0.8777 -0.4853  0.3873
  164SOPE    C218380   3.535   6.010  10.523  0.2526 -0.4508 -1.0830
  164SOPE    HS18381   3.543   5.903  10.549  2.6768  0.3046  1.4015
  164SOPE   O2118382   3.649   6.060  10.451  0.2435 -0.5082 -0.8095
  164SOPE   C2118383   3.732   5.978  10.393  0.5769 -0.4091  0.6438
  164SOPE   O2218384   3.739   5.859  10.405  0.3706  0.1887  0.4617
  164SOPE   C2218385   3.814   6.070  10.301 -0.1975  0.1633  0.1399
  164SOPE   H2R18386   3.889   6.121  10.364  2.2868 -2.2362 -0.7535
  164SOPE   H2S18387   3.754   6.149  10.251 -0.5766  1.1242  2.0565
  164SOPE    C318388   3.410   6.036  10.435 -0.1709 -0.3661 -0.4669
  164SOPE    HX18389   3.422   6.132  10.381 -2.3019  1.8260  2.7196
  164SOPE    HY18390   3.328   6.058  10.506  0.5618  0.4078  0.1504
  164SOPE   O3118391   3.386   5.924  10.347  0.0107 -0.3337 -0.5337
  164SOPE   C3118392   3.415   5.942  10.224 -0.3997 -0.5006  0.5984
  164SOPE   O3218393   3.480   6.031  10.174  0.1432 -0.1462  0.2909
  164SOPE   C3218394   3.367   5.820  10.147 -0.6226  0.3991 -0.0857
  164SOPE   H2X18395   3.257   5.828  10.159 -0.3327  1.1735  2.2813
  164SOPE   H2Y18396   3.403   5.733  10.206  1.2679  0.4432 -1.1133
  164SOPE   C2318397   3.897   5.996  10.196 -0.2973  0.4382 -0.1246
  164SOPE   H3R18398   3.924   5.897  10.239 -0.4965 -0.2157 -1.4756
  164SOPE   H3S18399   3.998   6.042  10.185 -0.9243  1.7970 -0.1755
  164SOPE   C2418400   3.823   5.987  10.063  0.0203  0.1692 -0.2810
  164SOPE   H4R18401   3.728   5.933  10.087 -1.2400  2.0988 -0.8536
  164SOPE   H4S18402   3.803   6.085  10.015 -0.4101  0.0842 -0.2734
  164SOPE   C2518403   3.893   5.907   9.959  0.1323  0.0906 -0.1121
  164SOPE   H5R18404   3.982   5.966   9.927 -1.3696  1.4237 -1.9756
  164SOPE   H5S18405   3.918   5.806   9.997  0.4737 -0.0892 -0.8146
  164SOPE   C2618406   3.807   5.894   9.831 -0.2578 -0.0576  0.0723
  164SOPE   H6R18407   3.709   5.854   9.863 -0.1451  0.3610  0.9638
  164SOPE   H6S18408   3.790   5.997   9.796  1.1962 -0.9459 -3.4660
  164SOPE   C2718409   3.863   5.807   9.721  0.2579  0.0923  0.8735
  164SOPE   H7R18410   3.960   5.841   9.679 -0.3682  1.4634  0.5094
  164SOPE   H7S18411   3.886   5.708   9.765  1.5082  0.7406  1.7094
  164SOPE   C2818412   3.774   5.801   9.593  0.1237 -0.7512 -0.2786
  164SOPE   H8R18413   3.666   5.794   9.620 -0.4500  0.5194 -2.1405
  164SOPE   H8S18414   3.783   5.897   9.538  0.1216 -0.2926  0.5212
  164SOPE   C2918415   3.829   5.690   9.518 -0.0288  0.5694  0.1022
  164SOPE   H9118416   3.849   5.600   9.579 -1.1935  1.6755  2.1779
  164SOPE  C21018417   3.839   5.690   9.385  0.5770 -0.6836 -0.3119
  164SOPE  H10118418   3.882   5.604   9.331 -0.2845 -1.3278  0.0137
  164SOPE  C21118419   3.802   5.808   9.293  0.1096 -0.1779  0.3817
  164SOPE  H11R18420   3.723   5.875   9.332  1.0479  2.2740 -1.7458
  164SOPE  H11S18421   3.764   5.774   9.194 -1.2971  2.4806 -0.0441
  164SOPE  C21218422   3.919   5.901   9.264 -0.2868 -0.0351 -0.0879
  164SOPE  H12R18423   3.993   5.840   9.208  2.1797  2.1161  0.7411
  164SOPE  H12S18424   3.962   5.933   9.362 -1.2338 -0.1449  0.3633
  164SOPE  C21318425   3.886   6.028   9.188 -0.1813  0.1824  0.0055
  164SOPE  H13R18426   3.978   6.090   9.196  0.1289 -0.4195  1.1321
  164SOPE  H13S18427   3.804   6.088   9.232 -0.4163  1.0198 -1.5572
  164SOPE  C21418428   3.850   6.003   9.040 -0.1327 -0.0871 -0.8544
  164SOPE  H14R18429   3.777   5.920   9.037 -0.0924 -0.2061  0.7207
  164SOPE  H14S18430   3.936   5.964   8.981 -0.8450 -0.7807 -1.4326
  164SOPE  C21518431   3.780   6.127   8.975 -0.3167  0.2404  0.3816
  164SOPE  H15R18432   3.862   6.201   8.969  0.0204 -0.1474  0.1540
  164SOPE  H15S18433   3.704   6.175   9.040 -0.2556 -0.2992  0.8552
  164SOPE  C21618434   3.718   6.086   8.837  0.3044 -0.0667 -0.2141
  164SOPE  H16R18435   3.658   6.172   8.798 -0.8739  0.3354  2.3373
  164SOPE  H16S18436   3.649   6.001   8.853 -1.6976  1.5733  0.2126
  164SOPE  C21718437   3.828   6.047   8.739 -0.8599 -0.5655  1.1072
  164SOPE  H17R18438   3.869   5.951   8.776 -0.6622 -0.8667  0.1265
  164SOPE  H17S18439   3.910   6.121   8.725 -1.1420 -1.0650 -4.1740
  164SOPE  C21818440   3.775   6.031   8.597 -0.5737  0.5888 -0.0980
  164SOPE  H18R18441   3.864   5.988   8.547 -0.6471  1.9853 -1.4548
  164SOPE  H18S18442   3.762   6.130   8.548  1.0132  0.0445 -1.6575
  164SOPE  H18T18443   3.697   5.953   8.607  0.7022 -0.9712 -2.0847
  164SOPE   C3318444   3.409   5.814   9.996 -0.5967  0.0452 -0.1395
  164SOPE   H3X18445   3.520   5.810  10.002 -0.6681  0.4541  1.5277
  164SOPE   H3Y18446   3.372   5.906   9.945 -0.0453 -1.0907 -2.6706
  164SOPE   C3418447   3.357   5.691   9.919 -1.3089 -0.8329 -0.3586
  164SOPE   H4X18448   3.248   5.676   9.928 -1.3636 -0.7339 -0.8296
  164SOPE   H4Y18449   3.405   5.607   9.975 -0.5215  0.9037  1.6439
  164SOPE   C3518450   3.410   5.705   9.780  0.3148  0.5812  0.3935
  164SOPE   H5X18451   3.520   5.704   9.768  0.0375  0.9072 -2.8035
  164SOPE   H5Y18452   3.369   5.795   9.729  0.9696  0.9704  0.5501
  164SOPE   C3618453   3.372   5.585   9.690  0.4454  0.6686  0.0650
  164SOPE   H6X18454   3.263   5.561   9.700  0.4055  1.0278  0.4829
  164SOPE   H6Y18455   3.420   5.491   9.724 -0.1629  0.6247  0.8160
  164SOPE   C3718456   3.392   5.606   9.533  0.2631  0.2381 -0.8559
  164SOPE   H7X18457   3.345   5.515   9.491  1.4282 -0.7444 -0.0387
  164SOPE   H7Y18458   3.500   5.607   9.510  0.0185 -0.1733 -2.0650
  164SOPE   C3818459   3.337   5.733   9.469 -0.9679  0.3596  0.2847
  164SOPE   H8X18460   3.408   5.815   9.495  0.0870 -0.4086 -0.1321
  164SOPE   H8Y18461   3.242   5.757   9.521 -0.2344  0.6998  1.4983
  164SOPE   C3918462   3.322   5.726   9.319 -0.2593 -0.1529 -0.7510
  164SOPE   H9X18463   3.240   5.795   9.290  1.5904  2.8672  0.9056
  164SOPE   H9Y18464   3.279   5.628   9.290  0.5464 -0.0415 -2.4164
  164SOPE  C31018465   3.450   5.769   9.247  0.1259 -0.5289 -0.0910
  164SOPE  H10X18466   3.520   5.685   9.270 -1.8291 -2.3990 -0.7663
  164SOPE  H10Y18467   3.492   5.861   9.293 -0.8712 -0.3164  0.4186
  164SOPE  C31118468   3.438   5.769   9.092  0.6634 -0.2110 -0.2633
  164SOPE  H11X18469   3.387   5.676   9.057 -0.4756  0.5507 -0.6350
  164SOPE  H11Y18470   3.541   5.766   9.050  0.6686 -2.7339 -0.1836
  164SOPE  C31218471   3.345   5.886   9.049 -0.1235 -1.0973 -0.0817
  164SOPE  H12X18472   3.391   5.985   9.068 -0.2288 -0.7537 -1.5058
  164SOPE  H12Y18473   3.252   5.871   9.107  0.1360 -3.1157 -0.1416
  164SOPE  C31318474   3.325   5.885   8.902 -1.0196 -0.0414  0.9448
  164SOPE  H13X18475   3.234   5.821   8.893 -1.4617  0.6420  0.4438
  164SOPE  H13Y18476   3.397   5.816   8.854 -0.0012  0.5074  1.6647
  164SOPE  C31418477   3.323   6.018   8.832  0.4643 -1.1314  0.5346
  164SOPE  H14X18478   3.428   6.053   8.842  0.9358 -2.1043 -0.8621
  164SOPE  H14Y18479   3.254   6.079   8.893  0.0586 -2.4827  1.4536
  164SOPE  C31518480   3.299   6.002   8.682 -0.3095 -0.4464 -0.4591
  164SOPE  H15X18481   3.357   5.914   8.647  0.6508 -0.6825  1.6389
  164SOPE  H15Y18482   3.340   6.094   8.633  1.2067 -1.0208 -0.3187
  164SOPE  C31618483   3.146   5.990   8.649  0.1604  0.1230  0.5132
  164SOPE  H16X18484   3.091   6.079   8.686  0.9633  1.5838 -1.6819
  164SOPE  H16Y18485   3.105   5.900   8.698  1.8949 -0.7371  0.4383
  164SOPE  C31718486   3.116   5.982   8.501 -0.1245  0.1026  0.4154
  164SOPE  H17X18487   3.174   5.897   8.460 -1.4705 -0.9821  0.7095
  164SOPE  H17Y18488   3.157   6.076   8.460 -0.7904  0.1246 -0.1960
  164SOPE  C31818489   2.967   5.965   8.468 -0.4102 -1.1321 -0.4222
  164SOPE  H18X18490   2.927   5.878   8.522  1.7848 -3.0038 -1.7104
  164SOPE  H18Y18491   2.943   5.961   8.360 -0.3573 -1.7280 -0.4106
  164SOPE  H18Z18492   2.919   6.059   8.505  2.0981 -0.7996  2.2631
  165SOPE     N18493   1.910   6.663  11.106  0.4682 -0.2010 -0.3942
  165SOPE   HN118494   1.912   6.635  11.207  0.0206 -1.8080 -0.8252
  165SOPE   HN218495   1.823   6.717  11.094  0.8085  0.6135  0.6734
  165SOPE   HN318496   1.908   6.585  11.038  1.4238  0.1800 -0.8799
  165SOPE   C1218497   2.029   6.745  11.079 -0.1036 -0.3065  0.3779
  165SOPE  H12A18498   2.107   6.668  11.060 -0.1475  0.0733 -1.5007
  165SOPE  H12B18499   2.048   6.817  11.161 -1.6977  2.5714 -1.6723
  165SOPE   C1118500   2.015   6.825  10.944  0.5525 -0.2466  0.5344
  165SOPE  H11A18501   2.003   6.756  10.858 -0.8500 -1.0613  1.3690
  165SOPE  H11B18502   2.113   6.878  10.940 -1.9335  4.5748  0.3448
  165SOPE     P18503   1.928   7.060  10.872 -0.1171 -0.1321  0.3852
  165SOPE   O1318504   2.037   7.137  10.928  0.0192 -0.4687  0.3255
  165SOPE   O1418505   1.796   7.119  10.841  0.0415  0.2354  0.3804
  165SOPE   O1218506   1.911   6.922  10.950 -0.4984  0.0285  0.1560
  165SOPE   O1118507   1.982   6.997  10.737  0.2588 -0.1918  0.4259
  165SOPE    C118508   2.070   7.092  10.664  0.2093  0.3122  0.2067
  165SOPE    HA18509   2.154   7.136  10.722 -0.2904  0.3874  0.8770
  165SOPE    HB18510   2.011   7.172  10.614  0.5381  0.9076  0.7672
  165SOPE    C218511   2.145   7.017  10.546  0.0214  0.2153  0.4957
  165SOPE    HS18512   2.199   7.097  10.490 -1.8271  1.8974  1.0496
  165SOPE   O2118513   2.055   6.944  10.463 -0.0575 -1.0862 -0.3564
  165SOPE   C2118514   1.993   7.016  10.385 -0.7594 -0.5040 -0.6475
  165SOPE   O2218515   1.989   7.138  10.382  0.9234  0.0332 -0.3471
  165SOPE   C2218516   1.899   6.921  10.296 -0.2524  0.3621  0.3674
  165SOPE   H2R18517   1.801   6.916  10.349  0.3172 -1.3447  1.2822
  165SOPE   H2S18518   1.936   6.818  10.313  0.0906  0.4644  0.2309
  165SOPE    C318519   2.233   6.901  10.610  0.6861 -0.2258 -0.4219
  165SOPE    HX18520   2.169   6.816  10.643  0.9590 -0.8482 -1.4626
  165SOPE    HY18521   2.284   6.940  10.700  0.5462  0.4366 -0.6262
  165SOPE   O3118522   2.335   6.848  10.512  0.4706 -0.3326  0.4247
  165SOPE   C3118523   2.440   6.916  10.497  0.1213  0.1556 -0.0311
  165SOPE   O3218524   2.464   7.032  10.535  0.3429 -0.7534  0.5022
  165SOPE   C3218525   2.539   6.837  10.407  1.1210  0.6784  0.4211
  165SOPE   H2X18526   2.476   6.781  10.334 -0.2649  0.9244  1.4007
  165SOPE   H2Y18527   2.595   6.764  10.469  1.8813  1.4318  0.6173
  165SOPE   C2318528   1.895   6.961  10.147 -0.1655 -0.0334  0.0531
  165SOPE   H3R18529   2.000   6.963  10.110 -0.7533  3.4721 -1.7218
  165SOPE   H3S18530   1.856   7.065  10.135 -0.7054 -0.1015  1.1590
  165SOPE   C2418531   1.812   6.861  10.059 -0.0802 -0.0476  0.3342
  165SOPE   H4R18532   1.857   6.761  10.045 -0.4110 -0.0189 -1.0698
  165SOPE   H4S18533   1.721   6.843  10.120  1.5201 -2.7480  2.0302
  165SOPE   C2518534   1.771   6.931   9.925  0.2593 -0.2561 -0.1032
  165SOPE   H5R18535   1.663   6.904   9.917 -0.2956  1.6228  0.7132
  165SOPE   H5S18536   1.776   7.041   9.935 -2.2229 -0.0659 -0.4550
  165SOPE   C2618537   1.849   6.889   9.808  0.9739  0.1711 -0.2318
  165SOPE   H6R18538   1.957   6.885   9.834  1.1025 -0.0315 -0.7718
  165SOPE   H6S18539   1.820   6.785   9.780 -0.5224  0.5949 -0.2936
  165SOPE   C2718540   1.818   6.973   9.684  0.5477  0.1034 -0.1399
  165SOPE   H7R18541   1.714   6.989   9.650  0.2017  0.1944  0.9551
  165SOPE   H7S18542   1.848   7.076   9.712  0.2566  0.3779 -0.8083
  165SOPE   C2818543   1.891   6.928   9.556 -0.5039  0.2923  0.0223
  165SOPE   H8R18544   1.999   6.912   9.571 -0.2907  1.5900 -0.0498
  165SOPE   H8S18545   1.845   6.833   9.520 -1.4812  1.1739 -1.0999
  165SOPE   C2918546   1.859   7.036   9.444  0.1146  0.5079 -0.7884
  165SOPE   H9118547   1.773   7.102   9.463 -0.0774 -0.0648  0.4384
  165SOPE  C21018548   1.917   7.046   9.323  0.4152 -0.1807 -0.0018
  165SOPE  H10118549   1.902   7.138   9.264 -1.7656 -2.1941 -2.6816
  165SOPE  C21118550   2.031   6.966   9.271  0.1958 -0.1075 -0.2578
  165SOPE  H11R18551   2.067   6.888   9.341 -1.5956 -1.6040 -0.9617
  165SOPE  H11S18552   2.113   7.039   9.253 -0.7423  1.2396  0.8411
  165SOPE  C21218553   2.005   6.887   9.140 -0.0690  0.4306 -0.5940
  165SOPE  H12R18554   1.926   6.809   9.154  0.2362 -0.0118 -1.3222
  165SOPE  H12S18555   2.089   6.823   9.105  0.8931  0.0074  2.3309
  165SOPE  C21318556   1.964   6.976   9.024  0.4748  0.6536 -0.5083
  165SOPE  H13R18557   2.038   7.055   8.997 -0.3419  1.2855 -0.9268
  165SOPE  H13S18558   1.869   7.026   9.054  0.0218 -0.9722  0.8342
  165SOPE  C21418559   1.930   6.902   8.896 -0.2285 -0.4632  0.0686
  165SOPE  H14R18560   1.831   6.859   8.873  0.1771  0.1242 -2.9117
  165SOPE  H14S18561   2.003   6.821   8.874  0.5316  0.4664 -0.8973
  165SOPE  C21518562   1.964   6.992   8.783  0.3554 -0.3791  0.1747
  165SOPE  H15R18563   2.074   7.008   8.793  0.1278  0.0879  2.1298
  165SOPE  H15S18564   1.904   7.085   8.790 -0.4795 -1.0964  3.2625
  165SOPE  C21618565   1.928   6.927   8.643 -0.2362 -0.1018 -0.1490
  165SOPE  H16R18566   1.818   6.909   8.641 -0.4240  0.8822  0.7900
  165SOPE  H16S18567   1.981   6.829   8.645  0.2777  0.1897  1.5769
  165SOPE  C21718568   1.973   7.012   8.521  0.0123 -0.5942 -0.5591
  165SOPE  H17R18569   1.930   7.114   8.523  0.6228 -0.3510  1.3795
  165SOPE  H17S18570   1.936   6.953   8.435  1.3719 -0.5521 -1.1820
  165SOPE  C21818571   2.125   7.023   8.510  0.0145 -0.3731 -0.6756
  165SOPE  H18R18572   2.146   7.056   8.406 -1.9836  0.4357 -0.8483
  165SOPE  H18S18573   2.187   6.933   8.532 -1.5352 -1.6825 -1.4898
  165SOPE  H18T18574   2.150   7.104   8.581  0.1135 -2.4200  1.6957
  165SOPE   C3318575   2.640   6.918  10.331  0.4498  0.5310 -0.5320
  165SOPE   H3X18576   2.727   6.851  10.315 -0.0958 -0.2439 -0.3121
  165SOPE   H3Y18577   2.672   7.010  10.385  0.6524  1.8785 -2.8884
  165SOPE   C3418578   2.595   6.956  10.193  0.3763 -0.3740 -0.0410
  165SOPE   H4X18579   2.611   6.859  10.141  2.8572 -0.2296  0.3740
  165SOPE   H4Y18580   2.656   7.035  10.143 -1.9234  0.4076 -1.7091
  165SOPE   C3518581   2.450   7.006  10.173  0.5259  0.2254 -0.3232
  165SOPE   H5X18582   2.432   7.080  10.254 -1.2533  2.2770 -2.5329
  165SOPE   H5Y18583   2.391   6.916  10.201  2.6837 -0.9234  0.6799
  165SOPE   C3618584   2.428   7.051  10.032 -0.0154 -1.2552 -0.7070
  165SOPE   H6X18585   2.430   6.969   9.957  0.2044 -1.9964  0.1033
  165SOPE   H6Y18586   2.496   7.136  10.008 -2.3526  0.7465 -0.5068
  165SOPE   C3718587   2.290   7.112  10.023  0.9989 -0.2536 -0.3893
  165SOPE   H7X18588   2.277   7.169  10.117  0.7860  0.1236 -0.6426
  165SOPE   H7Y18589   2.212   7.034  10.027  0.3308  0.5088  3.7564
  165SOPE   C3818590   2.267   7.196   9.892  0.5346 -0.0266 -0.3918
  165SOPE   H8X18591   2.330   7.287   9.896 -0.5199  0.7797 -1.8731
  165SOPE   H8Y18592   2.166   7.238   9.915  1.2613  0.8757  1.2189
  165SOPE   C3918593   2.281   7.120   9.759 -0.0313  0.6083 -1.0488
  165SOPE   H9X18594   2.217   7.033   9.733  1.9999 -1.0067 -0.7156
  165SOPE   H9Y18595   2.381   7.073   9.761 -0.4663 -0.3933 -1.9752
  165SOPE  C31018596   2.272   7.214   9.638  0.2783 -0.4453 -0.7772
  165SOPE  H10X18597   2.354   7.287   9.651 -0.3892  0.3149 -0.7791
  165SOPE  H10Y18598   2.175   7.268   9.648  1.2997  1.0898  1.2018
  165SOPE  C31118599   2.289   7.134   9.507 -0.9806 -0.0369  0.4762
  165SOPE  H11X18600   2.212   7.055   9.501 -1.8189  0.7669  0.5851
  165SOPE  H11Y18601   2.388   7.083   9.515 -1.2977 -0.5255  1.3466
  165SOPE  C31218602   2.282   7.224   9.381  0.7597 -0.2152  0.1041
  165SOPE  H12X18603   2.330   7.323   9.394  0.1690 -0.1870  2.2686
  165SOPE  H12Y18604   2.179   7.233   9.341 -0.0582  1.9280  2.5327
  165SOPE  C31318605   2.364   7.165   9.266 -0.8250 -0.5915  0.6006
  165SOPE  H13X18606   2.306   7.081   9.223  0.4469 -1.0949 -0.1771
  165SOPE  H13Y18607   2.455   7.122   9.312  0.8313  1.9794 -0.1351
  165SOPE  C31418608   2.387   7.263   9.150  0.4264  0.1687  0.3808
  165SOPE  H14X18609   2.450   7.212   9.074 -0.5833  0.7650 -0.8680
  165SOPE  H14Y18610   2.436   7.354   9.193 -3.2198  2.0636  0.7028
  165SOPE  C31518611   2.257   7.301   9.077  0.5993 -0.3705 -0.8551
  165SOPE  H15X18612   2.185   7.341   9.152  1.6325 -1.8796  0.9892
  165SOPE  H15Y18613   2.215   7.205   9.039 -1.3747  1.1918 -2.7867
  165SOPE  C31618614   2.276   7.411   8.969  0.1090  0.5388  0.0609
  165SOPE  H16X18615   2.171   7.429   8.936  0.5907  0.8154 -1.3428
  165SOPE  H16Y18616   2.337   7.373   8.885 -1.7688 -0.8422 -0.7194
  165SOPE  C31718617   2.323   7.547   9.022 -0.6108  0.5470  0.2714
  165SOPE  H17X18618   2.304   7.620   8.940  0.0198  1.0832  0.5964
  165SOPE  H17Y18619   2.433   7.549   9.037 -0.4893  2.2333 -0.7286
  165SOPE  C31818620   2.249   7.601   9.141 -0.6183  0.1925 -0.4656
  165SOPE  H18X18621   2.143   7.573   9.123 -0.0452 -3.5496  1.4058
  165SOPE  H18Y18622   2.270   7.710   9.132 -2.8410  0.6420 -0.5542
  165SOPE  H18Z18623   2.282   7.543   9.230 -1.9851 -3.1905 -2.0880
  166SOPE     N18624   5.536   0.415  10.940 -0.1835 -0.1668  0.1342
  166SOPE   HN118625   5.569   0.332  10.994  0.6425 -0.4152 -0.7316
  166SOPE   HN218626   5.518   0.495  11.004  0.4816 -0.5210  0.7863
  166SOPE   HN318627   5.441   0.392  10.906 -1.2312  3.1827  0.6261
  166SOPE   C1218628   5.627   0.456  10.831 -0.2163  0.8570  0.0768
  166SOPE  H12A18629   5.642   0.365  10.768 -1.8478 -0.2348  1.2395
  166SOPE  H12B18630   5.723   0.491  10.874  0.3412 -1.6332  0.9744
  166SOPE   C1118631   5.560   0.552  10.741  0.0246 -0.2795 -0.2769
  166SOPE  H11A18632   5.458   0.522  10.708 -0.4176  1.1483 -0.2522
  166SOPE  H11B18633   5.629   0.562  10.654 -1.6184  0.7288 -1.5041
  166SOPE     P18634   5.474   0.755  10.877 -0.1960 -0.2559  0.1345
  166SOPE   O1318635   5.524   0.892  10.881  0.2042 -0.1520 -0.0012
  166SOPE   O1418636   5.469   0.678  11.007 -0.7324 -0.0751 -0.1780
  166SOPE   O1218637   5.571   0.688  10.781  0.2029 -0.7876 -0.1251
  166SOPE   O1118638   5.335   0.741  10.804 -0.2624 -0.5471 -0.4931
  166SOPE    C118639   5.290   0.841  10.713  0.8329 -0.2174  0.7624
  166SOPE    HA18640   5.290   0.944  10.754  1.1121 -0.4036  1.2304
  166SOPE    HB18641   5.185   0.813  10.688  1.0766 -0.5563  0.0966
  166SOPE    C218642   5.369   0.855  10.577 -0.7136 -0.6533  0.0821
  166SOPE    HS18643   5.473   0.877  10.607 -0.6153  0.8556 -1.2806
  166SOPE   O2118644   5.308   0.959  10.492 -0.4549 -0.4360 -0.1681
  166SOPE   C2118645   5.379   0.994  10.399  0.0193 -0.7963  0.7758
  166SOPE   O2218646   5.484   0.950  10.362  0.5351  0.1102 -0.1946
  166SOPE   C2218647   5.311   1.105  10.320  0.1736  0.5510 -0.5386
  166SOPE   H2R18648   5.303   1.192  10.389 -1.0137 -0.2841  0.4154
  166SOPE   H2S18649   5.202   1.092  10.301  0.0904  0.1957  0.1479
  166SOPE    C318650   5.371   0.717  10.498  0.3983 -0.1697 -0.1311
  166SOPE    HX18651   5.442   0.649  10.550  2.3692  2.1567  0.3209
  166SOPE    HY18652   5.426   0.724  10.402 -0.2602 -0.3843 -0.5214
  166SOPE   O3118653   5.235   0.666  10.463 -0.3196 -0.4069 -0.6013
  166SOPE   C3118654   5.211   0.542  10.493  0.0439 -0.9336 -0.8054
  166SOPE   O3218655   5.299   0.467  10.533  0.0632  0.2751 -0.2450
  166SOPE   C3218656   5.070   0.512  10.472  0.5917 -0.2882  0.7107
  166SOPE   H2X18657   5.010   0.605  10.485 -1.6929 -1.9193  2.0137
  166SOPE   H2Y18658   5.037   0.426  10.533 -0.6462  0.1737  0.7136
  166SOPE   C2318659   5.392   1.148  10.187 -0.6741  0.7210 -0.0585
  166SOPE   H3R18660   5.501   1.159  10.204 -0.3536 -1.5043 -0.5700
  166SOPE   H3S18661   5.369   1.255  10.169  0.3803  1.0250  0.3429
  166SOPE   C2418662   5.354   1.067  10.057 -0.7621  0.4376  0.4101
  166SOPE   H4R18663   5.387   0.961  10.054  1.4963  1.0291  2.6998
  166SOPE   H4S18664   5.251   1.088  10.023  0.7409  4.1450 -2.2348
  166SOPE   C2518665   5.443   1.122   9.938 -0.1060 -0.3075  0.2319
  166SOPE   H5R18666   5.457   1.232   9.950 -2.2773 -0.3478  3.5880
  166SOPE   H5S18667   5.545   1.078   9.947  0.4670  1.1833  1.2347
  166SOPE   C2618668   5.394   1.080   9.796 -0.6095 -0.3374  0.7057
  166SOPE   H6R18669   5.290   1.120   9.790 -0.1358  0.7951 -0.2192
  166SOPE   H6S18670   5.438   1.137   9.712  2.3425 -0.8251  1.8510
  166SOPE   C2718671   5.394   0.922   9.769  0.0761 -0.3617 -0.0107
  166SOPE   H7R18672   5.498   0.891   9.796  0.2567 -0.4605 -0.8215
  166SOPE   H7S18673   5.327   0.869   9.840  1.1447 -1.4491  0.2042
  166SOPE   C2818674   5.362   0.870   9.626  0.6609  0.2374  0.4614
  166SOPE   H8R18675   5.431   0.916   9.551 -1.7025  1.1973 -1.1840
  166SOPE   H8S18676   5.383   0.761   9.622  2.4075  0.4814  2.1305
  166SOPE   C2918677   5.219   0.913   9.598 -0.0944  0.2829 -0.4836
  166SOPE   H9118678   5.189   1.001   9.538 -0.5117 -0.0100 -0.7023
  166SOPE  C21018679   5.115   0.838   9.642 -0.3434 -0.1723 -0.5635
  166SOPE  H10118680   5.008   0.858   9.625 -0.3134 -0.1485 -0.7248
  166SOPE  C21118681   5.127   0.710   9.720  0.3290  0.2959  0.2808
  166SOPE  H11R18682   5.231   0.676   9.741  0.2033 -0.7545 -0.7339
  166SOPE  H11S18683   5.098   0.621   9.659 -0.2459 -0.2067  1.2886
  166SOPE  C21218684   5.048   0.695   9.845 -0.0685  0.7495  0.2429
  166SOPE  H12R18685   5.063   0.593   9.887  5.6300  0.6654 -1.6706
  166SOPE  H12S18686   4.943   0.709   9.809 -0.0568 -0.8389 -0.4821
  166SOPE  C21318687   5.082   0.796   9.952 -0.4184 -0.3782  0.0801
  166SOPE  H13R18688   5.095   0.896   9.905 -3.1210  1.1751  2.4815
  166SOPE  H13S18689   5.181   0.764   9.991 -1.4501 -0.2197  2.9315
  166SOPE  C21418690   4.973   0.797  10.064 -0.7185 -0.3179 -0.2663
  166SOPE  H14R18691   4.964   0.701  10.118  0.2986 -0.3147 -0.0825
  166SOPE  H14S18692   4.874   0.816  10.018  0.0018  1.6551 -1.0786
  166SOPE  C21518693   5.004   0.903  10.171 -0.3173  0.3486  0.1099
  166SOPE  H15R18694   5.021   0.998  10.117 -1.0895 -0.0969 -0.9285
  166SOPE  H15S18695   5.106   0.888  10.214 -0.1581 -0.1798 -0.4397
  166SOPE  C21618696   4.901   0.906  10.278 -0.0709 -0.8646  0.1320
  166SOPE  H16R18697   4.898   0.812  10.336 -0.3604  1.6819  4.4928
  166SOPE  H16S18698   4.798   0.916  10.237  0.8010 -0.2894 -1.9740
  166SOPE  C21718699   4.926   1.020  10.377 -0.2512 -0.1776 -0.5518
  166SOPE  H17R18700   4.969   1.115  10.341  1.7714 -0.8841 -0.0469
  166SOPE  H17S18701   4.988   0.982  10.461 -2.9473 -0.2519  1.4690
  166SOPE  C21818702   4.791   1.045  10.448  0.5665 -0.0623  0.0653
  166SOPE  H18R18703   4.747   0.952  10.490 -1.1435  1.5681  2.0275
  166SOPE  H18S18704   4.714   1.090  10.381 -0.3708  0.4716  1.4688
  166SOPE  H18T18705   4.813   1.106  10.538 -0.0212  0.9602 -0.4646
  166SOPE   C3318706   5.015   0.473  10.329  0.3452 -0.7564 -1.3146
  166SOPE   H3X18707   5.023   0.571  10.277  2.1850 -0.6902 -0.9336
  166SOPE   H3Y18708   4.908   0.444  10.337  0.1507  0.1190 -0.6181
  166SOPE   C3418709   5.100   0.364  10.263  0.6792 -0.0523  0.1154
  166SOPE   H4X18710   5.094   0.267  10.316 -2.3706 -1.6945 -3.0518
  166SOPE   H4Y18711   5.206   0.394  10.252  0.9736 -1.0624  0.2269
  166SOPE   C3518712   5.035   0.325  10.129 -0.4428 -0.2750 -0.4266
  166SOPE   H5X18713   5.031   0.417  10.066  0.8321 -0.5000 -0.8556
  166SOPE   H5Y18714   4.936   0.282  10.157 -0.7628  1.5877  1.3771
  166SOPE   C3618715   5.110   0.229  10.046  0.1238  0.5198 -0.8729
  166SOPE   H6X18716   5.102   0.127  10.088 -0.6115  1.5683  1.6395
  166SOPE   H6Y18717   5.218   0.255  10.048  0.3896 -0.6362  0.4090
  166SOPE   C3718718   5.061   0.242   9.899  0.4373 -0.2435  0.1850
  166SOPE   H7X18719   5.086   0.337   9.848 -1.3936  0.4813  0.6083
  166SOPE   H7Y18720   4.951   0.230   9.905  0.1329  2.2912  0.1141
  166SOPE   C3818721   5.108   0.128   9.808 -0.0761  0.5403  0.5333
  166SOPE   H8X18722   5.074   0.031   9.850  0.4965 -0.5898 -1.5530
  166SOPE   H8Y18723   5.218   0.129   9.798 -0.3808  3.7342 -4.1205
  166SOPE   C3918724   5.050   0.131   9.665  0.6162 -0.1989 -0.1093
  166SOPE   H9X18725   5.082   0.220   9.607  0.4482 -0.3737 -0.4714
  166SOPE   H9Y18726   4.939   0.125   9.665  0.6839 -1.7075 -1.2625
  166SOPE  C31018727   5.091   0.000   9.598 -0.3603 -0.4562 -0.2106
  166SOPE  H10X18728   5.085  -0.083   9.671  0.4101 -0.1262  0.2250
  166SOPE  H10Y18729   5.200   0.011   9.579 -0.1387 -3.0322 -0.5896
  166SOPE  C31118730   5.018  -0.028   9.465  0.2199 -0.0861 -0.4480
  166SOPE  H11X18731   4.908  -0.026   9.481  0.2585 -1.1140 -0.0557
  166SOPE  H11Y18732   5.053  -0.128   9.433  3.2620  0.9298 -0.4432
  166SOPE  C31218733   5.060   0.072   9.349 -0.4971 -0.5036 -0.4252
  166SOPE  H12X18734   5.172   0.070   9.352 -0.4774  1.3833  0.9767
  166SOPE  H12Y18735   5.009   0.166   9.377  1.4242  0.8806 -1.4233
  166SOPE  C31318736   4.998   0.035   9.213 -0.6133 -0.1806  1.1312
  166SOPE  H13X18737   4.893   0.001   9.227  0.1058 -2.5758  0.9713
  166SOPE  H13Y18738   5.050  -0.054   9.172 -1.6676 -1.7287  3.0490
  166SOPE  C31418739   5.003   0.148   9.115  0.8462 -0.2515  0.0786
  166SOPE  H14X18740   5.106   0.189   9.110  1.3653 -1.7983 -2.6754
  166SOPE  H14Y18741   4.932   0.230   9.141 -0.2012 -0.2550 -2.6357
  166SOPE  C31518742   4.979   0.120   8.971 -0.2707 -0.7461 -0.2305
  166SOPE  H15X18743   4.881   0.068   8.971 -0.3603 -0.6235  1.6775
  166SOPE  H15Y18744   5.057   0.044   8.948  1.2179  1.0079 -1.1512
  166SOPE  C31618745   4.960   0.245   8.887 -0.4502 -0.2184  0.0132
  166SOPE  H16X18746   5.039   0.316   8.918 -0.3696 -0.0187 -0.6523
  166SOPE  H16Y18747   4.866   0.287   8.930  0.0491  0.9338 -0.0012
  166SOPE  C31718748   4.951   0.221   8.737  0.8615 -0.0714 -0.1173
  166SOPE  H17X18749   4.938   0.322   8.694  2.4237  0.0609 -0.3113
  166SOPE  H17Y18750   4.864   0.158   8.708  0.8144 -0.3884  0.6972
  166SOPE  C31818751   5.072   0.142   8.678 -0.0756  0.5749  0.4372
  166SOPE  H18X18752   5.079   0.151   8.568  1.5109  0.2737  0.4966
  166SOPE  H18Y18753   5.078   0.033   8.695 -1.9212  0.3428 -0.3369
  166SOPE  H18Z18754   5.172   0.177   8.713  2.4501 -4.2557 -1.5377
  167SOPE     N18755   5.419   5.497   6.019  0.5252 -1.0195  0.0815
  167SOPE   HN118756   5.317   5.486   6.035 -0.0589  0.8164 -2.1030
  167SOPE   HN218757   5.431   5.588   5.971 -0.6012  0.0931  1.8480
  167SOPE   HN318758   5.454   5.423   5.954 -1.7513 -1.6488 -0.4680
  167SOPE   C1218759   5.482   5.489   6.156  0.2620  0.2805 -0.0551
  167SOPE  H12A18760   5.428   5.562   6.220  2.0649  1.5171  0.0910
  167SOPE  H12B18761   5.587   5.519   6.136  0.3394  0.1094  0.0891
  167SOPE   C1118762   5.473   5.346   6.212 -0.2668 -0.2383  0.6131
  167SOPE  H11A18763   5.366   5.326   6.234 -0.9640  0.6868 -1.7947
  167SOPE  H11B18764   5.532   5.335   6.306 -3.2468 -1.5035  2.3978
  167SOPE     P18765   5.668   5.204   6.090 -0.2050 -0.0382 -0.0090
  167SOPE   O1318766   5.766   5.314   6.067 -0.2146 -0.2202  0.7638
  167SOPE   O1418767   5.661   5.091   5.993  0.3112  0.1725 -0.8219
  167SOPE   O1218768   5.522   5.258   6.108 -0.5880  0.1040 -0.2304
  167SOPE   O1118769   5.689   5.146   6.229  0.2116  0.4456 -0.2867
  167SOPE    C118770   5.630   5.032   6.285  0.5283  0.3246 -0.1944
  167SOPE    HA18771   5.677   4.941   6.242  1.0475  0.3159  0.3816
  167SOPE    HB18772   5.520   5.027   6.273  0.4663 -1.5956  0.9907
  167SOPE    C218773   5.673   5.009   6.433  0.2764  0.1985  0.1030
  167SOPE    HS18774   5.621   4.919   6.474  0.6639  0.3179  0.8643
  167SOPE   O2118775   5.636   5.123   6.514 -0.0924  0.5065 -0.5034
  167SOPE   C2118776   5.512   5.150   6.534 -0.0749  0.0414  0.0655
  167SOPE   O2218777   5.415   5.082   6.503 -0.3664 -0.4481 -0.8561
  167SOPE   C2218778   5.492   5.280   6.601 -0.8957 -0.2859 -1.1193
  167SOPE   H2R18779   5.446   5.356   6.534 -2.3988 -1.0768 -1.0010
  167SOPE   H2S18780   5.592   5.317   6.631 -1.3054  0.8463 -1.1540
  167SOPE    C318781   5.824   4.986   6.438 -0.2434  0.4787 -0.0303
  167SOPE    HX18782   5.872   5.073   6.388 -0.0957 -0.3945 -1.4251
  167SOPE    HY18783   5.854   4.895   6.380 -0.8889 -0.0524  0.4691
  167SOPE   O3118784   5.875   4.971   6.576  0.5903  0.5255 -0.1809
  167SOPE   C3118785   5.907   5.089   6.645 -0.4281 -1.2601  0.6130
  167SOPE   O3218786   5.921   5.199   6.593  0.2262  0.0865  0.3132
  167SOPE   C3218787   5.937   5.049   6.784 -0.1439  0.4133  0.0705
  167SOPE   H2X18788   5.953   4.939   6.793 -2.3555  0.1511  1.0018
  167SOPE   H2Y18789   5.847   5.082   6.840 -1.0415 -0.3603 -0.8907
  167SOPE   C2318790   5.403   5.264   6.728  1.1133 -0.5570  0.5970
  167SOPE   H3R18791   5.305   5.218   6.703  1.9458 -2.7648  1.2727
  167SOPE   H3S18792   5.383   5.367   6.765 -0.2126 -1.3708  2.2061
  167SOPE   C2418793   5.485   5.202   6.847  0.2106  0.3199 -0.0884
  167SOPE   H4R18794   5.594   5.224   6.839  0.6676 -1.3233  1.2194
  167SOPE   H4S18795   5.454   5.251   6.942 -2.9327  1.0117 -1.4258
  167SOPE   C2518796   5.471   5.050   6.861 -0.2035 -0.3593 -0.2868
  167SOPE   H5R18797   5.366   5.039   6.896  0.1040  0.6114  0.9849
  167SOPE   H5S18798   5.488   5.003   6.762  2.0430  1.3288 -0.7418
  167SOPE   C2618799   5.559   4.985   6.955  0.0082  0.5333 -0.3610
  167SOPE   H6R18800   5.544   4.875   6.962  1.4648  0.2473 -1.6377
  167SOPE   H6S18801   5.660   4.993   6.909 -0.3539 -0.5284 -1.3767
  167SOPE   C2718802   5.543   5.036   7.100 -0.0731 -0.2644 -0.6254
  167SOPE   H7R18803   5.575   5.142   7.090  1.5120 -0.7866 -1.2292
  167SOPE   H7S18804   5.439   5.038   7.137 -0.4478  1.4804 -1.6944
  167SOPE   C2818805   5.638   4.985   7.211 -0.0220 -0.2043  0.6871
  167SOPE   H8R18806   5.622   5.052   7.299  1.6222  0.3084  0.6134
  167SOPE   H8S18807   5.601   4.885   7.244 -0.1558 -0.7162 -0.9936
  167SOPE   C2918808   5.785   4.983   7.175  0.0634 -0.3007 -0.2276
  167SOPE   H9118809   5.807   4.969   7.068 -4.4435  0.1006 -1.3017
  167SOPE  C21018810   5.882   5.024   7.258  0.5035  0.7419  0.3911
  167SOPE  H10118811   5.990   5.028   7.237  0.4592 -1.0314 -0.2190
  167SOPE  C21118812   5.869   5.062   7.404  0.6588  0.4078 -0.1579
  167SOPE  H11R18813   5.770   5.100   7.437  1.8760  0.3030  3.8610
  167SOPE  H11S18814   5.940   5.144   7.423 -0.2377  1.1677 -0.0337
  167SOPE  C21218815   5.902   4.958   7.514  0.7744  0.5219  0.1182
  167SOPE  H12R18816   5.997   4.903   7.495  0.1949  0.2251 -2.0954
  167SOPE  H12S18817   5.825   4.878   7.507  0.8479  0.5821 -1.9078
  167SOPE  C21318818   5.911   5.031   7.647 -0.1881 -0.2950  0.0593
  167SOPE  H13R18819   5.831   5.106   7.665  0.7380  0.2118  2.3917
  167SOPE  H13S18820   6.011   5.081   7.648  1.3009 -3.1591  0.5531
  167SOPE  C21418821   5.932   4.936   7.768  0.0944  0.0822  0.4547
  167SOPE  H14R18822   6.013   4.865   7.742  0.3338  0.5460 -0.0560
  167SOPE  H14S18823   5.840   4.874   7.781  1.5623 -2.5339 -1.0676
  167SOPE  C21518824   5.953   4.999   7.898  0.0725 -0.7876 -0.3606
  167SOPE  H15R18825   5.872   5.074   7.912  0.8749  0.3013 -1.4418
  167SOPE  H15S18826   6.045   5.061   7.904  0.5560 -1.4122 -1.2435
  167SOPE  C21618827   5.958   4.916   8.031 -0.0503 -0.0772 -0.0237
  167SOPE  H16R18828   6.053   4.861   8.043  1.4595  2.0070 -2.0750
  167SOPE  H16S18829   5.882   4.838   8.009 -1.2677  0.6094  1.6254
  167SOPE  C21718830   5.928   4.991   8.166 -0.2778 -0.3566  0.4408
  167SOPE  H17R18831   5.833   5.048   8.159 -0.2207 -0.5251 -2.3310
  167SOPE  H17S18832   6.004   5.070   8.189 -1.0300  0.0590  1.5327
  167SOPE  C21818833   5.917   4.893   8.288  0.2988  0.0910 -0.2151
  167SOPE  H18R18834   5.924   4.962   8.375  1.5377  1.4309 -1.3723
  167SOPE  H18S18835   6.002   4.824   8.307 -0.5141 -0.8871 -0.0686
  167SOPE  H18T18836   5.816   4.846   8.292 -0.0449  0.8742  0.6903
  167SOPE   C3318837   6.068   5.115   6.835  0.0116 -0.4717  0.1686
  167SOPE   H3X18838   6.048   5.220   6.864  1.7947  0.2440 -1.0885
  167SOPE   H3Y18839   6.158   5.107   6.771  1.2745 -2.5323  2.1263
  167SOPE   C3418840   6.109   5.031   6.952  0.1128 -0.3211 -0.5085
  167SOPE   H4X18841   6.083   4.924   6.936  0.5246 -0.3813 -0.7867
  167SOPE   H4Y18842   6.062   5.071   7.045  1.4130 -0.5721  0.2753
  167SOPE   C3518843   6.261   5.046   6.978  0.0780  0.3408 -0.2851
  167SOPE   H5X18844   6.282   5.153   6.998 -0.6138  0.3109  0.6480
  167SOPE   H5Y18845   6.318   5.019   6.887  1.6758 -2.4307  1.4368
  167SOPE   C3618846   6.323   4.981   7.112  0.6002  0.0266  0.0634
  167SOPE   H6X18847   6.289   5.035   7.203  1.2557  0.5152  0.0172
  167SOPE   H6Y18848   6.433   4.971   7.102  0.7115  0.6426  0.6147
  167SOPE   C3718849   6.268   4.840   7.121 -0.7072 -0.1034 -0.6265
  167SOPE   H7X18850   6.267   4.790   7.021 -1.3739  0.1904 -0.7719
  167SOPE   H7Y18851   6.160   4.839   7.147 -0.6616  0.5249 -0.4115
  167SOPE   C3818852   6.340   4.747   7.222  0.5688 -0.3840 -0.2345
  167SOPE   H8X18853   6.450   4.762   7.215  0.4251  0.6059 -0.3503
  167SOPE   H8Y18854   6.317   4.641   7.197 -1.5856 -0.2426  1.0611
  167SOPE   C3918855   6.294   4.781   7.358  0.3503  0.3702  0.1242
  167SOPE   H9X18856   6.186   4.759   7.367  0.3338 -0.0564 -1.0748
  167SOPE   H9Y18857   6.313   4.889   7.376  0.6389  0.3515 -0.0602
  167SOPE  C31018858   6.382   4.702   7.467 -0.1962 -0.4368  0.4339
  167SOPE  H10X18859   6.484   4.742   7.456 -0.3520 -0.5842 -1.8016
  167SOPE  H10Y18860   6.389   4.596   7.434  0.4917  0.7499 -3.5670
  167SOPE  C31118861   6.324   4.728   7.605 -0.1410  0.0106 -0.0090
  167SOPE  H11X18862   6.335   4.637   7.668  1.5364 -0.2292 -0.6148
  167SOPE  H11Y18863   6.217   4.747   7.584 -0.1777  0.0021  0.1671
  167SOPE  C31218864   6.399   4.840   7.680 -0.3114 -0.0413  0.2529
  167SOPE  H12X18865   6.404   4.933   7.620 -0.5515 -0.5424 -0.5580
  167SOPE  H12Y18866   6.500   4.814   7.718  0.1173  0.5737 -0.4525
  167SOPE  C31318867   6.330   4.881   7.813  0.2122 -1.0133  0.6455
  167SOPE  H13X18868   6.288   4.802   7.879 -1.0841 -0.3755  0.6006
  167SOPE  H13Y18869   6.238   4.934   7.780  0.9849 -1.6765 -2.7018
  167SOPE  C31418870   6.406   4.968   7.902  0.3481  0.1956  0.0340
  167SOPE  H14X18871   6.439   5.060   7.850  0.6427 -0.1208 -0.3427
  167SOPE  H14Y18872   6.499   4.915   7.932  1.4107  1.3460 -1.1767
  167SOPE  C31518873   6.326   5.015   8.029  0.6573  0.1968 -0.0332
  167SOPE  H15X18874   6.293   4.939   8.103 -0.9125 -0.0215 -0.9477
  167SOPE  H15Y18875   6.231   5.066   8.003 -0.0651 -0.5693  1.0266
  167SOPE  C31618876   6.402   5.112   8.124 -0.4134  0.7632 -0.0615
  167SOPE  H16X18877   6.328   5.163   8.189 -1.3084  0.6982 -1.0176
  167SOPE  H16Y18878   6.448   5.188   8.058 -0.0375  0.0483 -0.6282
  167SOPE  C31718879   6.513   5.033   8.201  0.3455 -0.4955  0.5839
  167SOPE  H17X18880   6.579   4.977   8.132 -0.3920 -0.9634  0.2491
  167SOPE  H17Y18881   6.462   4.957   8.265 -0.9878  0.2641  0.4469
  167SOPE  C31818882   6.612   5.127   8.289 -0.0902  0.1750  0.5778
  167SOPE  H18X18883   6.673   5.066   8.359 -0.0584  0.8025  1.0996
  167SOPE  H18Y18884   6.553   5.208   8.337  0.9373  0.5960  1.1235
  167SOPE  H18Z18885   6.673   5.173   8.208  0.9820  0.1044  1.3499
  168SOPE     N18886   5.780   1.276   6.351  0.2821 -0.4249  0.2461
  168SOPE   HN118887   5.715   1.345   6.308 -0.1053  0.3344  2.0013
  168SOPE   HN218888   5.830   1.220   6.279  0.7310  1.0026 -0.5847
  168SOPE   HN318889   5.715   1.210   6.398 -0.8870  0.3215 -0.3153
  168SOPE   C1218890   5.882   1.338   6.448 -0.1730 -0.1797 -0.1523
  168SOPE  H12A18891   5.969   1.377   6.393  0.8476 -1.0499  0.8173
  168SOPE  H12B18892   5.927   1.254   6.505  1.8731  1.0058  0.0184
  168SOPE   C1118893   5.813   1.436   6.554  0.1132  0.1048  0.0379
  168SOPE  H11A18894   5.879   1.483   6.630  0.6186  1.4790 -1.2187
  168SOPE  H11B18895   5.739   1.372   6.606 -0.6179  2.2316  1.6993
  168SOPE     P18896   5.781   1.680   6.464 -0.1474 -0.1416  0.2019
  168SOPE   O1318897   5.685   1.756   6.380 -0.1299 -0.0952  0.2159
  168SOPE   O1418898   5.921   1.681   6.427 -0.3678  0.2261 -0.2518
  168SOPE   O1218899   5.735   1.527   6.478  0.7649 -0.0057 -0.0490
  168SOPE   O1118900   5.760   1.734   6.610  0.2001 -0.1125  0.2863
  168SOPE    C118901   5.646   1.700   6.694  0.7940 -0.1891 -0.1540
  168SOPE    HA18902   5.642   1.589   6.694  0.0245 -0.1780 -1.1987
  168SOPE    HB18903   5.553   1.742   6.650 -0.1066 -2.0072 -0.0258
  168SOPE    C218904   5.681   1.745   6.836 -0.0273  0.4011 -0.3482
  168SOPE    HS18905   5.693   1.854   6.821 -0.0732  0.5321  0.5798
  168SOPE   O2118906   5.803   1.676   6.875  1.0382 -0.2410  0.3475
  168SOPE   C2118907   5.859   1.730   6.978 -0.0186  0.4153 -0.7726
  168SOPE   O2218908   5.828   1.838   7.026  0.4880 -0.8118 -0.1938
  168SOPE   C2218909   5.964   1.630   7.033 -0.0551 -0.9749 -0.0296
  168SOPE   H2R18910   6.048   1.628   6.960 -0.3476  1.5566 -0.4874
  168SOPE   H2S18911   5.914   1.531   7.033 -2.6272  0.2785 -0.7151
  168SOPE    C318912   5.552   1.720   6.922  0.1293  0.6359  0.2311
  168SOPE    HX18913   5.544   1.611   6.904 -1.5263  0.4789  1.7427
  168SOPE    HY18914   5.463   1.772   6.881 -0.5046 -0.5860  0.0516
  168SOPE   O3118915   5.568   1.737   7.065  0.4740  0.7902 -0.0460
  168SOPE   C3118916   5.565   1.865   7.107 -0.1436  0.4360  0.3079
  168SOPE   O3218917   5.521   1.956   7.042 -0.0131  0.6178  0.0173
  168SOPE   C3218918   5.635   1.898   7.241  0.0150 -0.2826 -0.2438
  168SOPE   H2X18919   5.651   2.008   7.235  0.9914 -0.3641  0.7603
  168SOPE   H2Y18920   5.737   1.853   7.247 -0.0970 -0.1687  2.9523
  168SOPE   C2318921   6.016   1.659   7.174  0.2625  0.0536  0.5611
  168SOPE   H3R18922   6.016   1.769   7.191  0.4151  0.2454 -0.6066
  168SOPE   H3S18923   6.124   1.635   7.181 -0.1515 -2.0865  0.0273
  168SOPE   C2418924   5.935   1.598   7.292  0.2693  0.1270  0.7318
  168SOPE   H4R18925   5.829   1.628   7.277  1.0995  2.2951 -0.9145
  168SOPE   H4S18926   5.940   1.487   7.280  3.5275  0.2087  0.9244
  168SOPE   C2518927   5.977   1.639   7.434  0.5218  0.0449 -0.3182
  168SOPE   H5R18928   6.086   1.621   7.445 -0.0465 -3.2675  0.5146
  168SOPE   H5S18929   5.951   1.743   7.460  1.7788 -0.0964  1.5834
  168SOPE   C2618930   5.904   1.549   7.545  0.5857 -0.3788 -0.4262
  168SOPE   H6R18931   5.794   1.555   7.537  0.5362 -0.6414  0.0763
  168SOPE   H6S18932   5.937   1.446   7.520  0.1129 -1.0173  1.5762
  168SOPE   C2718933   5.961   1.576   7.681  0.2797  1.4706 -0.6262
  168SOPE   H7R18934   6.062   1.529   7.682 -0.4507 -0.1394 -1.2962
  168SOPE   H7S18935   5.971   1.687   7.681 -0.3073  1.5293 -1.8629
  168SOPE   C2818936   5.868   1.519   7.790  0.1408 -0.1078  0.4092
  168SOPE   H8R18937   5.777   1.582   7.803 -0.4628 -0.0384 -3.4339
  168SOPE   H8S18938   5.833   1.419   7.754 -1.0596  0.6557 -0.5780
  168SOPE   C2918939   5.951   1.511   7.918  0.4548 -0.4325 -0.1703
  168SOPE   H9118940   6.005   1.416   7.933  0.2057 -0.0813  3.2369
  168SOPE  C21018941   5.974   1.597   8.015 -0.2656  0.3806 -0.2787
  168SOPE  H10118942   6.038   1.568   8.100 -1.1315  0.0749  0.2811
  168SOPE  C21118943   5.921   1.744   8.026  0.2289  0.6959 -0.2800
  168SOPE  H11R18944   5.859   1.771   7.938 -0.0502  1.3289  0.1062
  168SOPE  H11S18945   6.009   1.811   8.024  1.1155 -0.4351  0.0086
  168SOPE  C21218946   5.838   1.776   8.147 -0.5162  0.5280  0.1027
  168SOPE  H12R18947   5.742   1.721   8.150 -0.4432  0.3316 -0.9539
  168SOPE  H12S18948   5.806   1.882   8.133  0.9752  1.3303  2.3952
  168SOPE  C21318949   5.915   1.771   8.285 -0.4798  0.0542  0.3452
  168SOPE  H13R18950   5.927   1.669   8.327 -1.8329 -0.4623 -0.5004
  168SOPE  H13S18951   5.845   1.825   8.352 -1.8218 -1.3526  0.0872
  168SOPE  C21418952   6.043   1.855   8.299  0.3468  0.3594  0.2803
  168SOPE  H14R18953   6.127   1.820   8.235  1.3041  1.2250  1.0474
  168SOPE  H14S18954   6.086   1.841   8.400 -0.2396  1.4599  0.6922
  168SOPE  C21518955   6.037   2.006   8.262  0.0956  0.3965 -0.0869
  168SOPE  H15R18956   5.937   2.041   8.294  0.2495  0.5490  0.2325
  168SOPE  H15S18957   6.048   2.024   8.153 -3.1489 -2.4011 -0.9355
  168SOPE  C21618958   6.138   2.092   8.342 -0.2211 -0.1536 -0.6250
  168SOPE  H16R18959   6.140   2.066   8.450  0.6640 -0.4765 -0.7080
  168SOPE  H16S18960   6.099   2.195   8.334  1.4179  0.7197  2.1040
  168SOPE  C21718961   6.283   2.082   8.293 -0.0773  0.0675  0.2684
  168SOPE  H17R18962   6.291   2.125   8.191  0.4103 -1.7733 -0.4875
  168SOPE  H17S18963   6.318   1.977   8.283 -3.4284 -1.0282 -1.1039
  168SOPE  C21818964   6.376   2.144   8.396  0.4852  0.0658  0.5839
  168SOPE  H18R18965   6.479   2.161   8.359 -0.5524  2.2747 -1.4723
  168SOPE  H18S18966   6.393   2.076   8.482 -0.5832 -1.1033 -0.1184
  168SOPE  H18T18967   6.340   2.242   8.436  4.2182  1.6483  0.2942
  168SOPE   C3318968   5.560   1.849   7.366  0.5727  0.2904  0.9828
  168SOPE   H3X18969   5.581   1.741   7.380 -0.3204  0.2782  2.2930
  168SOPE   H3Y18970   5.452   1.866   7.345  1.1030  0.7416 -1.6009
  168SOPE   C3418971   5.603   1.928   7.490 -0.6243  0.0796  0.1107
  168SOPE   H4X18972   5.597   2.038   7.473  0.5046 -0.1155 -1.5997
  168SOPE   H4Y18973   5.708   1.909   7.521 -0.7367 -3.1688 -1.3541
  168SOPE   C3518974   5.510   1.898   7.612  0.6791 -1.3778 -0.0592
  168SOPE   H5X18975   5.527   1.794   7.649 -0.9811 -1.1039  1.5353
  168SOPE   H5Y18976   5.402   1.899   7.584 -0.2861 -1.8891  3.3645
  168SOPE   C3618977   5.522   1.993   7.732  0.0512 -0.2386  0.1751
  168SOPE   H6X18978   5.473   2.086   7.695  0.0292 -0.3134  0.0164
  168SOPE   H6Y18979   5.627   2.022   7.752  0.3942 -0.8046 -0.7689
  168SOPE   C3718980   5.462   1.941   7.866  0.0632  0.5412  0.3890
  168SOPE   H7X18981   5.511   1.843   7.884  1.0255  0.4118 -2.5834
  168SOPE   H7Y18982   5.353   1.922   7.862  0.1573 -0.8758  3.5481
  168SOPE   C3818983   5.510   2.026   7.980  0.6209  0.2417  0.6195
  168SOPE   H8X18984   5.479   2.133   7.977 -0.3647 -0.0411  0.5352
  168SOPE   H8Y18985   5.620   2.022   7.988  0.4645 -0.5046  2.9427
  168SOPE   C3918986   5.458   1.964   8.102  1.1042  0.4221  0.5228
  168SOPE   H9X18987   5.470   1.854   8.103 -2.1210  0.0385  2.0727
  168SOPE   H9Y18988   5.351   1.990   8.120  1.4455  0.9016  2.0044
  168SOPE  C31018989   5.542   2.006   8.222 -0.4606  0.5532  0.2253
  168SOPE  H10X18990   5.532   2.115   8.236  0.4207  1.0215 -2.4379
  168SOPE  H10Y18991   5.647   1.984   8.191 -0.2389  0.2784  1.1603
  168SOPE  C31118992   5.506   1.931   8.352 -0.1574  0.4020  0.3311
  168SOPE  H11X18993   5.528   1.825   8.327 -1.1933  0.0515  0.8831
  168SOPE  H11Y18994   5.400   1.934   8.382 -0.3897  0.3455 -0.4591
  168SOPE  C31218995   5.591   1.987   8.461 -0.1531  0.9460 -0.1872
  168SOPE  H12X18996   5.568   2.095   8.472 -4.0555  0.1907 -0.4725
  168SOPE  H12Y18997   5.698   1.964   8.439 -0.6055 -0.2120 -1.2257
  168SOPE  C31318998   5.553   1.940   8.604 -0.2933 -0.0324  0.0902
  168SOPE  H13X18999   5.527   1.832   8.601 -0.1523 -0.0572 -0.3095
  168SOPE  H13Y19000   5.476   2.011   8.640 -0.3879  0.5961 -1.3357
  168SOPE  C31419001   5.674   1.940   8.700  1.2132  0.0961  0.2338
  168SOPE  H14X19002   5.692   2.048   8.718 -0.2755  0.2444  0.8529
  168SOPE  H14Y19003   5.759   1.888   8.650  0.3657 -0.1703 -0.9558
  168SOPE  C31519004   5.632   1.885   8.833 -0.7329 -0.2854  0.0922
  168SOPE  H15X19005   5.599   1.780   8.821 -0.2943 -0.2449 -1.5470
  168SOPE  H15Y19006   5.555   1.953   8.875  0.1853  0.9840 -0.2238
  168SOPE  C31619007   5.755   1.882   8.921 -0.3391  0.3288  0.6623
  168SOPE  H16X19008   5.766   1.986   8.959 -1.6195  1.2499 -1.4371
  168SOPE  H16Y19009   5.840   1.869   8.851 -1.5930 -1.4222 -0.5863
  168SOPE  C31719010   5.747   1.780   9.042 -0.0521 -0.2503  0.2943
  168SOPE  H17X19011   5.744   1.676   9.003  1.9081  0.1985 -1.1341
  168SOPE  H17Y19012   5.651   1.789   9.098  0.5907  2.1611  1.0670
  168SOPE  C31819013   5.863   1.792   9.143 -0.0837 -0.5022 -0.8910
  168SOPE  H18X19014   5.841   1.741   9.239  1.1579 -0.5223 -0.6163
  168SOPE  H18Y19015   5.885   1.900   9.162 -1.8963 -0.3868  0.7431
  168SOPE  H18Z19016   5.953   1.750   9.094 -0.1650  0.7196 -2.1414
  169SOPE     N19017   0.774   3.890   6.350  0.1031 -0.6482  0.1335
  169SOPE   HN119018   0.690   3.949   6.337 -1.5089 -2.5538  1.6564
  169SOPE   HN219019   0.828   3.880   6.261  0.8386  0.4619  0.4520
  169SOPE   HN319020   0.745   3.796   6.384 -0.6783 -0.1127  0.9477
  169SOPE   C1219021   0.881   3.933   6.455  0.3697  0.3828  0.2402
  169SOPE  H12A19022   0.855   3.879   6.549  1.0183  1.5821  1.1090
  169SOPE  H12B19023   0.863   4.039   6.482  1.2963  0.6440 -0.1485
  169SOPE   C1119024   1.027   3.914   6.405  0.3666 -0.0934  0.1397
  169SOPE  H11A19025   1.109   3.959   6.464  0.6419 -1.3286  0.7105
  169SOPE  H11B19026   1.022   3.963   6.305 -1.7867 -3.6666 -1.6137
  169SOPE     P19027   1.052   3.703   6.256  0.0750 -0.3213 -0.1265
  169SOPE   O1319028   1.180   3.726   6.189 -0.1683  0.0646 -0.3520
  169SOPE   O1419029   0.930   3.760   6.185 -0.1532  0.0442  0.1006
  169SOPE   O1219030   1.059   3.780   6.394 -0.1824  0.2014 -0.2784
  169SOPE   O1119031   1.033   3.548   6.285  0.4576 -0.1497  0.0293
  169SOPE    C119032   1.148   3.468   6.296  0.0539 -0.2912  0.6945
  169SOPE    HA19033   1.249   3.516   6.290 -1.2602  2.2794 -2.6942
  169SOPE    HB19034   1.134   3.392   6.216 -2.7638 -0.2063  1.0643
  169SOPE    C219035   1.143   3.409   6.434 -0.0980  0.2206  0.7407
  169SOPE    HS19036   1.042   3.367   6.449  0.1944 -1.0007 -0.6487
  169SOPE   O2119037   1.181   3.517   6.521 -0.1660  0.5394 -0.1844
  169SOPE   C2119038   1.098   3.547   6.619  0.3520  0.7716  0.2497
  169SOPE   O2219039   0.986   3.504   6.641 -0.2844 -0.3503 -0.2204
  169SOPE   C2219040   1.153   3.671   6.700  0.2177  0.1340  0.9935
  169SOPE   H2R19041   1.127   3.760   6.639 -0.0598  0.2942  1.3460
  169SOPE   H2S19042   1.263   3.656   6.713  0.3789  1.2616  0.9547
  169SOPE    C319043   1.244   3.293   6.470  0.5419  0.5481  0.1723
  169SOPE    HX19044   1.348   3.329   6.462  0.6400  0.2492  0.1144
  169SOPE    HY19045   1.214   3.219   6.392 -1.7364  0.2432  1.2768
  169SOPE   O3119046   1.216   3.243   6.597  0.1140 -0.1602 -0.7706
  169SOPE   C3119047   1.322   3.168   6.644 -0.0656  0.1320  0.9465
  169SOPE   O3219048   1.422   3.147   6.581 -0.3383  0.4990 -0.3770
  169SOPE   C3219049   1.294   3.123   6.787 -0.0687 -0.2645  0.6558
  169SOPE   H2X19050   1.382   3.076   6.835 -1.2359 -1.1441  1.9808
  169SOPE   H2Y19051   1.229   3.034   6.782  0.0155 -0.3772  1.4306
  169SOPE   C2319052   1.070   3.705   6.826  0.5499 -0.0115  0.2765
  169SOPE   H3R19053   1.075   3.617   6.893 -0.8003 -0.2925  0.0310
  169SOPE   H3S19054   0.964   3.729   6.805 -0.4556 -0.8886  4.1184
  169SOPE   C2419055   1.138   3.834   6.883  0.6671  0.8543  0.5673
  169SOPE   H4R19056   1.246   3.827   6.858  0.2405 -2.5829 -0.5651
  169SOPE   H4S19057   1.099   3.917   6.820 -1.4483 -0.4935  0.0596
  169SOPE   C2519058   1.088   3.866   7.028  0.1112  0.4573  0.5299
  169SOPE   H5R19059   1.164   3.933   7.073 -0.3976 -0.4340  2.7597
  169SOPE   H5S19060   0.984   3.904   7.023 -0.2546 -0.6191 -0.1265
  169SOPE   C2619061   1.084   3.741   7.127 -0.1282 -0.0857  0.5314
  169SOPE   H6R19062   1.002   3.676   7.092  0.9375 -0.5519 -1.1705
  169SOPE   H6S19063   1.178   3.682   7.123  0.1326  0.3365  0.3787
  169SOPE   C2719064   1.064   3.792   7.271 -0.9212  0.5436  0.0273
  169SOPE   H7R19065   1.133   3.878   7.288 -0.5636  0.0587  1.0744
  169SOPE   H7S19066   0.960   3.831   7.279 -0.9985  1.0484 -2.8055
  169SOPE   C2819067   1.084   3.683   7.374 -0.1396  0.3490 -0.2525
  169SOPE   H8R19068   1.023   3.592   7.357 -2.2490  1.2817  2.1665
  169SOPE   H8S19069   1.191   3.655   7.363 -1.1916 -3.2065 -2.1505
  169SOPE   C2919070   1.048   3.728   7.514  0.2053  0.0725 -0.4230
  169SOPE   H9119071   0.941   3.754   7.511  0.2931  0.3615 -1.2747
  169SOPE  C21019072   1.121   3.749   7.624  0.2675  0.1433 -0.9330
  169SOPE  H10119073   1.058   3.792   7.704 -1.2841 -2.8429 -0.4653
  169SOPE  C21119074   1.271   3.718   7.647  0.3792  0.0154 -0.0385
  169SOPE  H11R19075   1.341   3.804   7.640  0.5158 -0.0238  0.8633
  169SOPE  H11S19076   1.302   3.644   7.569  2.7955 -0.0460  0.9492
  169SOPE  C21219077   1.297   3.650   7.782  0.2650 -0.0910 -0.3684
  169SOPE  H12R19078   1.401   3.614   7.791 -0.2363 -1.0909  1.9390
  169SOPE  H12S19079   1.234   3.559   7.795  3.0839 -1.8504  1.7629
  169SOPE  C21319080   1.273   3.749   7.898  0.3987 -0.6929 -0.1755
  169SOPE  H13R19081   1.164   3.768   7.911  0.1279 -3.1667  1.4131
  169SOPE  H13S19082   1.321   3.846   7.873 -0.7346 -0.1666 -0.3359
  169SOPE  C21419083   1.328   3.712   8.032  0.0025  0.6287 -0.3843
  169SOPE  H14R19084   1.434   3.679   8.023 -0.3751 -0.6390 -0.3303
  169SOPE  H14S19085   1.273   3.620   8.065  0.9425  0.4827  0.8204
  169SOPE  C21519086   1.299   3.823   8.134 -0.0519 -0.6649 -0.9890
  169SOPE  H15R19087   1.188   3.834   8.138 -0.2035 -2.2841 -0.6653
  169SOPE  H15S19088   1.348   3.915   8.096 -0.9567  0.2422 -0.0064
  169SOPE  C21619089   1.356   3.793   8.270 -0.8654 -0.7383  0.0041
  169SOPE  H16R19090   1.466   3.807   8.265 -0.8320 -0.3193  1.5255
  169SOPE  H16S19091   1.338   3.689   8.303 -1.5254 -1.0206 -1.2229
  169SOPE  C21719092   1.315   3.884   8.392 -0.1656  0.2610  0.8895
  169SOPE  H17R19093   1.211   3.852   8.413  0.2728 -0.4837  1.9595
  169SOPE  H17S19094   1.325   3.992   8.371  2.3330  0.5696  3.4217
  169SOPE  C21819095   1.395   3.848   8.517  0.2379 -0.2405 -0.0305
  169SOPE  H18R19096   1.361   3.747   8.548  0.2624 -0.7663 -1.7060
  169SOPE  H18S19097   1.390   3.925   8.598  0.3114 -1.4056  1.1070
  169SOPE  H18T19098   1.501   3.847   8.487  0.2313 -0.2847 -0.0510
  169SOPE   C3319099   1.226   3.230   6.871  0.6040 -0.0007  0.2917
  169SOPE   H3X19100   1.130   3.253   6.819  0.2602 -1.4990  0.2299
  169SOPE   H3Y19101   1.292   3.319   6.860  1.1520 -0.2049  1.8252
  169SOPE   C3419102   1.196   3.187   7.016 -0.8520  0.0890 -0.3133
  169SOPE   H4X19103   1.128   3.101   7.031 -1.8377  1.1015  1.2745
  169SOPE   H4Y19104   1.134   3.273   7.051  1.0129  0.2905  2.7077
  169SOPE   C3519105   1.326   3.181   7.096 -0.2556  0.1257 -0.2869
  169SOPE   H5X19106   1.382   3.277   7.100 -0.6158  0.2688  1.6653
  169SOPE   H5Y19107   1.381   3.102   7.041  0.0909  1.0341 -1.2560
  169SOPE   C3619108   1.291   3.139   7.240  0.5940 -0.0246 -0.7767
  169SOPE   H6X19109   1.385   3.136   7.300 -0.6129 -3.0297  1.0715
  169SOPE   H6Y19110   1.262   3.032   7.244 -2.2373  0.6483 -1.8317
  169SOPE   C3719111   1.197   3.227   7.321 -0.6014  0.3119 -0.1435
  169SOPE   H7X19112   1.096   3.197   7.285 -0.8762  1.4172 -0.3101
  169SOPE   H7Y19113   1.220   3.333   7.297  0.1270  0.6695  2.0041
  169SOPE   C3819114   1.220   3.204   7.475  0.2247  0.3002  1.0500
  169SOPE   H8X19115   1.211   3.099   7.510 -0.3730  0.6097  1.8441
  169SOPE   H8Y19116   1.328   3.227   7.487 -0.6607  3.7044  3.1666
  169SOPE   C3919117   1.143   3.303   7.561  0.2046  0.6879  0.0466
  169SOPE   H9X19118   1.037   3.269   7.569  0.6664 -0.4533  1.5310
  169SOPE   H9Y19119   1.146   3.406   7.520 -2.6373  0.9140  0.3373
  169SOPE  C31019120   1.187   3.303   7.704 -0.8763 -0.3920 -0.7571
  169SOPE  H10X19121   1.283   3.357   7.717  0.5915 -2.5964 -1.9615
  169SOPE  H10Y19122   1.221   3.202   7.734  0.7757  0.5706  0.6475
  169SOPE  C31119123   1.077   3.320   7.811 -1.1453  0.2478  0.6104
  169SOPE  H11X19124   0.997   3.246   7.790  1.2271 -1.6754 -1.9922
  169SOPE  H11Y19125   1.032   3.420   7.794  1.1718  1.9317  3.8330
  169SOPE  C31219126   1.128   3.322   7.952  0.6911 -0.1489 -0.7532
  169SOPE  H12X19127   1.210   3.396   7.970  0.6873 -0.8466  2.3324
  169SOPE  H12Y19128   1.176   3.222   7.962 -2.4049 -1.9424 -3.1005
  169SOPE  C31319129   1.021   3.341   8.061 -0.0699 -0.6557 -0.6364
  169SOPE  H13X19130   0.944   3.260   8.057  0.3896 -1.2767  2.2115
  169SOPE  H13Y19131   0.972   3.440   8.053  2.0674  0.4022 -0.9370
  169SOPE  C31419132   1.087   3.342   8.209  0.1247 -0.4017 -0.1856
  169SOPE  H14X19133   1.157   3.428   8.207  1.7689 -1.6233  2.2232
  169SOPE  H14Y19134   1.140   3.246   8.229 -0.1893 -0.3775  0.7582
  169SOPE  C31519135   0.977   3.353   8.312  0.2224 -0.6794  0.4465
  169SOPE  H15X19136   0.943   3.249   8.334 -1.6752  0.0934  1.2395
  169SOPE  H15Y19137   0.902   3.418   8.263  3.3271  1.6144 -1.5029
  169SOPE  C31619138   1.010   3.407   8.456 -0.4267 -0.4572 -0.2467
  169SOPE  H16X19139   1.039   3.514   8.456 -0.7483 -0.3419  1.6923
  169SOPE  H16Y19140   1.086   3.336   8.494 -1.2855 -0.8959  0.6978
  169SOPE  C31719141   0.899   3.391   8.558  0.6383  0.0578  0.3507
  169SOPE  H17X19142   0.811   3.439   8.511  0.3598 -1.5877 -0.8558
  169SOPE  H17Y19143   0.915   3.447   8.652  0.5254  1.9749 -0.7510
  169SOPE  C31819144   0.846   3.252   8.604  0.6069 -0.0067 -0.1081
  169SOPE  H18X19145   0.927   3.197   8.656  1.8862  1.4017 -0.5555
  169SOPE  H18Y19146   0.798   3.187   8.528 -0.2870 -1.5946  1.7881
  169SOPE  H18Z19147   0.769   3.281   8.678  0.4087  0.1171 -0.3620
  170SOPE     N19148   2.646   2.175   6.615  0.3511 -0.2738 -0.3045
  170SOPE   HN119149   2.605   2.088   6.654 -0.6293  0.8924  1.3282
  170SOPE   HN219150   2.629   2.183   6.512 -0.6326  1.3805 -0.0355
  170SOPE   HN319151   2.749   2.164   6.629  0.6924  2.6052 -0.1259
  170SOPE   C1219152   2.596   2.306   6.673 -0.1561  0.2411  0.1082
  170SOPE  H12A19153   2.629   2.395   6.615 -0.7458  0.2534 -0.2146
  170SOPE  H12B19154   2.637   2.304   6.776  0.0867 -0.1460  0.0053
  170SOPE   C1119155   2.439   2.320   6.690 -0.1556 -0.2645 -1.1571
  170SOPE  H11A19156   2.427   2.411   6.754  0.6364 -2.2721  1.9437
  170SOPE  H11B19157   2.418   2.239   6.763  2.3323 -1.0048 -1.2278
  170SOPE     P19158   2.286   2.194   6.522  0.0696 -0.0188 -0.3214
  170SOPE   O1319159   2.378   2.088   6.496  0.1821  0.3838 -0.4873
  170SOPE   O1419160   2.197   2.239   6.418  0.3979  0.2861 -0.4391
  170SOPE   O1219161   2.373   2.318   6.567 -0.5203 -0.2882  0.3477
  170SOPE   O1119162   2.202   2.160   6.654  0.4086  0.6717 -0.7754
  170SOPE    C119163   2.077   2.218   6.676  0.8910  0.2127  0.2615
  170SOPE    HA19164   2.011   2.138   6.714 -0.5731  0.9029 -0.7934
  170SOPE    HB19165   2.021   2.257   6.589 -1.8532 -0.0728  1.8337
  170SOPE    C219166   2.087   2.319   6.791 -0.1897  0.4849 -0.0579
  170SOPE    HS19167   2.149   2.408   6.763  2.5088 -1.5650 -0.8794
  170SOPE   O2119168   2.147   2.257   6.903  0.6025 -0.6689 -0.3241
  170SOPE   C2119169   2.225   2.334   6.978 -0.3811  0.9450  0.3089
  170SOPE   O2219170   2.271   2.445   6.951 -0.0880  0.1805  0.1518
  170SOPE   C2219171   2.274   2.239   7.090 -0.2189  0.3278  0.0782
  170SOPE   H2R19172   2.379   2.208   7.069 -0.1641  0.9870 -0.6109
  170SOPE   H2S19173   2.210   2.148   7.090 -0.9445  0.8329 -0.0288
  170SOPE    C319174   1.947   2.371   6.848 -0.0568  0.5416 -0.2902
  170SOPE    HX19175   1.888   2.282   6.878  0.5590  0.4122  0.5480
  170SOPE    HY19176   1.899   2.415   6.758 -0.5126 -1.1102 -0.8696
  170SOPE   O3119177   1.959   2.461   6.955  0.2593  0.8355  0.2838
  170SOPE   C3119178   1.852   2.539   6.982  1.0210 -0.1612 -0.3390
  170SOPE   O3219179   1.741   2.532   6.932 -0.2990  0.1288 -0.0904
  170SOPE   C3219180   1.882   2.636   7.098 -1.0499  0.3348 -0.3567
  170SOPE   H2X19181   1.943   2.721   7.063  0.3566 -0.9507 -1.1059
  170SOPE   H2Y19182   1.956   2.583   7.163 -2.8792  0.6623  2.0849
  170SOPE   C2319183   2.283   2.303   7.230  0.4323  0.1528 -0.2755
  170SOPE   H3R19184   2.368   2.375   7.224  0.7502 -0.3722 -2.4609
  170SOPE   H3S19185   2.318   2.223   7.300  0.2736  0.6661  0.4030
  170SOPE   C2419186   2.156   2.370   7.282 -0.7195  0.3019 -0.5903
  170SOPE   H4R19187   2.185   2.399   7.386 -0.9877  1.1562 -0.7568
  170SOPE   H4S19188   2.133   2.467   7.234 -1.4754  0.5543  0.2736
  170SOPE   C2519189   2.031   2.281   7.273  0.2338 -0.2977 -0.2806
  170SOPE   H5R19190   1.955   2.353   7.310  0.0967 -0.4895 -0.1910
  170SOPE   H5S19191   2.009   2.262   7.165 -0.8178  0.3006 -0.1776
  170SOPE   C2619192   2.022   2.158   7.361 -0.7045 -0.0358 -0.1461
  170SOPE   H6R19193   1.939   2.091   7.329 -0.0144 -1.9297  1.9233
  170SOPE   H6S19194   2.115   2.100   7.342 -1.0772 -0.1216 -1.7406
  170SOPE   C2719195   2.031   2.177   7.509  0.1455  0.5456 -0.1496
  170SOPE   H7R19196   2.093   2.097   7.554 -0.7281 -0.8387 -1.3870
  170SOPE   H7S19197   2.083   2.271   7.538  0.4612 -0.3317  2.2182
  170SOPE   C2819198   1.889   2.162   7.575  0.3790 -0.9960 -0.3711
  170SOPE   H8R19199   1.841   2.069   7.539 -4.7122  1.4741 -0.4159
  170SOPE   H8S19200   1.902   2.147   7.685 -2.4940  1.1825  0.3355
  170SOPE   C2919201   1.789   2.270   7.538  0.7011 -0.3386  0.3407
  170SOPE   H9119202   1.710   2.227   7.474 -0.2047  2.0571 -0.1811
  170SOPE  C21019203   1.785   2.401   7.569 -0.1308  0.1274 -0.0215
  170SOPE  H10119204   1.693   2.451   7.536  0.1254  0.5098 -0.1488
  170SOPE  C21119205   1.874   2.479   7.658 -0.3641 -0.2148 -0.4167
  170SOPE  H11R19206   1.919   2.564   7.602 -1.0825 -0.3617 -1.2217
  170SOPE  H11S19207   1.957   2.412   7.690 -0.1331 -0.1526 -0.8885
  170SOPE  C21219208   1.793   2.533   7.776 -0.3185  0.8426  0.0422
  170SOPE  H12R19209   1.710   2.460   7.788 -0.5722  1.0740 -0.3108
  170SOPE  H12S19210   1.745   2.624   7.735  1.1099  1.5058 -0.1980
  170SOPE  C21319211   1.877   2.548   7.899 -0.5939  0.6973 -0.1814
  170SOPE  H13R19212   1.961   2.615   7.872 -0.4952 -0.0361 -1.6897
  170SOPE  H13S19213   1.912   2.447   7.931 -0.2226  1.6331  2.5219
  170SOPE  C21419214   1.785   2.595   8.019 -0.3580 -0.0004  0.0734
  170SOPE  H14R19215   1.737   2.692   7.995  0.1766 -0.0601 -1.2537
  170SOPE  H14S19216   1.865   2.625   8.090  1.6233 -1.8191 -1.3154
  170SOPE  C21519217   1.688   2.490   8.077 -0.3435  0.4739  0.4630
  170SOPE  H15R19218   1.733   2.405   8.131  1.4745  2.0863  1.5224
  170SOPE  H15S19219   1.628   2.447   7.994  2.7515 -0.5658 -1.2959
  170SOPE  C21619220   1.581   2.540   8.181 -0.5333 -0.1154  0.0295
  170SOPE  H16R19221   1.529   2.450   8.221 -2.8853  1.4020  0.5116
  170SOPE  H16S19222   1.519   2.606   8.117 -1.5046 -1.0409 -0.0167
  170SOPE  C21719223   1.655   2.612   8.286 -0.4138 -0.2944 -1.1499
  170SOPE  H17R19224   1.596   2.681   8.349 -0.1356 -1.8638  0.8624
  170SOPE  H17S19225   1.736   2.681   8.254 -0.8011  0.0394 -1.4265
  170SOPE  C21819226   1.706   2.519   8.389  0.4055  0.2361  0.1263
  170SOPE  H18R19227   1.747   2.574   8.477  2.3673 -1.6129  0.4079
  170SOPE  H18S19228   1.788   2.460   8.342  1.6415  3.0225 -1.3361
  170SOPE  H18T19229   1.618   2.456   8.412 -0.4752  0.6172 -2.0932
  170SOPE   C3319230   1.751   2.692   7.178 -0.8483  0.1141  0.6355
  170SOPE   H3X19231   1.674   2.614   7.196 -0.3442 -0.5158  0.0945
  170SOPE   H3Y19232   1.698   2.772   7.122  0.6261 -0.2226 -1.2925
  170SOPE   C3419233   1.798   2.753   7.309 -0.2509  0.5324 -0.1918
  170SOPE   H4X19234   1.866   2.838   7.287  3.7712 -2.5261 -0.2117
  170SOPE   H4Y19235   1.864   2.678   7.359 -2.1513  1.4113  3.8982
  170SOPE   C3519236   1.683   2.801   7.400  0.3572 -0.0754  0.2214
  170SOPE   H5X19237   1.614   2.721   7.433 -1.0795  0.3199 -1.7272
  170SOPE   H5Y19238   1.610   2.866   7.348 -0.9927 -1.2372  0.6366
  170SOPE   C3619239   1.744   2.867   7.523  0.5480 -0.2429 -0.8070
  170SOPE   H6X19240   1.810   2.953   7.499  1.4431 -0.6143  0.2788
  170SOPE   H6Y19241   1.809   2.792   7.573 -0.4473  1.1529  2.6588
  170SOPE   C3719242   1.636   2.875   7.633  0.7212 -0.7610 -0.2365
  170SOPE   H7X19243   1.597   2.774   7.659  0.8027 -1.0955 -1.4147
  170SOPE   H7Y19244   1.549   2.933   7.595  0.6260 -0.7388  0.0082
  170SOPE   C3819245   1.706   2.935   7.754 -0.1473 -0.5305  0.0604
  170SOPE   H8X19246   1.738   3.039   7.734  1.6422 -0.4817  2.8154
  170SOPE   H8Y19247   1.804   2.885   7.772 -0.4574 -0.6526  1.5049
  170SOPE   C3919248   1.628   2.923   7.884 -0.4352  0.5843  0.1655
  170SOPE   H9X19249   1.591   2.819   7.900  0.8592  0.2201  0.8943
  170SOPE   H9Y19250   1.536   2.983   7.869 -0.8285  0.0113  0.2622
  170SOPE  C31019251   1.696   2.982   8.007  0.1773 -0.5291  0.2211
  170SOPE  H10X19252   1.711   3.092   7.999  0.9752 -0.6217  0.4138
  170SOPE  H10Y19253   1.791   2.926   8.020  0.5655  0.4622  1.7041
  170SOPE  C31119254   1.623   2.959   8.137  0.3064  0.0007 -0.5469
  170SOPE  H11X19255   1.596   2.851   8.134 -0.7647  0.1548  2.0722
  170SOPE  H11Y19256   1.527   3.013   8.154  0.4488 -0.0587  0.4885
  170SOPE  C31219257   1.712   3.004   8.261  0.5580 -0.0467 -0.0805
  170SOPE  H12X19258   1.756   3.105   8.250 -0.3995  0.2410 -1.4291
  170SOPE  H12Y19259   1.799   2.936   8.266  0.0315 -1.0492 -3.5071
  170SOPE  C31319260   1.631   2.999   8.390  0.3627 -0.7820  0.2827
  170SOPE  H13X19261   1.605   2.895   8.418  1.0224 -0.9143  0.4030
  170SOPE  H13Y19262   1.539   3.055   8.362  0.4766 -0.7672 -0.0658
  170SOPE  C31419263   1.708   3.070   8.505 -0.0671 -0.5068 -0.6910
  170SOPE  H14X19264   1.764   3.164   8.484 -0.1733  0.3421  2.6303
  170SOPE  H14Y19265   1.790   3.000   8.531 -1.1611 -0.7989  2.1875
  170SOPE  C31519266   1.623   3.091   8.622 -0.1465  0.4950 -0.2078
  170SOPE  H15X19267   1.678   3.097   8.719 -1.2888 -1.6688  0.5912
  170SOPE  H15Y19268   1.552   3.006   8.628  1.4311 -0.9279 -1.1273
  170SOPE  C31619269   1.546   3.218   8.615 -0.3964 -0.5253  0.3334
  170SOPE  H16X19270   1.502   3.234   8.514 -0.2208 -0.9701  0.1888
  170SOPE  H16Y19271   1.617   3.304   8.614  0.2152 -0.9942  2.3423
  170SOPE  C31719272   1.433   3.225   8.716  0.8846 -0.4053  0.0038
  170SOPE  H17X19273   1.474   3.284   8.800  0.4693 -0.6628  0.3899
  170SOPE  H17Y19274   1.399   3.122   8.739  1.2612 -0.0306  2.3606
  170SOPE  C31819275   1.303   3.286   8.672 -0.2673 -0.3811  0.0098
  170SOPE  H18X19276   1.319   3.386   8.625 -0.1638 -0.1284  0.5699
  170SOPE  H18Y19277   1.229   3.312   8.751  1.7107  2.7672  0.9227
  170SOPE  H18Z19278   1.243   3.220   8.606  0.7962 -2.2995  0.9344
  171SOPE     N19279   1.610   5.806   6.466 -0.5909 -0.6046  0.2058
  171SOPE   HN119280   1.630   5.705   6.481 -0.8176 -0.8033 -0.7571
  171SOPE   HN219281   1.640   5.864   6.547  1.9514  1.6302 -2.2102
  171SOPE   HN319282   1.506   5.812   6.462 -0.5432  0.3896  0.2011
  171SOPE   C1219283   1.679   5.865   6.345 -1.1309 -0.4136 -0.1708
  171SOPE  H12A19284   1.640   5.970   6.340  2.3319  0.8922 -1.1187
  171SOPE  H12B19285   1.648   5.813   6.252  0.5134  0.0042 -0.9652
  171SOPE   C1119286   1.836   5.875   6.371  0.0843 -0.3106  0.6339
  171SOPE  H11A19287   1.854   5.940   6.459 -0.9766  2.9240 -1.4316
  171SOPE  H11B19288   1.882   5.924   6.282 -1.6385  1.4504  0.6667
  171SOPE     P19289   2.036   5.703   6.429 -0.5289  0.0290  0.0680
  171SOPE   O1319290   2.125   5.800   6.364  0.0863  0.0691 -0.1147
  171SOPE   O1419291   2.062   5.558   6.406 -0.4411  0.0806 -0.0393
  171SOPE   O1219292   1.888   5.736   6.377 -0.1131 -0.4049  0.2369
  171SOPE   O1119293   2.026   5.731   6.582  0.3180  0.5155  0.0910
  171SOPE    C119294   1.924   5.648   6.654  0.4839 -0.2450 -0.5255
  171SOPE    HA19295   1.864   5.575   6.595 -1.0251 -0.4982  1.2789
  171SOPE    HB19296   1.855   5.722   6.700 -0.0824  0.7587 -2.9239
  171SOPE    C219297   1.988   5.555   6.759 -0.7684  0.8607 -0.2877
  171SOPE    HS19298   1.913   5.524   6.835  1.0438 -0.8302  0.8481
  171SOPE   O2119299   2.105   5.618   6.821 -0.5092  0.5291 -0.2859
  171SOPE   C2119300   2.086   5.730   6.886 -0.3125  0.3827 -0.0542
  171SOPE   O2219301   1.981   5.781   6.911  0.3238  0.3858 -0.4444
  171SOPE   C2219302   2.218   5.790   6.921 -0.6268 -0.0300  0.4675
  171SOPE   H2R19303   2.197   5.899   6.919  0.6525  0.2495  1.2562
  171SOPE   H2S19304   2.282   5.768   6.833 -1.4511 -0.2195 -0.0924
  171SOPE    C319305   2.042   5.427   6.691 -0.4072 -0.3741 -0.1224
  171SOPE    HX19306   2.128   5.470   6.634 -0.3820 -0.2705 -0.0067
  171SOPE    HY19307   1.975   5.377   6.618 -0.9318  0.2901 -0.0988
  171SOPE   O3119308   2.100   5.337   6.790 -0.1819  0.5275 -0.0103
  171SOPE   C3119309   2.008   5.244   6.829 -0.5295 -0.5064 -0.3608
  171SOPE   O3219310   1.891   5.246   6.796 -0.1463 -0.1086 -0.0530
  171SOPE   C3219311   2.082   5.157   6.936  0.1682 -0.3909  0.1430
  171SOPE   H2X19312   2.071   5.207   7.034 -1.2177 -0.5870  0.1054
  171SOPE   H2Y19313   2.189   5.154   6.907  1.1749  0.8523  3.4950
  171SOPE   C2319314   2.283   5.744   7.055 -0.0324 -1.0073  0.0279
  171SOPE   H3R19315   2.390   5.774   7.064 -0.4388 -0.2699  2.6429
  171SOPE   H3S19316   2.261   5.638   7.079  1.1291 -1.4523 -0.8383
  171SOPE   C2419317   2.214   5.824   7.165  0.1773  0.6531  0.5672
  171SOPE   H4R19318   2.233   5.931   7.145  0.0429  0.1576 -2.4684
  171SOPE   H4S19319   2.103   5.827   7.169  0.1313 -0.8523  0.6963
  171SOPE   C2519320   2.253   5.778   7.305 -0.7757 -0.0536 -0.1483
  171SOPE   H5R19321   2.226   5.670   7.310 -1.4985  0.1899  1.5370
  171SOPE   H5S19322   2.360   5.772   7.331 -0.4524  0.3518 -1.3412
  171SOPE   C2619323   2.175   5.850   7.418  0.1562 -0.0172  0.2022
  171SOPE   H6R19324   2.168   5.957   7.391 -1.2309  0.4183  2.2232
  171SOPE   H6S19325   2.073   5.806   7.419 -0.1993  0.8084  2.5120
  171SOPE   C2719326   2.238   5.842   7.556  0.1980  0.4347  0.6038
  171SOPE   H7R19327   2.229   5.735   7.585  0.9211  0.4398  0.8791
  171SOPE   H7S19328   2.345   5.863   7.531  0.0468 -0.7348 -1.0884
  171SOPE   C2819329   2.173   5.934   7.655 -0.0500  0.2096 -0.4695
  171SOPE   H8R19330   2.073   5.958   7.613  0.7586  0.8520 -2.0771
  171SOPE   H8S19331   2.153   5.878   7.748  0.7883 -0.8451 -0.9169
  171SOPE   C2919332   2.255   6.059   7.676  0.2501 -0.3440 -0.3558
  171SOPE   H9119333   2.292   6.109   7.586 -1.3006  0.4106 -0.5882
  171SOPE  C21019334   2.278   6.126   7.793  0.3481 -1.4584 -0.1268
  171SOPE  H10119335   2.325   6.226   7.794  0.2636 -1.4134 -0.6260
  171SOPE  C21119336   2.233   6.087   7.935 -0.1134 -0.3749  0.3764
  171SOPE  H11R19337   2.318   6.106   8.004 -0.3274  0.3492  0.4440
  171SOPE  H11S19338   2.199   5.981   7.931 -0.1022 -0.3485 -0.6076
  171SOPE  C21219339   2.108   6.162   7.982 -0.5662  0.9330 -0.6942
  171SOPE  H12R19340   2.022   6.138   7.915  0.3253  0.7979 -1.8141
  171SOPE  H12S19341   2.115   6.273   7.977 -0.3990  1.0313  1.3340
  171SOPE  C21319342   2.063   6.124   8.122  0.0607  0.4015 -0.3998
  171SOPE  H13R19343   2.079   6.017   8.148 -2.3151  0.1822  0.3213
  171SOPE  H13S19344   1.952   6.137   8.121 -0.3964 -2.9184  0.5252
  171SOPE  C21419345   2.112   6.213   8.233  0.6157 -0.5841  0.2839
  171SOPE  H14R19346   2.058   6.309   8.218  0.1199 -0.7350  1.0781
  171SOPE  H14S19347   2.221   6.233   8.223  0.6653 -1.5195 -1.1992
  171SOPE  C21519348   2.087   6.160   8.382 -0.0989  0.1710  0.8807
  171SOPE  H15R19349   1.979   6.137   8.387  0.2833 -1.8856  0.2006
  171SOPE  H15S19350   2.115   6.243   8.451  1.2411 -1.0122  1.7846
  171SOPE  C21619351   2.162   6.028   8.414 -0.1751  0.2217  0.1650
  171SOPE  H16R19352   2.271   6.052   8.410 -0.3484  1.0228  0.3566
  171SOPE  H16S19353   2.142   5.962   8.326 -2.9029  2.2029 -0.7304
  171SOPE  C21719354   2.119   5.983   8.556  0.0356 -0.1505  0.6106
  171SOPE  H17R19355   2.008   5.983   8.561  0.0651  0.6378  1.3624
  171SOPE  H17S19356   2.152   6.066   8.622  1.1384  0.2039 -0.3753
  171SOPE  C21819357   2.169   5.851   8.614 -0.2705 -0.3926 -0.4254
  171SOPE  H18R19358   2.135   5.839   8.719  2.3701 -0.2137  0.4782
  171SOPE  H18S19359   2.279   5.846   8.602 -0.3549  0.4275 -1.7202
  171SOPE  H18T19360   2.132   5.766   8.553 -1.4122 -0.4772  0.3760
  171SOPE   C3319361   2.007   5.022   6.958  0.3786  0.3758 -0.3629
  171SOPE   H3X19362   2.071   4.953   7.017  0.9205 -1.0731 -2.5568
  171SOPE   H3Y19363   1.994   4.974   6.858  0.1465 -1.4068  0.5078
  171SOPE   C3419364   1.870   5.027   7.027 -0.4671  0.0369  0.5808
  171SOPE   H4X19365   1.807   4.946   6.982  0.3259  0.9342 -2.2707
  171SOPE   H4Y19366   1.821   5.122   6.998  0.3607  0.4039  0.3715
  171SOPE   C3519367   1.878   4.998   7.179 -0.2160  0.6456  0.6358
  171SOPE   H5X19368   1.940   5.077   7.225  1.3819  0.7544 -1.6022
  171SOPE   H5Y19369   1.931   4.900   7.184 -0.2423  0.5612 -0.5019
  171SOPE   C3619370   1.750   4.998   7.259 -0.1897  0.1768 -0.0765
  171SOPE   H6X19371   1.675   4.929   7.214 -2.2184  3.2444 -1.5577
  171SOPE   H6Y19372   1.705   5.098   7.245  0.2750  0.7835  2.5217
  171SOPE   C3719373   1.763   4.966   7.406 -0.3754 -0.5390  0.8946
  171SOPE   H7X19374   1.823   5.053   7.442 -0.5760  0.1638 -0.4178
  171SOPE   H7Y19375   1.820   4.872   7.420  1.8434  0.6034 -0.2876
  171SOPE   C3819376   1.627   4.940   7.468  0.0271  0.0011  0.2832
  171SOPE   H8X19377   1.574   4.866   7.405 -0.4887  0.2212  0.4490
  171SOPE   H8Y19378   1.563   5.031   7.465 -0.2378 -0.0184  3.6224
  171SOPE   C3919379   1.629   4.897   7.618  0.3108  0.1767  0.0313
  171SOPE   H9X19380   1.698   4.811   7.629 -1.8097 -1.4850  0.5480
  171SOPE   H9Y19381   1.528   4.863   7.648  0.3945  0.4889  0.6656
  171SOPE  C31019382   1.676   5.022   7.704  0.1976  0.1329 -0.1498
  171SOPE  H10X19383   1.622   5.110   7.663  0.6225  0.2992 -0.3639
  171SOPE  H10Y19384   1.779   5.055   7.678  0.1455  0.0559 -0.4465
  171SOPE  C31119385   1.678   5.010   7.852 -0.0227  0.2647  0.2722
  171SOPE  H11X19386   1.705   4.910   7.892 -0.7019  1.0068  2.6386
  171SOPE  H11Y19387   1.573   5.034   7.881 -0.4829  0.7046 -1.6723
  171SOPE  C31219388   1.766   5.121   7.919 -0.3284  0.6212  0.6897
  171SOPE  H12X19389   1.740   5.221   7.879 -0.4139  0.5844  0.6531
  171SOPE  H12Y19390   1.866   5.088   7.884 -1.1177  1.0381 -2.0918
  171SOPE  C31319391   1.760   5.119   8.069  0.3745 -0.2348 -0.3225
  171SOPE  H13X19392   1.814   5.027   8.097  0.5242  0.4970  1.8874
  171SOPE  H13Y19393   1.656   5.117   8.109 -0.0881 -1.0051 -1.5347
  171SOPE  C31419394   1.833   5.233   8.131  0.1673  0.3533  0.1985
  171SOPE  H14X19395   1.762   5.318   8.128  1.5211  1.5106  0.0916
  171SOPE  H14Y19396   1.923   5.254   8.068 -0.3177  0.8107 -0.3415
  171SOPE  C31519397   1.891   5.218   8.274  0.1805 -0.1854  0.1641
  171SOPE  H15X19398   1.976   5.147   8.263 -0.4495 -0.6191 -2.3569
  171SOPE  H15Y19399   1.810   5.178   8.338  1.7512 -3.5917  0.1310
  171SOPE  C31619400   1.931   5.352   8.348  0.2067 -0.7413 -0.5365
  171SOPE  H16X19401   2.015   5.396   8.289  1.3892 -0.8096  1.0822
  171SOPE  H16Y19402   1.970   5.327   8.449 -1.6052  2.1112  0.9523
  171SOPE  C31719403   1.817   5.454   8.358  0.0593 -0.3725 -0.9014
  171SOPE  H17X19404   1.740   5.412   8.426 -0.6567  2.0349 -0.1816
  171SOPE  H17Y19405   1.758   5.477   8.266 -1.7381 -1.8837 -0.1550
  171SOPE  C31819406   1.872   5.584   8.428  0.4976  0.7047  0.7018
  171SOPE  H18X19407   1.934   5.569   8.520 -0.5715  0.3025  1.3726
  171SOPE  H18Y19408   1.789   5.651   8.459  0.7198 -0.1063  3.1812
  171SOPE  H18Z19409   1.935   5.644   8.359 -2.5381  2.5454 -0.5619
  172SOPE     N19410   2.695   0.649   6.239 -0.1464 -0.2315  0.2719
  172SOPE   HN119411   2.721   0.620   6.143 -0.2210 -0.5100  0.3366
  172SOPE   HN219412   2.630   0.730   6.234  0.1102 -0.2024 -4.7770
  172SOPE   HN319413   2.781   0.687   6.282  1.7561 -2.3411 -1.5767
  172SOPE   C1219414   2.625   0.549   6.324  0.4409  0.1196  0.6919
  172SOPE  H12A19415   2.673   0.452   6.301 -1.7420 -1.1096  1.2358
  172SOPE  H12B19416   2.521   0.545   6.285  0.7107 -2.3181  0.1807
  172SOPE   C1119417   2.650   0.576   6.468 -0.0935  0.4551 -0.5988
  172SOPE  H11A19418   2.577   0.523   6.534 -0.1081 -0.7554 -1.5707
  172SOPE  H11B19419   2.623   0.684   6.471  1.8871  0.9434  1.4574
  172SOPE     P19420   2.873   0.650   6.587  0.1838  0.2694 -0.2471
  172SOPE   O1319421   2.828   0.786   6.559 -0.0325 -0.0934 -0.0119
  172SOPE   O1419422   3.010   0.603   6.546  0.1268  0.1040 -0.4905
  172SOPE   O1219423   2.782   0.546   6.510  0.1390 -0.0794 -0.5577
  172SOPE   O1119424   2.837   0.625   6.735 -0.3657 -0.1816 -0.1780
  172SOPE    C119425   2.712   0.650   6.796 -0.9181 -0.2338  0.3227
  172SOPE    HA19426   2.624   0.598   6.753 -0.2391 -0.2659 -1.0589
  172SOPE    HB19427   2.688   0.758   6.798  0.1395  0.0258  4.6903
  172SOPE    C219428   2.701   0.611   6.953 -0.2432  0.8221  0.0820
  172SOPE    HS19429   2.795   0.639   7.005 -0.1198  0.8170 -0.1364
  172SOPE   O2119430   2.673   0.468   6.971  0.5273 -0.2297  0.2692
  172SOPE   C2119431   2.765   0.393   7.027 -0.7434 -0.5052 -0.0338
  172SOPE   O2219432   2.871   0.435   7.072  0.1481  0.0564  0.1040
  172SOPE   C2219433   2.717   0.244   7.025 -0.1843  0.0030 -0.2855
  172SOPE   H2R19434   2.749   0.212   6.923  0.2471 -0.3424 -0.0409
  172SOPE   H2S19435   2.607   0.240   7.039 -0.3128 -2.1669 -1.6289
  172SOPE    C319436   2.594   0.698   7.022 -0.2846  0.5430 -0.6519
  172SOPE    HX19437   2.497   0.677   6.972 -0.7914 -1.0176  0.9343
  172SOPE    HY19438   2.620   0.806   7.021  2.6084 -0.1032 -0.4036
  172SOPE   O3119439   2.572   0.655   7.161  0.2298 -0.7261 -0.3107
  172SOPE   C3119440   2.541   0.749   7.251  0.1256 -0.3467  0.4674
  172SOPE   O3219441   2.507   0.868   7.231  0.5488  0.3579 -0.3421
  172SOPE   C3219442   2.527   0.680   7.385 -0.2307  0.3853 -0.0181
  172SOPE   H2X19443   2.577   0.581   7.382 -0.7891  0.1331 -1.2140
  172SOPE   H2Y19444   2.423   0.656   7.415 -0.8744  0.8258 -1.8903
  172SOPE   C2319445   2.789   0.159   7.124  0.5145  0.7339  0.1727
  172SOPE   H3R19446   2.897   0.156   7.098  0.5632  1.4965  0.2684
  172SOPE   H3S19447   2.753   0.054   7.116 -0.4445  0.8341  2.6206
  172SOPE   C2419448   2.760   0.188   7.274 -0.2737  0.9663  0.9300
  172SOPE   H4R19449   2.797   0.292   7.288  1.9473  0.2620  0.4692
  172SOPE   H4S19450   2.650   0.183   7.288 -0.1160  1.2819  2.3820
  172SOPE   C2519451   2.836   0.079   7.356  0.2467 -0.4381 -0.3514
  172SOPE   H5R19452   2.795  -0.024   7.346  0.3016 -0.6029  1.0562
  172SOPE   H5S19453   2.943   0.081   7.325  0.7274  2.2877  1.3696
  172SOPE   C2619454   2.848   0.106   7.513  0.1853 -0.1288 -0.2517
  172SOPE   H6R19455   2.932   0.048   7.557  0.3603  0.3790  0.0836
  172SOPE   H6S19456   2.871   0.213   7.530 -0.9633  0.2164 -0.8326
  172SOPE   C2719457   2.711   0.079   7.571 -0.0291  0.1791 -0.1182
  172SOPE   H7R19458   2.642   0.151   7.523  0.3246  0.4301 -0.2535
  172SOPE   H7S19459   2.685  -0.025   7.540 -1.4267  0.7771 -1.0007
  172SOPE   C2819460   2.693   0.101   7.720 -0.0983  0.1491 -0.0916
  172SOPE   H8R19461   2.727   0.202   7.752 -1.4655  0.1080  1.5671
  172SOPE   H8S19462   2.585   0.097   7.746 -0.1511  2.4863  0.1641
  172SOPE   C2919463   2.767   0.003   7.806 -0.3598 -0.1647 -0.2127
  172SOPE   H9119464   2.787  -0.090   7.751 -1.1149  1.0462 -2.5922
  172SOPE  C21019465   2.822   0.011   7.928 -0.4565 -0.0407 -0.4832
  172SOPE  H10119466   2.880  -0.077   7.957  0.8339  1.9314  3.2766
  172SOPE  C21119467   2.818   0.138   8.008 -0.0747 -0.7553  0.1304
  172SOPE  H11R19468   2.792   0.226   7.945  1.6945 -0.7172 -0.5709
  172SOPE  H11S19469   2.920   0.152   8.049 -0.9546 -0.0287  2.1338
  172SOPE  C21219470   2.734   0.131   8.132  0.1269 -0.1322 -0.4535
  172SOPE  H12R19471   2.758   0.219   8.196  1.6901 -0.5727 -0.4301
  172SOPE  H12S19472   2.772   0.049   8.197 -0.8265  1.1048  1.7316
  172SOPE  C21319473   2.583   0.116   8.107 -0.0656  0.6995  0.1103
  172SOPE  H13R19474   2.561   0.020   8.055  1.0185  0.6647 -0.2967
  172SOPE  H13S19475   2.549   0.198   8.040 -1.9475 -0.0009  0.1692
  172SOPE  C21419476   2.494   0.131   8.240 -0.5523 -0.3448  0.5530
  172SOPE  H14R19477   2.387   0.146   8.214 -0.3406 -3.0995 -2.2549
  172SOPE  H14S19478   2.520   0.225   8.291 -0.9713  0.3464 -0.4912
  172SOPE  C21519479   2.508   0.000   8.326  0.0802  1.0090 -0.0105
  172SOPE  H15R19480   2.606  -0.030   8.370 -1.1517 -1.2020  1.3268
  172SOPE  H15S19481   2.463  -0.080   8.264 -0.7595  2.6602 -1.5866
  172SOPE  C21619482   2.412   0.005   8.440  0.1854 -0.1036 -0.6844
  172SOPE  H16R19483   2.306   0.008   8.407 -0.3655  0.9009  1.1238
  172SOPE  H16S19484   2.413   0.103   8.491 -0.3597  0.6135 -2.0118
  172SOPE  C21719485   2.422  -0.106   8.544 -0.8693 -0.4706 -0.0104
  172SOPE  H17R19486   2.520  -0.090   8.593  0.1755 -1.0246 -1.8550
  172SOPE  H17S19487   2.407  -0.201   8.490 -2.1319  0.6967 -1.7901
  172SOPE  C21819488   2.308  -0.099   8.652 -0.0301 -0.5602 -0.9012
  172SOPE  H18R19489   2.318  -0.179   8.728 -0.2841 -0.9993 -1.3264
  172SOPE  H18S19490   2.210  -0.111   8.600  0.1860 -1.4120 -1.1347
  172SOPE  H18T19491   2.313  -0.003   8.706 -1.9052 -0.5000 -0.8009
  172SOPE   C3319492   2.590   0.764   7.500  0.5252 -0.0029  0.5706
  172SOPE   H3X19493   2.521   0.848   7.521 -0.0865  0.1999 -2.1205
  172SOPE   H3Y19494   2.693   0.797   7.475  1.2559 -2.5824  0.1018
  172SOPE   C3419495   2.613   0.690   7.632 -0.2384 -0.0587 -0.4429
  172SOPE   H4X19496   2.509   0.658   7.654 -1.3952  3.8000  0.0830
  172SOPE   H4Y19497   2.641   0.762   7.712  2.0507 -0.7734 -0.5605
  172SOPE   C3519498   2.708   0.573   7.629 -0.4390  0.5423 -0.0903
  172SOPE   H5X19499   2.787   0.592   7.554 -1.9861  1.0391 -1.6300
  172SOPE   H5Y19500   2.664   0.481   7.586  1.4463 -0.6981  0.5515
  172SOPE   C3619501   2.786   0.562   7.766 -0.1876  0.5646  1.1139
  172SOPE   H6X19502   2.835   0.659   7.787 -0.9627  0.7573  2.0397
  172SOPE   H6Y19503   2.874   0.494   7.754  1.0895  2.7715 -3.0976
  172SOPE   C3719504   2.692   0.524   7.879 -0.0004 -0.3120  0.2422
  172SOPE   H7X19505   2.662   0.418   7.867  3.3007 -1.2681  0.0625
  172SOPE   H7Y19506   2.609   0.599   7.879  0.1162 -0.1817  0.1256
  172SOPE   C3819507   2.765   0.533   8.019 -0.2919 -0.3623 -0.2082
  172SOPE   H8X19508   2.810   0.634   8.028 -0.4153 -0.3860  0.7974
  172SOPE   H8Y19509   2.851   0.463   8.018  0.5302  0.5553  2.0097
  172SOPE   C3919510   2.682   0.500   8.136 -0.8154  0.5935  0.1900
  172SOPE   H9X19511   2.642   0.397   8.123  1.1057  0.2522 -3.6083
  172SOPE   H9Y19512   2.597   0.572   8.138 -1.0991  0.2658  3.1862
  172SOPE  C31019513   2.768   0.526   8.265  0.4910 -0.0355 -0.3287
  172SOPE  H10X19514   2.778   0.637   8.264 -2.0940  0.2322 -0.2672
  172SOPE  H10Y19515   2.874   0.493   8.255 -0.7583 -3.9704 -1.2360
  172SOPE  C31119516   2.712   0.475   8.397 -0.2134 -0.3057  0.7390
  172SOPE  H11X19517   2.771   0.529   8.474  0.0182 -0.1855  0.4777
  172SOPE  H11Y19518   2.731   0.366   8.410 -1.2760 -0.3873  1.7303
  172SOPE  C31219519   2.567   0.519   8.414 -0.8933 -0.2064  0.3072
  172SOPE  H12X19520   2.509   0.503   8.321  0.9654  2.1300 -1.3357
  172SOPE  H12Y19521   2.573   0.624   8.451  2.4790 -0.6509  1.2070
  172SOPE  C31319522   2.513   0.449   8.534 -0.0975  0.4566  0.0721
  172SOPE  H13X19523   2.560   0.499   8.621 -0.7767 -1.2668  1.4388
  172SOPE  H13Y19524   2.539   0.342   8.523  0.2091  0.6884 -1.7787
  172SOPE  C31419525   2.357   0.467   8.555  0.7342 -0.1450  0.1684
  172SOPE  H14X19526   2.328   0.404   8.642 -3.7624  2.2352  0.5667
  172SOPE  H14Y19527   2.307   0.419   8.468 -1.2647 -0.4274  1.4488
  172SOPE  C31519528   2.310   0.609   8.575 -1.2184 -0.5949  0.3925
  172SOPE  H15X19529   2.347   0.676   8.495  0.1690 -0.1838  1.3705
  172SOPE  H15Y19530   2.353   0.644   8.671  0.6238 -1.6821 -0.0062
  172SOPE  C31619531   2.159   0.618   8.593  0.9755 -0.1844  0.1084
  172SOPE  H16X19532   2.121   0.540   8.661  3.0637 -2.5250 -1.3272
  172SOPE  H16Y19533   2.109   0.586   8.499  0.9576  1.7963 -0.5894
  172SOPE  C31719534   2.100   0.751   8.657 -0.1568 -0.3937 -0.7403
  172SOPE  H17X19535   2.146   0.760   8.758 -1.2937  1.7519 -0.3924
  172SOPE  H17Y19536   1.992   0.725   8.671 -0.2835 -1.2403 -3.1409
  172SOPE  C31819537   2.118   0.862   8.559 -0.1221 -0.8413 -1.0545
  172SOPE  H18X19538   2.097   0.844   8.452 -0.8840  0.3604 -1.1142
  172SOPE  H18Y19539   2.225   0.892   8.552  0.2739 -0.7921  3.3956
  172SOPE  H18Z19540   2.054   0.948   8.591  0.4715  0.0599 -2.2544
  173SAPI   C1219541   6.037   5.122  10.910 -0.1354 -0.2270 -0.5157
  173SAPI    H219542   5.997   5.198  10.839  2.0843  1.1822 -0.3141
  173SAPI    O219543   6.151   5.063  10.845 -0.3634 -0.5372 -0.4550
  173SAPI   HO219544   6.167   5.121  10.770 -1.7470  0.2450 -0.1810
  173SAPI   C1319545   6.074   5.191  11.040  0.6177  0.4692 -0.1595
  173SAPI    H319546   5.986   5.245  11.082  0.0573 -0.0351 -0.6807
  173SAPI    O319547   6.168   5.297  11.025 -0.1413 -0.9103 -0.3586
  173SAPI   HO319548   6.210   5.305  11.110  2.6031  0.1540 -1.7632
  173SAPI   C1419549   6.112   5.084  11.144 -0.1753 -0.3429  0.5380
  173SAPI    H419550   6.195   5.023  11.104 -1.1126 -2.1212  1.2456
  173SAPI    O419551   6.172   5.146  11.262 -0.2494 -0.2676 -0.4107
  173SAPI   HO419552   6.118   5.215  11.303  0.5287  0.1755 -0.1222
  173SAPI   C1519553   6.006   4.981  11.170 -0.1189 -0.0369 -1.0781
  173SAPI    H519554   5.926   5.039  11.221  1.4281  1.3275 -0.1733
  173SAPI    O519555   6.052   4.867  11.258  0.1550  0.2838 -0.3300
  173SAPI   HO519556   6.088   4.791  11.213  1.6415  0.7583  0.0528
  173SAPI   C1619557   5.963   4.920  11.038 -0.3260 -0.7300  1.3978
  173SAPI    H619558   6.050   4.862  11.001 -0.4941 -0.7645  1.0525
  173SAPI    O619559   5.853   4.829  11.062 -0.2107 -0.3830  0.1096
  173SAPI   HO619560   5.823   4.797  10.976  1.5793 -0.3463 -0.5556
  173SAPI   C1119561   5.924   5.024  10.940 -0.3435 -0.4278 -0.1253
  173SAPI    H119562   5.841   5.081  10.987 -0.2736 -0.7450  0.3926
  173SAPI     P19563   5.740   5.003  10.734  0.0976  0.0904 -0.0943
  173SAPI   O1319564   5.639   5.059  10.830 -0.8255  0.4761  0.2804
  173SAPI   O1419565   5.697   4.898  10.639 -0.0283 -0.5761  0.3815
  173SAPI   O1219566   5.881   4.967  10.813  0.2242 -0.3726  0.5347
  173SAPI   O1119567   5.785   5.135  10.654 -0.3394 -0.1551 -0.2852
  173SAPI    C119568   5.890   5.133  10.557  0.0873  0.1353  0.6268
  173SAPI    HA19569   5.981   5.174  10.605  0.1877  0.9510 -0.2353
  173SAPI    HB19570   5.910   5.032  10.517 -1.7747 -0.3413  0.8230
  173SAPI    C219571   5.861   5.213  10.426  0.7644  0.0134 -0.3015
  173SAPI    HS19572   5.931   5.172  10.350  0.8449 -0.1087 -0.1609
  173SAPI   O2119573   5.882   5.357  10.447  0.1025 -0.1468 -0.1618
  173SAPI   C2119574   5.944   5.421  10.348 -0.0063  0.2131  1.1380
  173SAPI   O2219575   5.994   5.368  10.247  0.2801  0.0877 -0.0102
  173SAPI   C2219576   5.947   5.570  10.368 -0.5481  0.0581  0.2144
  173SAPI   H2R19577   5.996   5.591  10.466 -1.0817 -3.4114  1.3124
  173SAPI   H2S19578   6.012   5.619  10.293 -1.9150 -1.3389 -1.9230
  173SAPI    C319579   5.713   5.190  10.378  0.4494  0.2955 -0.3018
  173SAPI    HX19580   5.651   5.225  10.463  2.7693  0.9251  1.1562
  173SAPI    HY19581   5.694   5.081  10.369 -1.9880  0.8264 -2.2426
  173SAPI   O3119582   5.680   5.271  10.267 -0.8079 -0.1649  0.6860
  173SAPI   C3119583   5.717   5.218  10.149  0.2564 -0.8776  0.2205
  173SAPI   O3219584   5.744   5.103  10.121 -0.5665  0.6708  0.6377
  173SAPI   C3219585   5.701   5.325  10.046  0.4576  0.0375  0.1724
  173SAPI   H2X19586   5.774   5.407  10.063 -0.2370  1.0489 -1.6031
  173SAPI   H2Y19587   5.602   5.375  10.040  0.2107 -0.4064  0.5262
  173SAPI   C2319588   5.807   5.640  10.384 -0.4697 -0.7695  1.1745
  173SAPI   H3R19589   5.831   5.718  10.460 -0.4610 -0.6342  1.0321
  173SAPI   H3S19590   5.729   5.579  10.433 -1.5658  0.9099  1.5590
  173SAPI   C2419591   5.737   5.689  10.261 -0.5883  0.0701 -0.7074
  173SAPI   H4R19592   5.635   5.715  10.297  0.1231  1.9447  0.0635
  173SAPI   H4S19593   5.730   5.597  10.199  1.6113  0.0585 -0.9915
  173SAPI   C2519594   5.813   5.808  10.198 -0.4010 -0.3714  0.4272
  173SAPI   H5R19595   5.850   5.876  10.276  2.1020 -0.0519 -0.9761
  173SAPI   C2619596   5.837   5.823  10.064 -0.4500  0.2844  0.4459
  173SAPI   H6R19597   5.878   5.921  10.033 -0.2277 -0.2371 -0.9273
  173SAPI   C2719598   5.802   5.727   9.950  0.3147  0.0493 -0.4679
  173SAPI   H7R19599   5.699   5.685   9.954  0.5801 -0.4348  2.4715
  173SAPI   H7S19600   5.868   5.639   9.967  2.8487  1.9514 -0.1676
  173SAPI   C2819601   5.818   5.790   9.812  0.1425  0.2126 -0.5433
  173SAPI   H8R19602   5.728   5.825   9.759 -1.1269 -0.8712  0.8506
  173SAPI   C2919603   5.936   5.793   9.747 -0.0466 -0.7194 -0.6815
  173SAPI   H9R19604   5.946   5.862   9.662  0.1793  1.0253  0.7272
  173SAPI  C21019605   6.068   5.738   9.802 -0.1509  0.5564  0.5036
  173SAPI  H10R19606   6.098   5.650   9.740  2.1157  0.8681  1.1223
  173SAPI  H10S19607   6.041   5.685   9.895 -0.1366  0.7658  0.6262
  173SAPI  C21119608   6.186   5.834   9.829  0.0226  0.0572  0.1354
  173SAPI  H11R19609   6.179   5.889   9.924  1.3928  1.1572 -0.3843
  173SAPI  C21219610   6.290   5.851   9.745  0.7167 -0.2873  0.0301
  173SAPI  H12R19611   6.363   5.929   9.769  0.9785 -0.1925 -1.0653
  173SAPI  C21319612   6.301   5.781   9.615 -0.0013  0.0643 -0.0363
  173SAPI  H13R19613   6.200   5.774   9.569 -0.2055  0.4739  0.3407
  173SAPI  H13S19614   6.314   5.674   9.642  2.8120  0.3029 -0.2643
  173SAPI  C21419615   6.424   5.822   9.542 -0.2177 -0.1466  0.4472
  173SAPI  H14R19616   6.515   5.852   9.596  0.4684  1.1090 -1.3501
  173SAPI  C21519617   6.429   5.840   9.407 -0.5805 -0.2730  0.2184
  173SAPI  H15R19618   6.517   5.884   9.359 -2.2359  0.9257 -1.7751
  173SAPI  C21619619   6.322   5.814   9.301 -0.1046 -0.3422  0.7303
  173SAPI  H16R19620   6.278   5.912   9.273  2.9367  0.9916  0.3770
  173SAPI  H16S19621   6.243   5.745   9.339 -1.0614 -0.1363 -0.8478
  173SAPI  C21719622   6.372   5.747   9.171 -0.0267 -0.3679  0.4717
  173SAPI  H17R19623   6.429   5.653   9.190  0.2283 -0.2477  0.2911
  173SAPI  H17S19624   6.429   5.829   9.123 -1.4452 -0.6620 -1.7941
  173SAPI  C21819625   6.259   5.719   9.063 -0.7097 -0.3218 -0.5719
  173SAPI  H18R19626   6.206   5.815   9.048 -0.6873 -0.2774 -0.3657
  173SAPI  H18S19627   6.190   5.648   9.113 -3.5140  1.4109 -1.8986
  173SAPI  C21919628   6.321   5.655   8.931  0.1070 -0.4537 -0.3068
  173SAPI  H19R19629   6.236   5.636   8.862  0.5256  2.4567 -1.6937
  173SAPI  H19S19630   6.377   5.562   8.954  2.2693  0.8273 -0.2709
  173SAPI  C22019631   6.429   5.747   8.861  0.2521  0.0275  0.0886
  173SAPI  H20R19632   6.516   5.752   8.929 -2.3631 -1.2212  3.6805
  173SAPI  H20S19633   6.408   5.856   8.860  0.2856  0.0332 -0.5436
  173SAPI  H20T19634   6.464   5.707   8.763  1.9378 -0.6360  0.9282
  173SAPI   C3319635   5.729   5.272   9.896 -0.0629 -0.9412  0.0558
  173SAPI   H3X19636   5.655   5.199   9.858 -2.0064  1.3060 -0.6120
  173SAPI   H3Y19637   5.817   5.207   9.911  0.3091 -0.7119 -1.0639
  173SAPI   C3419638   5.772   5.384   9.795 -0.2538 -0.6056 -0.5086
  173SAPI   H4X19639   5.854   5.455   9.818 -0.7012 -0.4381  0.6025
  173SAPI   H4Y19640   5.679   5.442   9.780 -1.1643 -1.5647  1.2427
  173SAPI   C3519641   5.812   5.329   9.656  0.2294  0.3275 -0.0149
  173SAPI   H5X19642   5.891   5.256   9.685  0.6691  1.2806  1.2367
  173SAPI   H5Y19643   5.864   5.412   9.603  1.1217  0.5777  1.2225
  173SAPI   C3619644   5.701   5.245   9.579 -0.9956 -0.0260  1.0097
  173SAPI   H6X19645   5.606   5.300   9.561 -0.2757  1.5096  1.8685
  173SAPI   H6Y19646   5.676   5.158   9.644  2.4791 -0.0906  2.3808
  173SAPI   C3719647   5.769   5.195   9.450  0.1756 -0.1066  0.2474
  173SAPI   H7X19648   5.845   5.121   9.483  1.9564  1.1407 -0.9219
  173SAPI   H7Y19649   5.829   5.279   9.410 -0.3960  0.6065  0.8910
  173SAPI   C3819650   5.674   5.132   9.346 -0.1753 -0.3283 -0.3571
  173SAPI   H8X19651   5.639   5.037   9.390  0.2661  0.0689  0.8749
  173SAPI   H8Y19652   5.735   5.111   9.256  1.8406  1.6291  0.5039
  173SAPI   C3919653   5.546   5.216   9.307  0.2599  0.0731  0.3662
  173SAPI   H9X19654   5.564   5.302   9.239 -0.6144  0.9634  1.2415
  173SAPI   H9Y19655   5.505   5.239   9.408  0.4263 -1.4247  0.7900
  173SAPI  C31019656   5.446   5.125   9.227  0.5277 -0.0917 -0.4333
  173SAPI  H10X19657   5.422   5.047   9.303  0.2461 -0.0479 -0.4786
  173SAPI  H10Y19658   5.498   5.067   9.149  0.5651 -2.6475  1.4229
  173SAPI  C31119659   5.336   5.198   9.165  0.4530 -0.0550 -0.2194
  173SAPI  H11X19660   5.327   5.301   9.203 -0.2593  0.7252 -2.4549
  173SAPI  H11Y19661   5.236   5.159   9.194  1.2089 -1.4718  0.5639
  173SAPI  C31219662   5.347   5.196   9.011  0.5574 -0.1925 -0.5383
  173SAPI  H12X19663   5.249   5.232   8.973 -1.2602 -0.7256  3.3134
  173SAPI  H12Y19664   5.353   5.089   8.984  2.5119 -0.4696  0.8616
  173SAPI  C31319665   5.458   5.282   8.943 -0.1843  0.2040 -0.5361
  173SAPI  H13X19666   5.482   5.242   8.843 -1.4528  2.0392 -1.6033
  173SAPI  H13Y19667   5.553   5.278   9.001 -0.8541  2.6593  0.8239
  173SAPI  C31419668   5.419   5.431   8.929  0.5636 -0.1527 -0.5682
  173SAPI  H14X19669   5.508   5.490   8.901  1.2433 -0.8530  0.0860
  173SAPI  H14Y19670   5.389   5.467   9.030 -1.0527  0.6035 -1.3094
  173SAPI  C31519671   5.315   5.462   8.815  0.3917 -0.6711 -0.1303
  173SAPI  H15X19672   5.356   5.563   8.796  0.7417 -0.7114  0.3892
  173SAPI  H15Y19673   5.217   5.467   8.866  0.2316 -0.2342 -0.4887
  173SAPI  C31619674   5.309   5.373   8.691  0.3335 -0.1891  0.0163
  173SAPI  H16X19675   5.272   5.274   8.725 -2.6041  0.4498 -1.1538
  173SAPI  H16Y19676   5.412   5.346   8.660  0.6475  0.5450  0.4103
  173SAPI  C31719677   5.233   5.436   8.572  0.5246  0.0225  0.8831
  173SAPI  H17X19678   5.259   5.382   8.479 -0.0093 -1.5787  1.6416
  173SAPI  H17Y19679   5.267   5.542   8.562  1.5317 -0.2270  1.5325
  173SAPI  C31819680   5.083   5.444   8.594  0.0154 -0.4695  1.3659
  173SAPI  H18X19681   5.042   5.346   8.624  0.9202 -1.4814 -0.6316
  173SAPI  H18Y19682   5.029   5.482   8.504 -0.5896 -1.5440  1.2714
  173SAPI  H18Z19683   5.057   5.521   8.670  0.1754  1.2651 -0.2741
  174SAPI   C1219684   2.314   5.996  11.292  0.0917 -0.1457 -0.0345
  174SAPI    H219685   2.271   6.084  11.240 -0.4033 -0.6740 -0.5269
  174SAPI    O219686   2.453   5.988  11.266 -0.4383  0.1587 -0.0635
  174SAPI   HO219687   2.473   6.041  11.189  0.2145 -1.5039 -1.0571
  174SAPI   C1319688   2.292   6.021  11.439 -0.3604  0.1362  0.2335
  174SAPI    H319689   2.182   6.035  11.450 -0.2313 -0.0065  1.9266
  174SAPI    O319690   2.344   6.151  11.478 -0.2391 -0.3685 -0.2773
  174SAPI   HO319691   2.391   6.198  11.409 -0.4289 -0.9285 -0.7956
  174SAPI   C1419692   2.345   5.898  11.523 -0.1337 -0.0669 -0.1132
  174SAPI    H419693   2.455   5.887  11.515 -0.4100 -0.6604 -3.8995
  174SAPI    O419694   2.329   5.926  11.663  0.7314  0.2895  0.1853
  174SAPI   HO419695   2.411   5.891  11.698  2.0258  2.1017 -0.9183
  174SAPI   C1519696   2.282   5.771  11.479 -0.1082 -0.0084  0.4349
  174SAPI    H519697   2.177   5.779  11.516 -0.8797 -1.8926 -1.3056
  174SAPI    O519698   2.334   5.666  11.546 -0.1077  0.1707 -0.0381
  174SAPI   HO519699   2.259   5.610  11.569  1.4416 -0.4370  3.9554
  174SAPI   C1619700   2.285   5.747  11.330 -0.4513 -0.2561 -0.1479
  174SAPI    H619701   2.388   5.717  11.299 -0.5148  0.6107 -1.2415
  174SAPI    O619702   2.201   5.636  11.296 -0.2081 -0.0011 -0.0087
  174SAPI   HO619703   2.156   5.659  11.214  1.7501  0.5059 -0.9740
  174SAPI   C1119704   2.240   5.870  11.250 -0.3576 -0.0062  0.4130
  174SAPI    H119705   2.131   5.885  11.265 -0.7107 -1.0620 -0.9446
  174SAPI     P19706   2.175   5.803  10.993 -0.0412  0.0655  0.2967
  174SAPI   O1319707   2.069   5.717  11.052  0.2745 -0.1069 -0.0679
  174SAPI   O1419708   2.252   5.755  10.876  0.1327 -0.5013  0.1580
  174SAPI   O1219709   2.272   5.852  11.116  0.2254 -0.0803  0.5456
  174SAPI   O1119710   2.102   5.938  10.957 -0.0808  0.9817  0.1793
  174SAPI    C119711   2.168   6.061  10.923  0.7163 -0.2965 -0.3465
  174SAPI    HA19712   2.109   6.146  10.963 -1.2084 -1.9001  0.3261
  174SAPI    HB19713   2.268   6.069  10.971  0.0522  0.3656  0.9634
  174SAPI    C219714   2.168   6.083  10.774  0.3365  0.4184 -0.4164
  174SAPI    HS19715   2.062   6.070  10.741 -0.3633  1.7396  1.2562
  174SAPI   O2119716   2.259   5.991  10.710 -0.3291 -0.0197  0.1569
  174SAPI   C2119717   2.201   5.923  10.605  0.3864 -0.2203  0.6008
  174SAPI   O2219718   2.084   5.934  10.574 -0.3332  0.2334  0.0470
  174SAPI   C2219719   2.297   5.831  10.536 -0.0385  0.8509  0.1101
  174SAPI   H2R19720   2.338   5.774  10.622 -0.6959  0.9415  0.4840
  174SAPI   H2S19721   2.231   5.767  10.473 -0.0967  2.1833 -1.2013
  174SAPI    C319722   2.205   6.228  10.731 -0.2296  0.7602 -0.1345
  174SAPI    HX19723   2.299   6.260  10.781  0.3766 -0.0187 -0.7643
  174SAPI    HY19724   2.126   6.292  10.776  0.4554  1.5651 -0.0790
  174SAPI   O3119725   2.209   6.250  10.585 -1.0050  0.2975  0.0259
  174SAPI   C3119726   2.226   6.379  10.551 -0.0887  0.5793 -0.1228
  174SAPI   O3219727   2.231   6.474  10.627 -0.3155  0.2544  0.6459
  174SAPI   C3219728   2.246   6.390  10.407  0.0992  0.4641  0.5007
  174SAPI   H2X19729   2.159   6.352  10.351  0.8734  1.9896 -1.8001
  174SAPI   H2Y19730   2.341   6.334  10.392 -1.0520 -1.6943  1.2023
  174SAPI   C2319731   2.413   5.910  10.465 -0.0967  0.2920 -0.0614
  174SAPI   H3R19732   2.467   5.964  10.545  1.0308 -0.5048 -0.2702
  174SAPI   H3S19733   2.363   5.976  10.390 -0.6989 -0.1635 -0.0675
  174SAPI   C2419734   2.530   5.835  10.392  0.3796 -0.1644  0.1180
  174SAPI   H4R19735   2.559   5.755  10.463 -0.7467  0.8525  1.7364
  174SAPI   H4S19736   2.613   5.908  10.378 -1.2885  1.5367 -1.2458
  174SAPI   C2519737   2.495   5.768  10.260  0.8864  0.0321 -0.5820
  174SAPI   H5R19738   2.502   5.659  10.250  1.5795  0.1755 -1.6955
  174SAPI   C2619739   2.454   5.842  10.154  0.3856  0.4159  0.0463
  174SAPI   H6R19740   2.428   5.787  10.062 -1.2098  1.1777  0.0232
  174SAPI   C2719741   2.431   5.989  10.142 -0.0876  0.1266  0.8685
  174SAPI   H7R19742   2.490   6.031  10.227 -0.4691  2.0286  0.2106
  174SAPI   H7S19743   2.325   6.014  10.161  0.2816  2.4452 -0.0528
  174SAPI   C2819744   2.475   6.059  10.014  0.3345  0.1916  0.4426
  174SAPI   H8R19745   2.568   6.024   9.968  0.8518  2.9845 -0.7821
  174SAPI   C2919746   2.422   6.171   9.963 -0.1528 -0.7480 -0.1307
  174SAPI   H9R19747   2.477   6.203   9.874 -1.4137  0.7902 -0.3743
  174SAPI  C21019748   2.305   6.253  10.011 -0.1519 -0.3270 -0.2272
  174SAPI  H10R19749   2.307   6.356   9.971  0.0721  0.6021  2.1351
  174SAPI  H10S19750   2.302   6.270  10.121 -1.1643 -1.0711 -0.1274
  174SAPI  C21119751   2.169   6.196   9.978  0.1375 -0.8290 -0.1490
  174SAPI  H11R19752   2.099   6.165  10.056  1.3036 -0.9417  0.8639
  174SAPI  C21219753   2.113   6.173   9.857  0.1231  0.7034  0.8524
  174SAPI  H12R19754   2.014   6.126   9.850 -0.3681  1.8858 -0.3604
  174SAPI  C21319755   2.178   6.195   9.723 -0.0627  0.9135 -0.3683
  174SAPI  H13R19756   2.276   6.246   9.729 -1.0216  2.5929  2.1372
  174SAPI  H13S19757   2.113   6.267   9.669 -2.2608  0.7711  1.9884
  174SAPI  C21419758   2.200   6.065   9.654 -0.0502 -0.1673  0.4474
  174SAPI  H14R19759   2.165   5.977   9.709  0.0337 -1.1052 -0.9680
  174SAPI  C21519760   2.275   6.044   9.547  0.2335  0.4987  1.2891
  174SAPI  H15R19761   2.297   5.939   9.521 -0.1444  0.2729  1.8767
  174SAPI  C21619762   2.351   6.147   9.467  0.5166  0.4203 -1.0226
  174SAPI  H16R19763   2.441   6.096   9.426  1.7435  0.9651  0.9154
  174SAPI  H16S19764   2.388   6.228   9.533 -0.0564 -0.6100  0.6005
  174SAPI  C21719765   2.258   6.204   9.362 -0.3654  0.0790  0.6868
  174SAPI  H17R19766   2.301   6.304   9.338  1.7448 -1.1145 -0.6305
  174SAPI  H17S19767   2.156   6.219   9.406 -1.2708 -0.1155 -1.3194
  174SAPI  C21819768   2.244   6.102   9.248  0.0743 -0.0383 -0.2312
  174SAPI  H18R19769   2.164   6.029   9.272 -2.1590  3.0067  2.0354
  174SAPI  H18S19770   2.344   6.056   9.232  0.8027  1.1283  0.8945
  174SAPI  C21919771   2.189   6.165   9.117  0.0761  0.0893 -0.1630
  174SAPI  H19R19772   2.238   6.264   9.103  1.3671 -0.3035  1.4232
  174SAPI  H19S19773   2.082   6.189   9.133 -0.1580 -0.3018 -1.1451
  174SAPI  C22019774   2.201   6.086   8.990  0.5058  0.6256 -0.1277
  174SAPI  H20R19775   2.181   6.145   8.898  0.5203  0.6599 -0.1089
  174SAPI  H20S19776   2.138   5.994   8.995 -0.3977  1.3053  1.2852
  174SAPI  H20T19777   2.307   6.057   8.979 -0.2558 -1.9102 -1.2759
  174SAPI   C3319778   2.250   6.542  10.368 -0.4495 -0.2343 -1.6510
  174SAPI   H3X19779   2.345   6.581  10.408  0.8597 -3.4195 -1.4957
  174SAPI   H3Y19780   2.166   6.604  10.405  1.9111  1.2768  1.3260
  174SAPI   C3419781   2.252   6.544  10.215  0.2472 -0.7507 -1.0767
  174SAPI   H4X19782   2.169   6.491  10.163 -2.1861  3.2540 -1.4304
  174SAPI   H4Y19783   2.338   6.491  10.169  0.2583  0.1156 -2.0567
  174SAPI   C3519784   2.229   6.694  10.157 -0.4305  0.5343  0.1957
  174SAPI   H5X19785   2.284   6.761  10.227  0.9241  0.5527 -0.8560
  174SAPI   H5Y19786   2.120   6.708  10.173 -0.5074  0.0236  0.1162
  174SAPI   C3619787   2.270   6.710  10.010  0.4972  0.4649  0.4034
  174SAPI   H6X19788   2.372   6.668   9.999  0.4152 -0.0452  1.5979
  174SAPI   H6Y19789   2.267   6.819   9.989  1.4886  0.2224 -1.0600
  174SAPI   C3719790   2.179   6.640   9.901 -0.2216  0.4552  0.5360
  174SAPI   H7X19791   2.072   6.658   9.921 -0.7387 -1.6375 -0.2688
  174SAPI   H7Y19792   2.203   6.533   9.920 -0.1637  0.0167 -1.8570
  174SAPI   C3819793   2.223   6.663   9.753 -0.0791  0.0024 -0.5227
  174SAPI   H8X19794   2.331   6.638   9.748 -0.0861 -0.0097 -0.6133
  174SAPI   H8Y19795   2.219   6.772   9.733  0.2082  0.2427  0.7104
  174SAPI   C3919796   2.144   6.574   9.655  0.3598  0.2433 -0.1959
  174SAPI   H9X19797   2.046   6.626   9.649  0.8967  1.2483 -0.4318
  174SAPI   H9Y19798   2.139   6.479   9.712  1.5959  0.7650  0.8138
  174SAPI  C31019799   2.212   6.554   9.527  0.1915 -0.3477  0.6742
  174SAPI  H10X19800   2.177   6.462   9.475  1.1358  0.3742 -1.2777
  174SAPI  H10Y19801   2.322   6.544   9.539  0.3619 -0.6379 -0.9646
  174SAPI  C31119802   2.185   6.662   9.423 -0.4101  0.3552 -0.1702
  174SAPI  H11X19803   2.233   6.755   9.460 -0.5530  0.2027  0.4083
  174SAPI  H11Y19804   2.076   6.685   9.413 -0.4899  0.7292  1.4195
  174SAPI  C31219805   2.232   6.619   9.283 -0.2020 -0.7318 -0.5199
  174SAPI  H12X19806   2.328   6.564   9.276  0.5182  0.4555 -0.1773
  174SAPI  H12Y19807   2.253   6.714   9.228  2.9201 -0.5570  0.9030
  174SAPI  C31319808   2.123   6.538   9.200 -0.0683 -0.3729  0.0656
  174SAPI  H13X19809   2.027   6.591   9.218  1.8525  2.1806  3.4921
  174SAPI  H13Y19810   2.122   6.433   9.235  0.9254 -0.2773  0.3818
  174SAPI  C31419811   2.146   6.537   9.051 -0.2915 -0.5771 -0.3908
  174SAPI  H14X19812   2.228   6.466   9.027 -2.2223 -3.0220  0.0875
  174SAPI  H14Y19813   2.181   6.637   9.018  2.5013 -1.5197 -0.3852
  174SAPI  C31519814   2.017   6.497   8.977  0.2468  0.0158 -0.1899
  174SAPI  H15X19815   1.943   6.569   9.017 -0.8262 -1.2688  0.1796
  174SAPI  H15Y19816   1.982   6.400   9.019 -2.3347  1.5751  1.3682
  174SAPI  C31619817   2.031   6.515   8.828  0.5328 -0.4520  0.1452
  174SAPI  H16X19818   2.107   6.440   8.797  2.5034  1.6324 -0.2024
  174SAPI  H16Y19819   2.070   6.617   8.806  2.9885 -0.6841  3.0722
  174SAPI  C31719820   1.898   6.479   8.757 -0.3950 -0.7758 -0.2041
  174SAPI  H17X19821   1.816   6.537   8.804  1.6399  0.3254  2.1094
  174SAPI  H17Y19822   1.874   6.373   8.781  1.8692 -1.4282 -0.7248
  174SAPI  C31819823   1.902   6.510   8.601 -0.3027 -0.1717  0.6119
  174SAPI  H18X19824   1.804   6.529   8.551  0.4481  0.4330 -0.6390
  174SAPI  H18Y19825   1.957   6.432   8.544  1.6780  3.9634 -3.4432
  174SAPI  H18Z19826   1.963   6.601   8.583 -2.7233  1.2503 -0.7301
  175SAPI   C1219827   3.595   4.769   6.341  0.4533 -0.4203 -0.3190
  175SAPI    H219828   3.623   4.713   6.432 -1.0171  0.2915  0.5903
  175SAPI    O219829   3.495   4.684   6.277 -0.1984 -0.7657  0.1242
  175SAPI   HO219830   3.422   4.674   6.339 -0.9060 -0.0790 -0.5976
  175SAPI   C1319831   3.537   4.900   6.385 -0.4916 -0.9510  0.6373
  175SAPI    H319832   3.616   4.967   6.425 -1.9012 -0.0012  1.8819
  175SAPI    O319833   3.425   4.889   6.477 -0.1237 -0.6711  0.1074
  175SAPI   HO319834   3.418   4.968   6.532  0.2821  1.7944 -3.2182
  175SAPI   C1419835   3.496   4.982   6.266 -0.9284 -1.1091  0.1364
  175SAPI    H419836   3.407   4.929   6.224 -2.1926  1.4746 -0.5214
  175SAPI    O419837   3.444   5.115   6.304 -0.2414  0.3386 -0.4595
  175SAPI   HO419838   3.513   5.154   6.358  0.5161  2.1183 -2.6100
  175SAPI   C1519839   3.609   4.995   6.166  0.5864 -0.3285 -0.5426
  175SAPI    H519840   3.691   5.055   6.213 -0.1669  1.1886 -1.1303
  175SAPI    O519841   3.578   5.065   6.052  0.1968 -0.3816  0.6404
  175SAPI   HO519842   3.533   5.003   5.994  1.5515  0.1076 -0.9977
  175SAPI   C1619843   3.669   4.862   6.130  0.6876 -0.2550 -0.4143
  175SAPI    H619844   3.589   4.805   6.079 -0.5183  1.0069  0.0268
  175SAPI    O619845   3.783   4.875   6.047 -0.5412  0.1987  0.5498
  175SAPI   HO619846   3.772   4.820   5.969  0.4933 -1.5043  1.5779
  175SAPI   C1119847   3.715   4.784   6.250  0.0846 -0.0153  0.0846
  175SAPI    H119848   3.787   4.852   6.301  1.5435 -0.7289 -0.9794
  175SAPI     P19849   3.894   4.601   6.333  0.1695  0.0050 -0.2252
  175SAPI   O1319850   3.972   4.706   6.407  0.0867  0.3660 -0.0756
  175SAPI   O1419851   3.972   4.496   6.259 -0.1115  0.2989 -0.8796
  175SAPI   O1219852   3.789   4.660   6.225  0.7637  0.0243 -0.0154
  175SAPI   O1119853   3.798   4.531   6.432 -0.9436 -1.1603 -0.1588
  175SAPI    C119854   3.802   4.395   6.448 -0.6251 -0.0803 -0.0738
  175SAPI    HA19855   3.768   4.348   6.353  1.0324 -0.1280 -0.6636
  175SAPI    HB19856   3.901   4.351   6.472 -1.1491 -0.3428  1.7064
  175SAPI    C219857   3.719   4.356   6.572  0.4354 -1.6646  0.3347
  175SAPI    HS19858   3.617   4.354   6.528  0.4032  2.8224  0.0289
  175SAPI   O2119859   3.723   4.449   6.680  0.2854 -0.2608  0.4783
  175SAPI   C2119860   3.623   4.537   6.673  0.0716  0.3463 -0.5399
  175SAPI   O2219861   3.520   4.523   6.611  0.1551  0.3136  0.4181
  175SAPI   C2219862   3.659   4.663   6.756  0.8655 -0.7249  0.5728
  175SAPI   H2R19863   3.713   4.636   6.849 -0.7300  0.7074  1.9500
  175SAPI   H2S19864   3.722   4.721   6.684  0.9060 -2.7069 -1.0328
  175SAPI    C319865   3.752   4.223   6.639  0.0525 -0.0534  0.0240
  175SAPI    HX19866   3.859   4.230   6.668  0.1278  0.4200 -0.3683
  175SAPI    HY19867   3.735   4.150   6.557  0.9222  0.3328 -0.5018
  175SAPI   O3119868   3.669   4.202   6.760 -0.0521  0.4957 -0.6037
  175SAPI   C3119869   3.552   4.148   6.754  0.0612  0.1742 -0.3133
  175SAPI   O3219870   3.489   4.106   6.659  0.1817  0.5057 -0.1269
  175SAPI   C3219871   3.490   4.147   6.898  0.8001  0.3738  0.4097
  175SAPI   H2X19872   3.459   4.046   6.931  1.6752  0.0139  0.1563
  175SAPI   H2Y19873   3.398   4.207   6.880 -0.0228 -1.0541 -0.2378
  175SAPI   C2319874   3.543   4.745   6.811 -0.0499  0.0479 -0.0602
  175SAPI   H3R19875   3.482   4.775   6.723 -0.3308 -0.7225 -0.1292
  175SAPI   H3S19876   3.582   4.833   6.866 -0.2206  0.5201 -0.6873
  175SAPI   C2419877   3.456   4.669   6.911  0.3725 -0.1123 -0.4740
  175SAPI   H4R19878   3.386   4.604   6.854  1.2617 -1.2319 -0.3021
  175SAPI   H4S19879   3.388   4.739   6.965  1.1872  0.2165  0.1373
  175SAPI   C2519880   3.534   4.593   7.016 -0.0963 -0.7580  1.1050
  175SAPI   H5R19881   3.582   4.503   6.975  0.8707  0.1414  0.2538
  175SAPI   C2619882   3.552   4.621   7.148  0.1191  0.2017  0.4059
  175SAPI   H6R19883   3.594   4.534   7.200  0.3446 -0.2115 -0.4474
  175SAPI   C2719884   3.494   4.742   7.225  0.4842  0.2083 -0.1913
  175SAPI   H7R19885   3.505   4.829   7.156  0.6877 -0.2420 -0.7364
  175SAPI   H7S19886   3.551   4.764   7.318  0.4876  0.3423 -0.2242
  175SAPI   C2819887   3.348   4.721   7.255  0.2823 -0.3754  0.0337
  175SAPI   H8R19888   3.282   4.750   7.173  0.6611  1.8176  0.4858
  175SAPI   C2919889   3.282   4.709   7.376  0.0729  0.7400  0.1961
  175SAPI   H9R19890   3.175   4.686   7.363  0.3212  0.2790 -1.0001
  175SAPI  C21019891   3.337   4.704   7.516 -0.0352 -0.3646  0.2780
  175SAPI  H10R19892   3.447   4.707   7.507  0.1434  2.0997  2.8230
  175SAPI  H10S19893   3.316   4.606   7.565 -1.2477 -0.9519 -1.3696
  175SAPI  C21119894   3.294   4.820   7.604  0.0191 -0.0312  0.7554
  175SAPI  H11R19895   3.259   4.910   7.550 -1.9877 -1.3402 -0.2022
  175SAPI  C21219896   3.295   4.828   7.734  0.5406  0.3209 -0.0204
  175SAPI  H12R19897   3.291   4.927   7.781  0.8787 -0.2999  1.3406
  175SAPI  C21319898   3.330   4.723   7.840  0.4579 -0.8267  0.0625
  175SAPI  H13R19899   3.308   4.623   7.798 -1.1302 -0.1767 -0.6914
  175SAPI  H13S19900   3.256   4.734   7.922 -1.4884  1.0347 -1.8877
  175SAPI  C21419901   3.469   4.721   7.899  0.1699 -0.3804 -0.1933
  175SAPI  H14R19902   3.539   4.647   7.857 -0.7961 -1.5207  0.1585
  175SAPI  C21519903   3.501   4.778   8.015  0.2011 -0.1958 -0.2474
  175SAPI  H15R19904   3.599   4.741   8.048  0.1067 -1.8504 -1.7243
  175SAPI  C21619905   3.422   4.872   8.103  0.1029 -0.0985 -0.5140
  175SAPI  H16R19906   3.314   4.859   8.083 -0.3336  2.0386  0.2968
  175SAPI  H16S19907   3.450   4.975   8.072  0.5630 -0.3476 -0.9364
  175SAPI  C21719908   3.466   4.853   8.247 -0.2973  0.9786  0.0308
  175SAPI  H17R19909   3.455   4.749   8.285  4.4290  0.7436  1.1264
  175SAPI  H17S19910   3.398   4.918   8.306 -1.6308 -0.9575  0.6715
  175SAPI  C21819911   3.617   4.883   8.270  0.3269 -0.2519 -1.0824
  175SAPI  H18R19912   3.638   4.987   8.238 -0.5704  0.7345  1.4103
  175SAPI  H18S19913   3.676   4.804   8.219  1.5039 -0.8352  1.0968
  175SAPI  C21919914   3.644   4.866   8.423 -0.5113 -0.3266  0.7667
  175SAPI  H19R19915   3.560   4.917   8.476 -0.6587  0.2840 -0.0501
  175SAPI  H19S19916   3.742   4.912   8.444 -0.6493 -0.0914  0.8934
  175SAPI  C22019917   3.647   4.719   8.479 -0.2805  0.6051 -0.4594
  175SAPI  H20R19918   3.653   4.725   8.590  3.7223  3.4547 -0.7068
  175SAPI  H20S19919   3.723   4.655   8.430 -0.7136  0.4734 -0.9676
  175SAPI  H20T19920   3.554   4.665   8.452 -0.6712  0.9929  0.1012
  175SAPI   C3319921   3.572   4.194   7.020  0.8938  0.2831  0.3419
  175SAPI   H3X19922   3.614   4.291   6.987 -0.8725  1.0660  0.3342
  175SAPI   H3Y19923   3.658   4.132   7.056  0.7449  0.0146  0.2421
  175SAPI   C3419924   3.486   4.221   7.143 -0.4012 -0.0167  0.2418
  175SAPI   H4X19925   3.414   4.139   7.165  1.4171 -1.4877  0.9114
  175SAPI   H4Y19926   3.434   4.318   7.137  0.3483  0.3721 -0.1120
  175SAPI   C3519927   3.588   4.229   7.263  0.5200  0.1671  0.1783
  175SAPI   H5X19928   3.659   4.313   7.246  0.2337  0.2168 -0.8349
  175SAPI   H5Y19929   3.653   4.139   7.265  1.6604  0.9716  0.1533
  175SAPI   C3619930   3.519   4.241   7.399  0.2714 -0.1803  0.8701
  175SAPI   H6X19931   3.471   4.141   7.408  0.0997 -0.4470 -2.2240
  175SAPI   H6Y19932   3.436   4.315   7.402 -0.3017 -0.8195  0.9071
  175SAPI   C3719933   3.603   4.267   7.524 -0.0497  0.8669 -0.1345
  175SAPI   H7X19934   3.664   4.360   7.518  0.5637  0.5461  0.8146
  175SAPI   H7Y19935   3.680   4.187   7.523  0.7513  1.5731  1.6884
  175SAPI   C3819936   3.517   4.271   7.651 -0.9310  0.0012  1.4272
  175SAPI   H8X19937   3.473   4.170   7.669  1.1654 -1.3660 -0.7270
  175SAPI   H8Y19938   3.438   4.348   7.649 -1.9398 -0.9661  2.8486
  175SAPI   C3919939   3.625   4.296   7.762  0.1508 -0.5704  0.0048
  175SAPI   H9X19940   3.653   4.402   7.741 -0.7673 -0.0024  1.6216
  175SAPI   H9Y19941   3.715   4.233   7.747  0.5965 -0.3151  1.5866
  175SAPI  C31019942   3.546   4.295   7.900 -0.0790  0.1470  0.0798
  175SAPI  H10X19943   3.512   4.193   7.928 -0.2401  0.7802  2.3358
  175SAPI  H10Y19944   3.455   4.359   7.889 -0.3012 -0.6527 -3.0935
  175SAPI  C31119945   3.639   4.353   8.009 -0.0533 -0.4064  0.8741
  175SAPI  H11X19946   3.664   4.459   7.987  0.6254 -0.6332  0.5550
  175SAPI  H11Y19947   3.725   4.283   8.016  1.1515  0.8821 -0.8428
  175SAPI  C31219948   3.570   4.346   8.142 -0.2668 -0.2345 -0.7101
  175SAPI  H12X19949   3.534   4.244   8.168 -1.8102  1.1032  2.8086
  175SAPI  H12Y19950   3.479   4.409   8.129  0.0081  0.1807 -0.6314
  175SAPI  C31319951   3.650   4.397   8.262 -0.1163 -0.3584 -0.4599
  175SAPI  H13X19952   3.657   4.508   8.250 -0.8007 -0.1179  1.1130
  175SAPI  H13Y19953   3.752   4.354   8.257 -0.9884 -2.6913  1.1332
  175SAPI  C31419954   3.586   4.379   8.406 -0.0585 -0.4174 -0.1351
  175SAPI  H14X19955   3.644   4.420   8.492 -0.1783  1.2814 -0.8430
  175SAPI  H14Y19956   3.572   4.270   8.423  2.1007 -0.6325  0.4299
  175SAPI  C31519957   3.431   4.415   8.401  0.4587  0.2560 -0.5530
  175SAPI  H15X19958   3.381   4.337   8.339 -0.1606 -1.6460  2.2323
  175SAPI  H15Y19959   3.410   4.512   8.350  0.5293  1.1115  1.0255
  175SAPI  C31619960   3.363   4.426   8.545  0.3624  0.1235  0.0220
  175SAPI  H16X19961   3.267   4.479   8.529  2.2863  3.3216 -1.4865
  175SAPI  H16Y19962   3.432   4.497   8.597  0.4078  1.8240 -2.3043
  175SAPI  C31719963   3.339   4.288   8.617 -0.3828  0.3954 -0.6404
  175SAPI  H17X19964   3.334   4.306   8.727 -1.3732 -1.6190 -0.3223
  175SAPI  H17Y19965   3.422   4.215   8.610  0.2189  1.0089 -0.0121
  175SAPI  C31819966   3.205   4.234   8.592  0.5002  0.0401  0.2565
  175SAPI  H18X19967   3.123   4.292   8.640 -0.1232  1.2302 -2.1353
  175SAPI  H18Y19968   3.211   4.130   8.630  0.8658 -0.4054 -0.9761
  175SAPI  H18Z19969   3.187   4.228   8.482  0.5924  0.5498  0.2100
  176SAPI   C1219970   3.101   3.146   6.395  0.0044  0.7626  0.2948
  176SAPI    H219971   3.051   3.059   6.444 -1.8603  1.6481  0.0299
  176SAPI    O219972   3.077   3.124   6.257 -0.5452 -0.3333 -0.6973
  176SAPI   HO219973   3.085   3.029   6.246  0.2560 -0.8942  3.5583
  176SAPI   C1319974   3.040   3.276   6.438 -0.2102 -0.5684  0.1557
  176SAPI    H319975   3.055   3.277   6.548  0.3933 -1.0942  0.0768
  176SAPI    O319976   2.899   3.274   6.414  0.2331 -0.4604 -0.2408
  176SAPI   HO319977   2.882   3.333   6.341 -0.2004 -1.1620 -0.7064
  176SAPI   C1419978   3.115   3.392   6.369 -0.2492 -0.0564 -0.1735
  176SAPI    H419979   3.098   3.384   6.260 -1.1466 -0.9839  0.0258
  176SAPI    O419980   3.055   3.519   6.388  0.6870  0.0176 -0.3473
  176SAPI   HO419981   2.964   3.518   6.361  0.3584  0.1525  0.7195
  176SAPI   C1519982   3.267   3.392   6.405  0.2456  0.1796  0.1405
  176SAPI    H519983   3.282   3.412   6.513  2.0428  1.1154 -0.2502
  176SAPI    O519984   3.326   3.502   6.337 -0.0096  0.8442  0.1983
  176SAPI   HO519985   3.419   3.515   6.357  0.2665  0.0983 -0.5953
  176SAPI   C1619986   3.335   3.257   6.370  0.0608  0.0346 -0.1631
  176SAPI    H619987   3.342   3.257   6.259 -0.1183 -0.7841 -0.1749
  176SAPI    O619988   3.470   3.249   6.416 -0.8773 -0.6750 -0.2946
  176SAPI   HO619989   3.498   3.157   6.415 -1.0756 -0.9263  4.6262
  176SAPI   C1119990   3.256   3.141   6.430 -0.3640 -0.2093  0.2000
  176SAPI    H119991   3.275   3.140   6.540  2.3429  0.9368 -0.2410
  176SAPI     P19992   3.380   2.916   6.470 -0.0297 -0.3179  0.1047
  176SAPI   O1319993   3.513   2.977   6.479  0.1961 -0.1806  0.8033
  176SAPI   O1419994   3.372   2.782   6.400 -0.3462  0.3357 -0.1961
  176SAPI   O1219995   3.293   3.016   6.380 -0.4922  0.4725  0.2374
  176SAPI   O1119996   3.290   2.902   6.601  0.1177  0.2099  0.0291
  176SAPI    C119997   3.163   2.835   6.584  0.0975  0.2353 -0.8856
  176SAPI    HA19998   3.077   2.903   6.568 -0.6892 -1.1958 -2.8395
  176SAPI    HB19999   3.150   2.767   6.497  0.6079 -0.5266 -0.3785
  176SAPI    C220000   3.128   2.748   6.710  0.2737 -1.0039 -0.2633
  176SAPI    HS20001   3.036   2.694   6.679  0.1343 -1.0140  0.1692
  176SAPI   O2120002   3.110   2.822   6.824 -0.1693  0.0025  0.0315
  176SAPI   C2120003   3.030   2.775   6.917 -0.8446 -0.0297 -0.1831
  176SAPI   O2220004   2.971   2.668   6.907 -0.8658 -0.4644  0.3955
  176SAPI   C2220005   3.009   2.865   7.046  0.8798 -0.4962 -0.3404
  176SAPI   H2R20006   3.079   2.950   7.031 -0.6575  1.1839  1.6285
  176SAPI   H2S20007   2.903   2.900   7.050  1.4712  1.2332  1.0307
  176SAPI    C320008   3.240   2.645   6.731 -0.5626  0.1286  0.4712
  176SAPI    HX20009   3.328   2.705   6.763 -2.3955  2.3089  1.5080
  176SAPI    HY20010   3.270   2.607   6.631 -1.9733  1.6436 -0.5639
  176SAPI   O3120011   3.203   2.535   6.810 -0.8692  0.1221  0.2891
  176SAPI   C3120012   3.249   2.526   6.933  0.3277 -0.1294  0.1436
  176SAPI   O3220013   3.341   2.590   6.986  0.1967  0.4675 -0.1915
  176SAPI   C3220014   3.159   2.424   7.011  0.0223 -0.1543  0.0489
  176SAPI   H2X20015   3.110   2.352   6.942  0.5256 -1.4829  1.0564
  176SAPI   H2Y20016   3.081   2.489   7.055  1.5919 -0.1022  2.8914
  176SAPI   C2320017   3.049   2.787   7.177  0.1973  0.6315  0.4761
  176SAPI   H3R20018   3.152   2.750   7.158 -0.2563 -0.1429 -0.5528
  176SAPI   H3S20019   2.991   2.696   7.202  3.8639 -1.5322  1.5619
  176SAPI   C2420020   3.038   2.876   7.303 -0.4026 -0.2340 -1.0493
  176SAPI   H4R20021   3.067   2.981   7.284 -0.4543  0.0093  0.1621
  176SAPI   H4S20022   3.112   2.854   7.383 -0.1804  0.0788 -1.1695
  176SAPI   C2520023   2.905   2.864   7.366  0.1030 -0.1664 -0.0399
  176SAPI   H5R20024   2.826   2.936   7.339  0.0317 -0.0556  0.4459
  176SAPI   C2620025   2.865   2.766   7.451  0.2677 -0.0558 -0.4107
  176SAPI   H6R20026   2.768   2.772   7.503  0.0378  1.0909 -0.9583
  176SAPI   C2720027   2.947   2.644   7.489  0.3050  0.6054  0.2988
  176SAPI   H7R20028   3.008   2.669   7.579  0.5767  4.1278 -0.7973
  176SAPI   H7S20029   3.023   2.606   7.418 -0.7953 -0.6709 -0.2124
  176SAPI   C2820030   2.858   2.525   7.513  0.4353 -0.2932 -0.0238
  176SAPI   H8R20031   2.826   2.473   7.422 -0.0623 -1.4460  0.8079
  176SAPI   C2920032   2.844   2.474   7.637  0.1385 -0.1955  0.5589
  176SAPI   H9R20033   2.784   2.382   7.639  0.1808 -0.2388 -0.0116
  176SAPI  C21020034   2.903   2.522   7.766 -0.0458  0.3592  0.5697
  176SAPI  H10R20035   2.832   2.516   7.852 -1.5082 -4.0485 -0.8317
  176SAPI  H10S20036   2.925   2.631   7.761  2.2586 -0.1159 -0.3557
  176SAPI  C21120037   3.039   2.459   7.795 -0.4633 -0.1034 -0.2980
  176SAPI  H11R20038   3.088   2.411   7.710 -1.0531 -2.0335  0.4325
  176SAPI  C21220039   3.109   2.469   7.907  0.2150  0.1796  0.2692
  176SAPI  H12R20040   3.209   2.425   7.923  0.5501  0.3319 -1.2773
  176SAPI  C21320041   3.076   2.548   8.031 -0.6407 -0.0670 -0.1774
  176SAPI  H13R20042   2.968   2.572   8.024 -0.2531  1.2715 -1.7808
  176SAPI  H13S20043   3.126   2.647   8.032 -2.0579  0.7031 -1.9693
  176SAPI  C21420044   3.097   2.479   8.158  0.5667  0.0243 -0.1716
  176SAPI  H14R20045   3.108   2.370   8.149 -0.7765 -0.1338 -0.0496
  176SAPI  C21520046   3.101   2.533   8.281  0.6125  0.0660  0.3702
  176SAPI  H15R20047   3.113   2.467   8.368  0.0266 -0.0855  0.3334
  176SAPI  C21620048   3.064   2.682   8.301  0.1013  0.8094 -0.4628
  176SAPI  H16R20049   3.012   2.700   8.398 -0.0691 -0.1732 -0.3712
  176SAPI  H16S20050   2.998   2.716   8.219  0.0345  0.0885 -0.7040
  176SAPI  C21720051   3.191   2.768   8.310  0.4178  0.2197  0.2319
  176SAPI  H17R20052   3.159   2.873   8.294 -2.1474 -0.6057 -0.3985
  176SAPI  H17S20053   3.259   2.752   8.224 -0.3663  3.1888 -1.0136
  176SAPI  C21820054   3.272   2.762   8.439  0.1100 -0.7291 -0.3367
  176SAPI  H18R20055   3.312   2.666   8.477 -0.8311 -0.2901  1.8227
  176SAPI  H18S20056   3.210   2.797   8.525 -0.2065  0.3493 -0.9963
  176SAPI  C21920057   3.386   2.860   8.437  0.5990  0.2888 -0.2759
  176SAPI  H19R20058   3.353   2.961   8.406  0.8631  0.7537  0.9169
  176SAPI  H19S20059   3.466   2.829   8.366  0.2457  1.4854 -1.2125
  176SAPI  C22020060   3.457   2.879   8.574  0.4474  0.0270  0.0030
  176SAPI  H20R20061   3.524   2.968   8.565 -0.2770  0.8739  2.4911
  176SAPI  H20S20062   3.522   2.794   8.604 -1.1974 -1.2689 -0.0435
  176SAPI  H20T20063   3.389   2.884   8.662  1.8769 -0.8449  1.1711
  176SAPI   C3320064   3.237   2.349   7.122 -0.9458 -0.5423  0.1281
  176SAPI   H3X20065   3.293   2.419   7.188  0.1017 -1.5733  0.3434
  176SAPI   H3Y20066   3.309   2.275   7.081 -1.5071 -1.1946  0.2999
  176SAPI   C3420067   3.147   2.274   7.220  0.0969 -0.1982 -0.5007
  176SAPI   H4X20068   3.080   2.205   7.165 -0.6990 -2.5117  3.2690
  176SAPI   H4Y20069   3.076   2.349   7.262  1.0800 -0.6217  2.0050
  176SAPI   C3520070   3.215   2.190   7.330 -0.4693  0.5808  0.0490
  176SAPI   H5X20071   3.285   2.262   7.378  0.7565 -0.5162 -0.0753
  176SAPI   H5Y20072   3.286   2.119   7.281  0.1267  0.9360  0.3849
  176SAPI   C3620073   3.118   2.128   7.438 -0.2964  0.1757  0.0413
  176SAPI   H6X20074   3.052   2.062   7.378  1.4706 -1.5878 -0.0047
  176SAPI   H6Y20075   3.054   2.214   7.468 -1.0511  0.1670 -1.4452
  176SAPI   C3720076   3.190   2.060   7.554  0.2468 -0.5881 -0.3053
  176SAPI   H7X20077   3.264   2.117   7.614  1.6972 -3.0392  0.2904
  176SAPI   H7Y20078   3.250   1.987   7.496 -1.0100 -0.9848 -1.1416
  176SAPI   C3820079   3.087   2.002   7.657  0.1220  0.2062 -0.3272
  176SAPI   H8X20080   3.150   1.948   7.732  1.3263  1.7150 -0.2216
  176SAPI   H8Y20081   3.027   1.920   7.613  0.7070 -0.7862  0.6931
  176SAPI   C3920082   2.999   2.110   7.719 -0.1660 -0.2376 -0.0952
  176SAPI   H9X20083   2.923   2.152   7.650 -0.1555 -1.2242 -0.7141
  176SAPI   H9Y20084   3.067   2.194   7.744 -0.2401  0.1302 -1.1457
  176SAPI  C31020085   2.922   2.065   7.840 -0.0549  0.5011  0.4397
  176SAPI  H10X20086   2.982   1.990   7.896 -1.4692 -1.6730 -0.8475
  176SAPI  H10Y20087   2.843   1.998   7.800  0.5388  0.1519 -0.1637
  176SAPI  C31120088   2.861   2.179   7.913 -0.6552 -0.3568 -0.8042
  176SAPI  H11X20089   2.819   2.241   7.831  1.1596 -0.0603 -1.5345
  176SAPI  H11Y20090   2.936   2.242   7.965 -0.2563 -2.4251  1.1737
  176SAPI  C31220091   2.743   2.152   8.002 -0.7086 -0.0245  0.1894
  176SAPI  H12X20092   2.658   2.088   7.970 -1.3363 -0.9517  3.5784
  176SAPI  H12Y20093   2.707   2.254   8.026  0.3094  0.3418  0.1812
  176SAPI  C31320094   2.790   2.087   8.128 -0.0755 -0.6969 -0.9653
  176SAPI  H13X20095   2.871   2.150   8.171 -1.4085  0.1796  0.2630
  176SAPI  H13Y20096   2.826   1.984   8.107  1.1927 -0.0481 -2.0802
  176SAPI  C31420097   2.690   2.087   8.247 -0.1003  0.3822 -0.0075
  176SAPI  H14X20098   2.720   2.017   8.329  1.3592 -1.4262 -2.0362
  176SAPI  H14Y20099   2.600   2.039   8.204  0.0637  0.5048 -0.4856
  176SAPI  C31520100   2.635   2.219   8.300 -0.0935 -0.2495 -0.3082
  176SAPI  H15X20101   2.582   2.258   8.211  0.7769 -0.7697 -1.0617
  176SAPI  H15Y20102   2.723   2.286   8.315  0.3830 -1.6351  3.8150
  176SAPI  C31620103   2.549   2.196   8.422 -0.2017 -0.1945 -0.4734
  176SAPI  H16X20104   2.610   2.147   8.501  0.1529  0.6008 -0.2467
  176SAPI  H16Y20105   2.463   2.129   8.402 -1.3789  1.4091 -0.8709
  176SAPI  C31720106   2.494   2.315   8.494  0.6119  0.1343 -0.7069
  176SAPI  H17X20107   2.413   2.369   8.440  0.1953 -0.2724 -0.4800
  176SAPI  H17Y20108   2.579   2.384   8.472 -2.1107  3.4495 -1.2203
  176SAPI  C31820109   2.452   2.295   8.643 -0.2317 -0.2790  0.5986
  176SAPI  H18X20110   2.530   2.250   8.708  0.1476 -1.6133 -0.7614
  176SAPI  H18Y20111   2.373   2.218   8.648  0.0709 -0.8506 -2.3406
  176SAPI  H18Z20112   2.421   2.396   8.677 -0.5714  0.3403 -1.4688
  177SLPC     N20113   3.654   6.749  11.114  0.4517  0.1402  0.0182
  177SLPC   C1320114   3.519   6.692  11.144 -0.6056  0.6095  0.3514
  177SLPC  H13A20115   3.493   6.726  11.244 -3.4789 -1.6904  0.4566
  177SLPC  H13B20116   3.442   6.724  11.075  1.1313 -0.8858 -2.3318
  177SLPC  H13C20117   3.505   6.585  11.150  0.1974  0.5396  1.0737
  177SLPC   C1420118   3.746   6.713  11.228 -0.1024  0.4277 -0.2933
  177SLPC  H14A20119   3.706   6.740  11.325  1.0078 -2.5205  1.0302
  177SLPC  H14B20120   3.765   6.609  11.246  0.3586  0.4017 -0.8932
  177SLPC  H14C20121   3.843   6.759  11.210  1.0073 -1.5224  0.5355
  177SLPC   C1520122   3.657   6.897  11.092  0.4774 -0.0498 -0.4052
  177SLPC  H15A20123   3.595   6.946  11.165  0.1890 -0.5618 -0.2996
  177SLPC  H15B20124   3.758   6.933  11.104  0.7319 -1.1189  0.7396
  177SLPC  H15C20125   3.619   6.923  10.994 -1.8496  0.3199  0.5770
  177SLPC   C1220126   3.712   6.693  10.987 -0.8650 -0.7677 -0.0008
  177SLPC  H12A20127   3.712   6.585  10.998 -0.0449 -0.8360 -0.5449
  177SLPC  H12B20128   3.807   6.742  10.967 -2.2184  0.7321 -3.1547
  177SLPC   C1120129   3.646   6.704  10.851  0.0989 -0.8218 -0.8729
  177SLPC  H11A20130   3.720   6.689  10.769  1.0013 -1.6152  0.0891
  177SLPC  H11B20131   3.605   6.807  10.844 -0.3225 -0.5423  4.0578
  177SLPC     P20132   3.534   6.471  10.799 -0.1436 -0.0953 -0.1884
  177SLPC   O1320133   3.613   6.407  10.904  0.2464  0.6622 -0.1370
  177SLPC   O1420134   3.394   6.424  10.783 -0.3128 -0.0866 -0.3445
  177SLPC   O1220135   3.534   6.629  10.838  1.1763 -0.3723 -0.2437
  177SLPC   O1120136   3.612   6.470  10.658  0.3150 -0.0641 -0.4591
  177SLPC    C120137   3.571   6.555  10.549  1.2490 -0.0685  0.6818
  177SLPC    HA20138   3.460   6.567  10.547  1.2076 -0.2756  1.7222
  177SLPC    HB20139   3.619   6.655  10.562  0.3147  0.4960 -0.1269
  177SLPC    C220140   3.609   6.508  10.408  0.0357 -0.5733  0.4260
  177SLPC    HS20141   3.718   6.485  10.408  0.9014  2.9269 -2.5058
  177SLPC   O2120142   3.577   6.610  10.310 -0.1504  0.1792  0.0221
  177SLPC   C2120143   3.676   6.699  10.311  0.2818  0.4940  0.5189
  177SLPC   O2220144   3.762   6.712  10.394 -0.0398  0.2843 -0.0842
  177SLPC   C2220145   3.659   6.788  10.189 -0.8773 -0.1184  0.0221
  177SLPC   H2R20146   3.554   6.783  10.152 -0.3665 -1.2029 -1.3250
  177SLPC   H2S20147   3.678   6.896  10.205  1.3246 -0.4266 -0.3310
  177SLPC    C320148   3.540   6.379  10.374 -0.0682 -0.4161  0.1398
  177SLPC    HX20149   3.433   6.407  10.382  0.4093  1.0044  1.8145
  177SLPC    HY20150   3.573   6.303  10.448 -1.0898 -0.7092  0.3016
  177SLPC   O3120151   3.576   6.339  10.243 -0.5989  0.1336  0.0723
  177SLPC   C3120152   3.478   6.359  10.145 -0.4801  0.0808 -0.0019
  177SLPC   O3220153   3.367   6.399  10.170 -0.4402  0.0961 -0.2820
  177SLPC   C3220154   3.531   6.309  10.006 -0.0068  0.2540  0.5993
  177SLPC   H2X20155   3.559   6.202  10.014 -2.1456 -0.3915 -0.2191
  177SLPC   H2Y20156   3.620   6.371   9.984  1.3789 -1.7591  0.3411
  177SLPC   C2320157   3.755   6.744  10.076  0.2449  0.3384 -0.7528
  177SLPC   H3R20158   3.755   6.634  10.062  0.1968  0.1649  0.5783
  177SLPC   H3S20159   3.863   6.767  10.092 -0.0420  0.5801  0.8896
  177SLPC   C2420160   3.713   6.797   9.937  0.2189  0.6408 -0.1362
  177SLPC   H4R20161   3.798   6.842   9.882 -0.3872 -0.5556 -2.1133
  177SLPC   H4S20162   3.647   6.883   9.960 -0.2587 -0.2517  1.8713
  177SLPC   C2520163   3.642   6.696   9.845 -0.0715 -0.2046 -0.1296
  177SLPC   H5R20164   3.558   6.649   9.900  1.2506  0.6308  2.7376
  177SLPC   H5S20165   3.717   6.617   9.823  1.7434  1.9365 -2.0000
  177SLPC   C2620166   3.597   6.763   9.714  0.3906 -0.4589 -0.1247
  177SLPC   H6R20167   3.685   6.808   9.663  0.6903  0.9789  1.6183
  177SLPC   H6S20168   3.517   6.838   9.730  0.6990 -0.4871  1.7529
  177SLPC   C2720169   3.536   6.671   9.609 -0.0573 -1.0421 -0.7670
  177SLPC   H7R20170   3.432   6.645   9.638 -0.2485 -0.0764 -0.5444
  177SLPC   H7S20171   3.590   6.575   9.597 -1.1776 -1.6134 -1.3092
  177SLPC   C2820172   3.532   6.734   9.464  0.2191  0.3118  0.1450
  177SLPC   H8R20173   3.465   6.822   9.458  2.0756  1.6318 -1.8390
  177SLPC   H8S20174   3.484   6.659   9.398  1.1979  0.1755 -0.4127
  177SLPC   C2920175   3.666   6.757   9.397 -0.1283  0.1210 -0.0730
  177SLPC   H9R20176   3.746   6.693   9.437 -2.4556 -0.2159  4.3715
  177SLPC  C21020177   3.682   6.830   9.286 -0.6959  0.3972 -0.7045
  177SLPC  H10R20178   3.786   6.840   9.250  0.2554 -0.7655  1.6252
  177SLPC  C21120179   3.576   6.910   9.204 -0.5567 -0.0326 -0.5328
  177SLPC  H11R20180   3.475   6.864   9.205 -1.4608  1.9072  1.9274
  177SLPC  H11S20181   3.560   7.005   9.259  2.2339 -0.2009  0.6714
  177SLPC  C21220182   3.613   6.947   9.058  0.2253 -0.1219 -0.4807
  177SLPC  H12R20183   3.714   6.927   9.021 -0.4170 -3.6025 -0.5156
  177SLPC  C21320184   3.530   7.012   8.969 -0.7335 -0.1024 -0.2397
  177SLPC  H13R20185   3.579   7.036   8.873  0.5978  0.5806  0.6086
  177SLPC  C21420186   3.393   7.071   8.988 -0.3684  0.4876  0.7782
  177SLPC  H14R20187   3.362   7.071   9.095 -4.8541 -0.7006 -0.4262
  177SLPC  H14S20188   3.326   7.003   8.931  0.7594  0.3247 -0.3582
  177SLPC  C21520189   3.368   7.208   8.924 -0.0831 -0.0060 -0.0341
  177SLPC  H15R20190   3.261   7.240   8.918 -0.3915 -0.9261  0.4627
  177SLPC  H15S20191   3.388   7.206   8.815 -1.4994  2.3258 -0.3855
  177SLPC  C21620192   3.449   7.322   8.992  0.0395 -0.7239  0.1665
  177SLPC  H16R20193   3.558   7.310   8.979  0.1417 -1.3723  1.4851
  177SLPC  H16S20194   3.424   7.320   9.101  1.4784  1.2348  0.5528
  177SLPC  C21720195   3.406   7.453   8.933  0.3866 -0.4328 -0.2651
  177SLPC  H17R20196   3.306   7.487   8.967  0.9430  0.7175  0.2625
  177SLPC  H17S20197   3.402   7.422   8.827  1.1458 -0.1667 -0.3783
  177SLPC  C21820198   3.503   7.563   8.952 -0.3341 -0.0153 -0.3236
  177SLPC  H18R20199   3.476   7.654   8.894 -2.2872 -0.7919 -0.6811
  177SLPC  H18S20200   3.601   7.527   8.916 -2.1188 -3.0665 -2.4081
  177SLPC  H18T20201   3.515   7.588   9.059  0.4126 -0.1876 -0.3702
  177SLPC   C3320202   3.434   6.318   9.884 -0.3276  0.2640 -0.0062
  177SLPC   H3X20203   3.374   6.409   9.908  2.1068  1.7962  0.4820
  177SLPC   H3Y20204   3.365   6.232   9.899  1.1367 -1.2607 -1.8411
  177SLPC   C3420205   3.499   6.319   9.751 -0.0101 -0.7132  0.1531
  177SLPC   H4X20206   3.563   6.229   9.743  1.0829  0.1598 -1.1596
  177SLPC   H4Y20207   3.575   6.399   9.746 -0.3193 -0.1963  2.8600
  177SLPC   C3520208   3.401   6.319   9.630 -0.5132  0.2843  0.0882
  177SLPC   H5X20209   3.358   6.422   9.630  0.2392  0.6237 -1.6081
  177SLPC   H5Y20210   3.323   6.244   9.655 -1.4835  0.0860 -3.3039
  177SLPC   C3620211   3.466   6.309   9.493 -0.4566  0.1077  0.5518
  177SLPC   H6X20212   3.516   6.211   9.503 -1.9500 -0.5301  1.9592
  177SLPC   H6Y20213   3.537   6.394   9.480 -0.6644  0.5573  2.3236
  177SLPC   C3720214   3.375   6.304   9.377 -0.4612  0.5180 -0.1338
  177SLPC   H7X20215   3.328   6.404   9.375 -1.6467  0.0165  1.5041
  177SLPC   H7Y20216   3.297   6.232   9.411 -0.3831  1.4335  2.0388
  177SLPC   C3820217   3.447   6.263   9.244  0.0670 -0.5882  0.3827
  177SLPC   H8X20218   3.496   6.164   9.258 -0.6424 -0.8745  0.8504
  177SLPC   H8Y20219   3.519   6.345   9.224  0.3726 -0.4100  2.1358
  177SLPC   C3920220   3.342   6.264   9.126 -0.1783 -0.2796 -0.1672
  177SLPC   H9X20221   3.266   6.188   9.151 -1.3417  1.0654  0.4638
  177SLPC   H9Y20222   3.378   6.259   9.021  3.3551 -0.7530  0.9898
  177SLPC  C31020223   3.261   6.399   9.121 -0.0332 -0.2081 -0.2953
  177SLPC  H10X20224   3.182   6.409   9.198 -0.3447  0.4215 -0.6877
  177SLPC  H10Y20225   3.201   6.399   9.027 -0.0967  0.3269 -0.2598
  177SLPC  C31120226   3.348   6.528   9.130 -0.0788  0.1702 -0.1676
  177SLPC  H11X20227   3.404   6.534   9.226 -0.4855 -2.2784  0.2590
  177SLPC  H11Y20228   3.288   6.621   9.121 -0.1121  0.3251  1.4924
  177SLPC  C31220229   3.454   6.545   9.029 -0.4904  0.1837  0.6812
  177SLPC  H12X20230   3.510   6.449   9.021  0.4415  0.7979 -0.1833
  177SLPC  H12Y20231   3.532   6.619   9.055  0.9499 -1.5033  1.3042
  177SLPC  C31320232   3.410   6.573   8.892 -0.0773 -0.0618  0.1312
  177SLPC  H13X20233   3.342   6.661   8.894 -1.4411 -1.1372  1.0939
  177SLPC  H13Y20234   3.342   6.491   8.861 -0.3372  0.5827 -1.0370
  177SLPC  C31420235   3.526   6.587   8.789  0.9030  0.0421 -0.2308
  177SLPC  H14X20236   3.579   6.490   8.802 -0.1303 -0.8221 -2.3198
  177SLPC  H14Y20237   3.594   6.663   8.832 -0.0466  0.3088  0.8348
  177SLPC  C31520238   3.489   6.614   8.642 -0.5806 -0.6442 -0.4912
  177SLPC  H15X20239   3.423   6.703   8.636 -1.2136 -1.0858 -0.1864
  177SLPC  H15Y20240   3.425   6.531   8.606 -1.4774 -0.6630  1.0655
  177SLPC  C31620241   3.617   6.631   8.557  0.5083  0.2306  0.3753
  177SLPC  H16X20242   3.587   6.640   8.451  0.4756 -0.6913  0.3080
  177SLPC  H16Y20243   3.692   6.550   8.569  1.2489  0.7539 -0.6456
  177SLPC  C31720244   3.696   6.754   8.578 -0.1596 -0.6141  0.3086
  177SLPC  H17X20245   3.781   6.752   8.505  0.4858  1.8260  0.9173
  177SLPC  H17Y20246   3.734   6.749   8.682  1.8439  0.1396 -0.3518
  177SLPC  C31820247   3.622   6.884   8.543 -0.0435 -0.8395 -0.1928
  177SLPC  H18X20248   3.702   6.954   8.510 -2.6699  2.1601 -0.4868
  177SLPC  H18Y20249   3.566   6.923   8.631  0.3363 -0.1184 -0.2679
  177SLPC  H18Z20250   3.546   6.861   8.466 -2.4240  0.0613  1.7941
  178SLPC     N20251   5.486   2.337  11.258  0.5340 -0.3983  0.4517
  178SLPC   C1320252   5.385   2.237  11.214 -0.0810 -0.5091 -0.3024
  178SLPC  H13A20253   5.281   2.254  11.242 -0.3109  0.4983 -1.7188
  178SLPC  H13B20254   5.381   2.242  11.107 -0.8947 -0.7293 -0.2907
  178SLPC  H13C20255   5.405   2.137  11.250 -0.9901 -0.0049  1.6852
  178SLPC   C1420256   5.510   2.331  11.404  0.0874  0.8960 -0.5400
  178SLPC  H14A20257   5.568   2.242  11.422 -1.9603 -0.2126  0.8215
  178SLPC  H14B20258   5.571   2.411  11.441  0.9065 -0.4418  1.0630
  178SLPC  H14C20259   5.416   2.327  11.456  0.8996 -0.5923  0.8901
  178SLPC   C1520260   5.436   2.470  11.221 -0.0890 -0.1461  0.0839
  178SLPC  H15A20261   5.421   2.471  11.115 -3.2911 -2.7341  0.4372
  178SLPC  H15B20262   5.340   2.488  11.267  0.9634 -0.3396  2.4442
  178SLPC  H15C20263   5.499   2.554  11.247  0.0540 -0.2022 -0.0835
  178SLPC   C1220264   5.627   2.317  11.186  0.3594  0.5133 -0.3048
  178SLPC  H12A20265   5.673   2.224  11.217  0.0978  0.6914  0.6095
  178SLPC  H12B20266   5.691   2.397  11.220  1.1062  0.6034 -1.8637
  178SLPC   C1120267   5.633   2.304  11.028  0.3524 -0.1392 -0.2533
  178SLPC  H11A20268   5.742   2.305  11.005  0.7968 -0.6157  1.7340
  178SLPC  H11B20269   5.598   2.393  10.971  0.8260 -0.6425 -1.3210
  178SLPC     P20270   5.640   2.050  10.993  0.4472  0.0702  0.1177
  178SLPC   O1320271   5.691   2.027  11.132  0.0304  0.3811 -0.5660
  178SLPC   O1420272   5.539   1.948  10.945 -0.6444 -0.4107  0.1950
  178SLPC   O1220273   5.569   2.191  10.978 -0.1774  0.4481  0.2397
  178SLPC   O1120274   5.759   2.057  10.882  0.4523  0.0300 -0.1862
  178SLPC    C120275   5.743   2.129  10.755 -0.1363 -0.0096 -0.7683
  178SLPC    HA20276   5.641   2.173  10.748  0.3313  1.2222 -0.0147
  178SLPC    HB20277   5.819   2.209  10.749 -0.2102  0.1480  0.3525
  178SLPC    C220278   5.763   2.027  10.640  0.3860 -0.4518 -0.3661
  178SLPC    HS20279   5.812   2.076  10.554 -1.6608 -0.2180 -1.4354
  178SLPC   O2120280   5.637   1.958  10.600  0.0675 -0.2180  0.0662
  178SLPC   C2120281   5.557   2.027  10.521 -0.4995  0.2049 -0.3227
  178SLPC   O2220282   5.585   2.136  10.470  0.0585  0.1152 -0.1517
  178SLPC   C2220283   5.443   1.942  10.473  0.4732 -0.5092 -0.3743
  178SLPC   H2R20284   5.457   1.836  10.503  0.0880 -0.7000 -0.8524
  178SLPC   H2S20285   5.347   1.974  10.518  1.2189 -0.0213  0.8900
  178SLPC    C320286   5.858   1.915  10.688 -0.1847 -0.4784 -0.2222
  178SLPC    HX20287   5.798   1.854  10.759 -0.8904 -0.6961 -0.9988
  178SLPC    HY20288   5.945   1.958  10.743 -1.2048 -0.0005  1.0211
  178SLPC   O3120289   5.922   1.845  10.579  0.4713 -0.0348  0.3193
  178SLPC   C3120290   5.842   1.755  10.525 -0.5997 -0.7169  0.7600
  178SLPC   O3220291   5.749   1.697  10.577  1.0968  0.1202 -0.0125
  178SLPC   C3220292   5.886   1.724  10.383  0.0173 -0.5045 -0.0074
  178SLPC   H2X20293   5.995   1.704  10.388  0.2671  0.1138 -2.1788
  178SLPC   H2Y20294   5.874   1.816  10.321 -0.1947 -0.1694  0.5319
  178SLPC   C2320295   5.423   1.956  10.316  0.0028  0.5705  0.4572
  178SLPC   H3R20296   5.423   2.058  10.272 -1.0097  0.0816 -0.6895
  178SLPC   H3S20297   5.322   1.926  10.282  0.1624 -0.3333  0.7714
  178SLPC   C2420298   5.527   1.882  10.226 -0.7035 -0.1743  0.0478
  178SLPC   H4R20299   5.519   1.773  10.247 -0.7625 -0.4727 -1.4893
  178SLPC   H4S20300   5.628   1.925  10.242 -1.3639  1.2284  0.5574
  178SLPC   C2520301   5.507   1.905  10.072 -0.7474 -0.0928  0.2740
  178SLPC   H5R20302   5.520   2.015  10.061 -0.9681 -0.0107  0.8367
  178SLPC   H5S20303   5.403   1.873  10.046 -0.4333 -0.4942 -0.4968
  178SLPC   C2620304   5.605   1.838   9.985  0.0370  0.0805  0.4988
  178SLPC   H6R20305   5.597   1.728   9.990  0.6656 -0.0699 -1.3223
  178SLPC   H6S20306   5.710   1.858  10.015 -0.1876  0.4646  1.0320
  178SLPC   C2720307   5.607   1.888   9.841 -0.0930  0.3238 -0.0693
  178SLPC   H7R20308   5.659   1.986   9.851  2.3632 -0.8785 -0.6894
  178SLPC   H7S20309   5.504   1.893   9.799  0.3902  0.6049 -1.2283
  178SLPC   C2820310   5.701   1.793   9.761  0.1175 -0.5426 -0.2865
  178SLPC   H8R20311   5.652   1.694   9.756  0.0053 -0.6001  1.7621
  178SLPC   H8S20312   5.792   1.790   9.823 -0.4171 -1.1312  0.4730
  178SLPC   C2920313   5.730   1.850   9.619 -0.1800 -0.0715  0.3398
  178SLPC   H9R20314   5.835   1.881   9.611  0.6627 -1.8271  3.7521
  178SLPC  C21020315   5.647   1.851   9.511 -0.1236 -0.3650  0.0450
  178SLPC  H10R20316   5.674   1.894   9.413 -0.0985 -0.1496  0.1472
  178SLPC  C21120317   5.505   1.798   9.499  0.6848  0.2589 -0.4100
  178SLPC  H11R20318   5.482   1.753   9.598  0.1874  1.0264 -0.1720
  178SLPC  H11S20319   5.492   1.714   9.427  1.6040 -1.4833  1.4197
  178SLPC  C21220320   5.403   1.911   9.491 -0.1536  0.3706  0.6075
  178SLPC  H12R20321   5.440   2.005   9.535  2.2848  0.4122 -1.3978
  178SLPC  C21320322   5.299   1.908   9.404 -0.0105  0.4252  0.3733
  178SLPC  H13R20323   5.225   1.989   9.414  2.2307  2.5378  0.5161
  178SLPC  C21420324   5.266   1.792   9.316 -0.4107  0.3637 -0.0560
  178SLPC  H14R20325   5.155   1.793   9.308 -0.5191 -0.1442  1.2867
  178SLPC  H14S20326   5.293   1.693   9.359 -0.6059  0.5144  0.4081
  178SLPC  C21520327   5.331   1.803   9.173  0.1667 -0.0002 -0.1801
  178SLPC  H15R20328   5.439   1.779   9.184 -0.0635 -0.4009  1.2078
  178SLPC  H15S20329   5.327   1.904   9.126 -1.1269  0.0872  0.1010
  178SLPC  C21620330   5.273   1.711   9.063  0.6956 -0.4614  0.0901
  178SLPC  H16R20331   5.164   1.733   9.062  0.8578  0.3807  0.8375
  178SLPC  H16S20332   5.274   1.605   9.096 -0.3188 -0.0290  1.5702
  178SLPC  C21720333   5.340   1.739   8.931  0.4120  0.1350 -0.8219
  178SLPC  H17R20334   5.447   1.709   8.937  0.7326  1.3950 -0.0274
  178SLPC  H17S20335   5.348   1.849   8.918  1.7211  0.4640  2.3519
  178SLPC  C21820336   5.280   1.669   8.806 -0.9182 -0.3385  0.0911
  178SLPC  H18R20337   5.340   1.700   8.718 -0.5879 -2.3132 -0.3953
  178SLPC  H18S20338   5.180   1.716   8.794 -0.9296 -0.2406  0.5631
  178SLPC  H18T20339   5.293   1.559   8.813  0.0699 -0.2270  0.1041
  178SLPC   C3320340   5.803   1.615  10.321  0.4364 -0.1159 -0.2366
  178SLPC   H3X20341   5.694   1.637  10.321 -0.0101 -1.9856 -3.3527
  178SLPC   H3Y20342   5.813   1.518  10.375 -0.9143 -0.6570 -0.9428
  178SLPC   C3420343   5.844   1.589  10.176 -0.3458  0.0109  0.1767
  178SLPC   H4X20344   5.949   1.554  10.176 -0.2291  0.2299 -3.0957
  178SLPC   H4Y20345   5.835   1.680  10.113  1.0888 -0.2669 -0.4449
  178SLPC   C3520346   5.765   1.465  10.117 -0.0905 -0.1375  0.4941
  178SLPC   H5X20347   5.662   1.502  10.094  0.2000  2.0026  2.4136
  178SLPC   H5Y20348   5.759   1.391  10.199  0.4578 -1.6664 -0.8151
  178SLPC   C3620349   5.833   1.416   9.989 -0.3464 -0.0425  0.2599
  178SLPC   H6X20350   5.926   1.363  10.018  0.0069  0.1413 -0.5221
  178SLPC   H6Y20351   5.863   1.506   9.931  0.4099  0.8919  2.0505
  178SLPC   C3720352   5.753   1.329   9.895 -0.1635  0.1218 -0.0938
  178SLPC   H7X20353   5.651   1.371   9.882 -0.3295 -0.2435  0.0380
  178SLPC   H7Y20354   5.739   1.231   9.945 -1.8427  0.9150  1.0505
  178SLPC   C3820355   5.817   1.312   9.754  0.1726  0.2802 -0.7364
  178SLPC   H8X20356   5.798   1.207   9.721 -0.2187  0.0122  0.3092
  178SLPC   H8Y20357   5.927   1.324   9.764  0.4156  0.6949 -3.5684
  178SLPC   C3920358   5.769   1.422   9.659 -0.5522 -0.0347  0.1026
  178SLPC   H9X20359   5.798   1.523   9.694 -0.4690  0.6510 -1.8429
  178SLPC   H9Y20360   5.658   1.432   9.662 -0.6754 -1.7386  1.7181
  178SLPC  C31020361   5.819   1.405   9.519  0.0931 -0.4845 -0.1081
  178SLPC  H10X20362   5.918   1.356   9.528  0.2096 -0.6528 -1.9613
  178SLPC  H10Y20363   5.841   1.497   9.460 -1.6454  0.2630  0.3905
  178SLPC  C31120364   5.725   1.328   9.421  0.2432 -0.2550 -0.0592
  178SLPC  H11X20365   5.788   1.305   9.333  2.8557  1.7060  1.2335
  178SLPC  H11Y20366   5.650   1.404   9.390 -0.8264 -2.1712 -2.2973
  178SLPC  C31220367   5.657   1.194   9.468 -0.2303 -0.1663  0.1964
  178SLPC  H12X20368   5.583   1.212   9.549  0.4261 -0.2475  0.8207
  178SLPC  H12Y20369   5.739   1.130   9.508 -1.2839 -1.7936 -0.1972
  178SLPC  C31320370   5.602   1.103   9.354  0.6869  0.0991 -0.1057
  178SLPC  H13X20371   5.603   0.995   9.380  1.0786  0.5034  1.6228
  178SLPC  H13Y20372   5.672   1.128   9.271  1.2172 -0.0839  0.2819
  178SLPC  C31420373   5.454   1.134   9.305  0.3739  0.2938  0.1306
  178SLPC  H14X20374   5.450   1.243   9.281  1.8341  0.5879  1.0705
  178SLPC  H14Y20375   5.389   1.124   9.395  0.1111  0.6727 -0.0140
  178SLPC  C31520376   5.409   1.038   9.194 -0.1483  0.0560 -0.4871
  178SLPC  H15X20377   5.307   1.070   9.165 -0.1199  0.9233  0.3738
  178SLPC  H15Y20378   5.475   1.058   9.107 -2.8764 -1.5165 -3.0151
  178SLPC  C31620379   5.408   0.896   9.227 -0.0869 -0.2167 -0.5495
  178SLPC  H16X20380   5.358   0.887   9.326  2.0898 -0.1137  0.5830
  178SLPC  H16Y20381   5.508   0.851   9.247 -0.5399 -1.2327 -0.5403
  178SLPC  C31720382   5.354   0.804   9.125  0.1393 -0.3387  0.2469
  178SLPC  H17X20383   5.423   0.816   9.040  1.1210 -0.2849  1.0415
  178SLPC  H17Y20384   5.263   0.854   9.084 -0.4681  0.3832  2.3655
  178SLPC  C31820385   5.325   0.657   9.176 -0.4613  0.0989 -0.2395
  178SLPC  H18X20386   5.421   0.608   9.201  0.1365  0.6428 -1.4241
  178SLPC  H18Y20387   5.263   0.592   9.111  0.1041 -0.2970 -0.3797
  178SLPC  H18Z20388   5.268   0.664   9.271 -0.5265 -0.2557 -0.2543
  179SLPC     N20389   0.262   5.860  10.716 -0.0313 -0.3382 -0.1769
  179SLPC   C1320390   0.216   5.976  10.805  0.4013 -0.0267  0.4420
  179SLPC  H13A20391   0.290   6.053  10.818  1.1901 -0.5301 -0.9826
  179SLPC  H13B20392   0.140   6.037  10.758 -0.5669  0.2967  2.3841
  179SLPC  H13C20393   0.192   5.935  10.902  1.3350  0.3530  0.8325
  179SLPC   C1420394   0.175   5.738  10.732  0.3516 -0.3431  0.8901
  179SLPC  H14A20395   0.077   5.754  10.688  1.8428  1.5290 -1.8826
  179SLPC  H14B20396   0.215   5.646  10.693 -1.4738 -2.3396  3.5525
  179SLPC  H14C20397   0.170   5.714  10.837  0.5813 -1.9675  0.5376
  179SLPC   C1520398   0.402   5.824  10.766  1.0122  0.5197  0.5883
  179SLPC  H15A20399   0.466   5.911  10.762  2.6570 -0.7329 -1.8569
  179SLPC  H15B20400   0.394   5.778  10.863 -0.0580  1.0974  0.7811
  179SLPC  H15C20401   0.441   5.744  10.704 -3.6233 -1.1741 -0.4095
  179SLPC   C1220402   0.252   5.902  10.575  0.8277 -0.2456  0.4281
  179SLPC  H12A20403   0.290   5.818  10.519  3.8140  0.3733  1.4392
  179SLPC  H12B20404   0.314   5.989  10.556 -2.8384  2.2485 -0.5739
  179SLPC   C1120405   0.114   5.943  10.515 -0.5665 -0.1172  0.2537
  179SLPC  H11A20406   0.136   6.008  10.428 -1.9510  0.4766  0.3267
  179SLPC  H11B20407   0.065   6.015  10.583 -0.2433 -1.1209  1.5636
  179SLPC     P20408   0.056   5.728  10.382 -0.2389  0.0727  0.9258
  179SLPC   O1320409   0.185   5.671  10.419  0.0878 -0.1209  0.5211
  179SLPC   O1420410  -0.061   5.637  10.364 -0.0834 -0.1573 -0.5719
  179SLPC   O1220411   0.026   5.837  10.491  0.4151  0.3741  0.3976
  179SLPC   O1120412   0.088   5.813  10.248  0.2960 -0.4950 -0.1483
  179SLPC    C120413  -0.020   5.829  10.162 -0.2316 -0.1511 -0.7641
  179SLPC    HA20414  -0.116   5.825  10.219 -1.1575  1.2317 -2.1793
  179SLPC    HB20415  -0.013   5.927  10.109 -0.6603 -0.0721 -0.6809
  179SLPC    C220416  -0.031   5.715  10.053  0.6783 -0.4362  0.0642
  179SLPC    HS20417  -0.031   5.619  10.109 -2.4106  0.6556  2.0508
  179SLPC   O2120418   0.071   5.732   9.953 -0.4896  0.9916 -0.0458
  179SLPC   C2120419   0.179   5.652   9.965  0.0154 -0.2786  0.5914
  179SLPC   O2220420   0.197   5.557  10.043  0.1802 -0.2917  0.5568
  179SLPC   C2220421   0.271   5.683   9.846  0.4826  0.1301 -0.4922
  179SLPC   H2R20422   0.212   5.678   9.752  0.9597 -0.5637 -0.7555
  179SLPC   H2S20423   0.301   5.790   9.852 -0.0577  0.2855 -0.4873
  179SLPC    C320424  -0.166   5.727   9.978  0.1014 -0.0409 -0.6522
  179SLPC    HX20425  -0.159   5.829   9.934 -0.5477  0.0197 -0.6103
  179SLPC    HY20426  -0.250   5.753  10.045  3.0395  1.0802  2.7705
  179SLPC   O3120427  -0.197   5.633   9.879 -0.0851  0.0235  0.4711
  179SLPC   C3120428  -0.286   5.537   9.913  0.2985 -0.2097 -1.1560
  179SLPC   O3220429  -0.352   5.534  10.016  0.1834 -0.3950 -0.3141
  179SLPC   C3220430  -0.305   5.447   9.795 -0.5191  0.2953 -0.1658
  179SLPC   H2X20431  -0.241   5.356   9.795 -2.4564 -1.1117  1.3301
  179SLPC   H2Y20432  -0.284   5.501   9.700 -0.5879  3.2891  1.4675
  179SLPC   C2320433   0.396   5.597   9.836  0.6463  0.1151 -0.3835
  179SLPC   H3R20434   0.351   5.495   9.844  0.5239  0.0412 -1.7826
  179SLPC   H3S20435   0.458   5.617   9.926 -1.6835  1.6936  0.9203
  179SLPC   C2420436   0.471   5.598   9.699 -0.4061 -1.0657 -0.0004
  179SLPC   H4R20437   0.392   5.612   9.623 -0.3996 -1.3775 -0.0638
  179SLPC   H4S20438   0.524   5.501   9.690  1.3010 -0.1109 -0.2791
  179SLPC   C2520439   0.570   5.727   9.686  0.4631 -0.2175 -0.0413
  179SLPC   H5R20440   0.659   5.706   9.748 -0.2644  0.0252  1.0909
  179SLPC   H5S20441   0.516   5.821   9.711 -1.0642 -0.4744 -2.2173
  179SLPC   C2620442   0.615   5.742   9.538  0.2396 -0.2489 -0.5991
  179SLPC   H6R20443   0.636   5.638   9.506  1.0526  0.3476 -2.0223
  179SLPC   H6S20444   0.704   5.808   9.531  0.5407 -0.6091 -0.2013
  179SLPC   C2720445   0.506   5.795   9.443 -0.1187 -0.2305 -0.1621
  179SLPC   H7R20446   0.471   5.893   9.480  0.1016 -0.9440  1.9659
  179SLPC   H7S20447   0.420   5.726   9.458 -0.5685  0.2705 -0.4380
  179SLPC   C2820448   0.542   5.811   9.291 -0.1282  0.2250 -0.4561
  179SLPC   H8R20449   0.575   5.709   9.263 -2.5155 -1.1213  1.4767
  179SLPC   H8S20450   0.636   5.871   9.288 -0.1644  0.2282 -1.8213
  179SLPC   C2920451   0.422   5.837   9.196 -0.6106 -0.0118 -0.3358
  179SLPC   H9R20452   0.327   5.789   9.225 -0.5146  0.5064  0.8611
  179SLPC  C21020453   0.428   5.875   9.074 -0.3311 -1.0325  0.5745
  179SLPC  H10R20454   0.331   5.896   9.027  0.4990  0.3594 -0.5898
  179SLPC  C21120455   0.543   5.923   8.988  0.1667 -1.1576 -0.2389
  179SLPC  H11R20456   0.507   5.906   8.885 -2.4758 -3.3204  0.9678
  179SLPC  H11S20457   0.621   5.845   8.981 -1.7176 -3.1333  0.0588
  179SLPC  C21220458   0.602   6.062   9.015  0.3544  0.3497 -0.5931
  179SLPC  H12R20459   0.631   6.089   9.118 -1.8237  0.0078  0.1305
  179SLPC  C21320460   0.630   6.148   8.918 -0.1584  0.3298 -0.4312
  179SLPC  H13R20461   0.671   6.248   8.939 -1.5293  1.0425 -1.0695
  179SLPC  C21420462   0.619   6.139   8.768  0.4798  0.2615 -0.6758
  179SLPC  H14R20463   0.640   6.237   8.721  0.5285  0.9340  0.7480
  179SLPC  H14S20464   0.517   6.105   8.739 -1.4569  1.1997  4.5392
  179SLPC  C21520465   0.728   6.043   8.709 -0.7571  0.0606 -0.4904
  179SLPC  H15R20466   0.739   5.950   8.770  1.1719  1.5928  1.6221
  179SLPC  H15S20467   0.828   6.091   8.716 -1.5554  1.5702  1.1288
  179SLPC  C21620468   0.703   6.006   8.568 -0.0435 -0.4251 -0.4803
  179SLPC  H16R20469   0.797   6.032   8.516 -1.0619  0.1280 -2.1104
  179SLPC  H16S20470   0.618   6.061   8.522 -0.2101 -1.7483 -1.7780
  179SLPC  C21720471   0.666   5.855   8.539 -0.5070 -0.3653  0.0607
  179SLPC  H17R20472   0.564   5.839   8.581 -0.6778  2.1540  0.7164
  179SLPC  H17S20473   0.738   5.788   8.590 -2.7750 -0.9885  2.5857
  179SLPC  C21820474   0.661   5.834   8.389  0.5352 -0.6010  0.2305
  179SLPC  H18R20475   0.628   5.733   8.359 -1.0492 -0.1258  0.3248
  179SLPC  H18S20476   0.749   5.877   8.337 -0.6800  1.5139 -0.1319
  179SLPC  H18T20477   0.582   5.901   8.349 -2.4355 -2.0432  3.4080
  179SLPC   C3320478  -0.453   5.398   9.775 -0.6456  0.0575  0.1730
  179SLPC   H3X20479  -0.519   5.472   9.824 -1.0608 -0.1542 -0.0631
  179SLPC   H3Y20480  -0.473   5.299   9.822 -2.1385 -0.0473 -0.6655
  179SLPC   C3420481  -0.495   5.380   9.631 -0.8157  0.0954  0.0120
  179SLPC   H4X20482  -0.446   5.295   9.580  0.1366  0.4967  0.2285
  179SLPC   H4Y20483  -0.463   5.471   9.575 -1.1636  0.4763  0.4315
  179SLPC   C3520484  -0.646   5.354   9.614  0.7973 -0.8895  0.1633
  179SLPC   H5X20485  -0.703   5.449   9.627  3.6527  0.8824  0.2630
  179SLPC   H5Y20486  -0.685   5.300   9.702 -0.5193  1.9481  1.3872
  179SLPC   C3620487  -0.678   5.286   9.484 -0.9286 -0.4242 -0.8459
  179SLPC   H6X20488  -0.788   5.273   9.472 -1.5003  1.2568  1.9322
  179SLPC   H6Y20489  -0.628   5.187   9.481 -0.0025 -0.0383  0.9717
  179SLPC   C3720490  -0.635   5.365   9.358 -0.3807  0.0223 -0.1909
  179SLPC   H7X20491  -0.527   5.392   9.357 -0.5267  0.6554  0.8804
  179SLPC   H7Y20492  -0.687   5.463   9.352 -0.8738 -0.3934 -3.7903
  179SLPC   C3820493  -0.663   5.280   9.236  0.1842  0.1875  0.2459
  179SLPC   H8X20494  -0.771   5.266   9.213  0.1736  0.5141  0.0999
  179SLPC   H8Y20495  -0.632   5.175   9.255  0.9827  0.2603 -0.5833
  179SLPC   C3920496  -0.577   5.325   9.109 -0.0033 -0.2895 -0.6353
  179SLPC   H9X20497  -0.471   5.322   9.143 -0.6987 -0.8495  1.5630
  179SLPC   H9Y20498  -0.600   5.432   9.091  1.6252  0.2114  0.1145
  179SLPC  C31020499  -0.593   5.233   8.988 -0.7263 -0.3850 -0.7452
  179SLPC  H10X20500  -0.691   5.249   8.937 -1.3551  1.6444  1.0235
  179SLPC  H10Y20501  -0.596   5.131   9.032 -0.6497  0.6470  1.7489
  179SLPC  C31120502  -0.490   5.256   8.882  0.5930  0.3005  0.3650
  179SLPC  H11X20503  -0.535   5.352   8.850 -0.0640 -0.3465 -0.6683
  179SLPC  H11Y20504  -0.493   5.177   8.804 -0.7679 -1.0915  1.7940
  179SLPC  C31220505  -0.337   5.269   8.924  0.0066 -0.2444 -0.0450
  179SLPC  H12X20506  -0.296   5.175   8.966  0.2065  0.2611  0.9024
  179SLPC  H12Y20507  -0.317   5.342   9.006 -0.9075 -0.5789  0.4825
  179SLPC  C31320508  -0.238   5.311   8.809  0.4567 -0.1165 -0.1967
  179SLPC  H13X20509  -0.188   5.216   8.779  0.5444 -1.0056  2.5844
  179SLPC  H13Y20510  -0.156   5.377   8.846  1.5423  0.7304 -3.8359
  179SLPC  C31420511  -0.312   5.385   8.698  1.2966 -0.6005 -0.5013
  179SLPC  H14X20512  -0.357   5.476   8.744  1.7026  0.0442 -1.3607
  179SLPC  H14Y20513  -0.385   5.336   8.629 -0.9861  1.0639  0.6726
  179SLPC  C31520514  -0.219   5.458   8.601 -0.7340 -1.3804  1.0167
  179SLPC  H15X20515  -0.159   5.388   8.541  1.9652 -0.2282  2.2863
  179SLPC  H15Y20516  -0.152   5.509   8.673  0.2188 -1.4911  0.2124
  179SLPC  C31620517  -0.298   5.564   8.515  0.2205  0.7208 -0.4664
  179SLPC  H16X20518  -0.383   5.606   8.573 -0.3542  0.3378 -1.0402
  179SLPC  H16Y20519  -0.334   5.507   8.427 -0.1970 -0.6767  0.5965
  179SLPC  C31720520  -0.205   5.674   8.465 -0.6612 -0.3140 -0.5059
  179SLPC  H17X20521  -0.168   5.746   8.541  2.2505 -1.4713 -0.7406
  179SLPC  H17Y20522  -0.267   5.735   8.396 -0.5959 -0.4850 -0.7197
  179SLPC  C31820523  -0.083   5.625   8.381  0.3892 -0.2928  0.2551
  179SLPC  H18X20524  -0.129   5.580   8.291 -1.5855 -1.5489  1.8556
  179SLPC  H18Y20525  -0.019   5.552   8.436 -0.0378 -0.1111  0.9932
  179SLPC  H18Z20526  -0.020   5.710   8.347 -0.1404 -0.3724 -0.9596
  180SLPC     N20527   2.214   2.931  11.323 -0.6066  0.1912  0.8394
  180SLPC   C1320528   2.238   3.076  11.302 -0.0054 -0.6127 -0.2392
  180SLPC  H13A20529   2.167   3.138  11.356  0.5581 -1.6659  1.7323
  180SLPC  H13B20530   2.335   3.109  11.334  1.2391 -1.7562 -2.6905
  180SLPC  H13C20531   2.235   3.101  11.197 -0.0233  0.5253  0.0268
  180SLPC   C1420532   2.069   2.903  11.299  0.6599  0.1552 -0.8237
  180SLPC  H14A20533   2.009   2.961  11.367  0.5200 -2.0819  0.9786
  180SLPC  H14B20534   2.044   2.910  11.194 -1.5497 -2.1154 -0.4666
  180SLPC  H14C20535   2.047   2.800  11.320 -2.6323  0.6633 -1.5951
  180SLPC   C1520536   2.244   2.892  11.467 -0.5766 -0.3056  0.1590
  180SLPC  H15A20537   2.186   2.931  11.549  0.1204 -2.2060  1.5903
  180SLPC  H15B20538   2.231   2.785  11.480  1.8693 -0.5013  1.4013
  180SLPC  H15C20539   2.350   2.902  11.484 -0.1675 -1.9509 -1.2264
  180SLPC   C1220540   2.297   2.846  11.229  0.0902 -0.1854 -0.2769
  180SLPC  H12A20541   2.285   2.745  11.263 -0.3510  0.8468  2.8134
  180SLPC  H12B20542   2.400   2.863  11.257 -0.1193  0.3257  0.1825
  180SLPC   C1120543   2.294   2.886  11.076 -0.1975 -0.0952 -0.2047
  180SLPC  H11A20544   2.368   2.828  11.016  0.5886 -0.4047  1.0460
  180SLPC  H11B20545   2.333   2.989  11.087 -1.6272  0.4048  0.2133
  180SLPC     P20546   2.103   3.012  10.929  0.4601  0.3168  0.1391
  180SLPC   O1320547   2.108   3.137  11.003 -0.1233  0.3676 -0.1291
  180SLPC   O1420548   2.171   2.996  10.794  0.0615 -0.1670 -0.4098
  180SLPC   O1220549   2.163   2.892  11.018  0.3899 -0.3234 -0.1806
  180SLPC   O1120550   1.948   2.983  10.906 -0.2849  0.2483 -0.9899
  180SLPC    C120551   1.912   2.846  10.882 -0.4540 -0.0270 -0.5672
  180SLPC    HA20552   1.948   2.777  10.961  1.1920 -0.5359 -1.7357
  180SLPC    HB20553   1.803   2.840  10.901 -0.6497  1.3011 -1.1947
  180SLPC    C220554   1.938   2.789  10.738  0.7265 -0.5982  0.6592
  180SLPC    HS20555   2.045   2.804  10.712  0.3069 -1.2558 -1.4816
  180SLPC   O2120556   1.846   2.862  10.661  0.1847  0.1399 -0.9280
  180SLPC   C2120557   1.880   2.876  10.539 -0.1503  0.4687  0.7740
  180SLPC   O2220558   1.978   2.837  10.485  0.0155  0.0847 -0.1344
  180SLPC   C2220559   1.755   2.935  10.469  0.1469  0.3364  0.2975
  180SLPC   H2R20560   1.668   2.866  10.475 -1.7893  2.5317 -1.7518
  180SLPC   H2S20561   1.740   3.034  10.516 -2.3956  0.6376 -1.0786
  180SLPC    C320562   1.905   2.637  10.733 -0.2250 -0.3038 -0.1587
  180SLPC    HX20563   1.795   2.627  10.740 -0.3204  0.2507 -0.7817
  180SLPC    HY20564   1.939   2.574  10.818 -1.2153  3.2715  3.0149
  180SLPC   O3120565   1.936   2.595  10.605  0.4992 -0.7070  0.3568
  180SLPC   C3120566   2.055   2.541  10.593 -0.4148  0.4518 -0.2317
  180SLPC   O3220567   2.144   2.534  10.679  0.2984 -0.1037  0.3645
  180SLPC   C3220568   2.072   2.505  10.444  0.3869 -1.2250  0.0359
  180SLPC   H2X20569   1.992   2.562  10.392  2.1716  1.4175  0.0628
  180SLPC   H2Y20570   2.047   2.397  10.444  1.0637 -1.3866 -0.2014
  180SLPC   C2320571   1.773   2.952  10.317  0.1709 -0.0770  0.2338
  180SLPC   H3R20572   1.761   2.856  10.263  0.5786  0.2386 -0.4211
  180SLPC   H3S20573   1.869   2.999  10.286  0.8844 -1.0267  0.9349
  180SLPC   C2420574   1.660   3.046  10.266  0.0750 -0.1026  0.0866
  180SLPC   H4R20575   1.684   3.152  10.290  2.1697 -0.2774 -1.1217
  180SLPC   H4S20576   1.564   3.012  10.310  0.4565 -2.3128 -0.7095
  180SLPC   C2520577   1.648   3.032  10.113 -0.2431 -0.2852  0.1116
  180SLPC   H5R20578   1.620   2.926  10.090 -0.2606 -0.4961  1.0908
  180SLPC   H5S20579   1.750   3.061  10.080 -0.1521 -1.2825 -0.5218
  180SLPC   C2620580   1.555   3.133  10.048 -0.3744  0.3818 -0.6966
  180SLPC   H6R20581   1.559   3.231  10.100 -4.2085 -0.0161  0.4815
  180SLPC   H6S20582   1.456   3.084  10.044  0.2665 -0.9168 -1.0948
  180SLPC   C2720583   1.591   3.161   9.898  0.5673 -0.6128  0.7027
  180SLPC   H7R20584   1.574   3.067   9.841  2.1208 -0.1313 -0.6107
  180SLPC   H7S20585   1.694   3.201   9.890  0.8729 -1.9440 -2.7047
  180SLPC   C2820586   1.513   3.268   9.818  0.1743  0.1248 -0.2161
  180SLPC   H8R20587   1.552   3.307   9.722 -0.3995 -1.3517 -1.0555
  180SLPC   H8S20588   1.514   3.355   9.888 -0.7511 -0.0934  0.0686
  180SLPC   C2920589   1.370   3.234   9.787 -0.0804 -0.1443 -0.1930
  180SLPC   H9R20590   1.304   3.252   9.873 -2.6125  1.1182 -2.3449
  180SLPC  C21020591   1.326   3.178   9.677 -0.4152 -0.4270  0.0725
  180SLPC  H10R20592   1.221   3.158   9.649 -0.4430  2.0771 -1.7576
  180SLPC  C21120593   1.405   3.148   9.552 -0.3834  0.2283 -0.1392
  180SLPC  H11R20594   1.509   3.185   9.565 -0.4412  0.8653 -1.4691
  180SLPC  H11S20595   1.365   3.208   9.468 -0.0403  0.4721 -0.1305
  180SLPC  C21220596   1.415   3.004   9.504 -0.3816  0.1195 -0.2647
  180SLPC  H12R20597   1.373   2.940   9.583 -2.1853  1.6801  0.0842
  180SLPC  C21320598   1.432   2.968   9.375 -0.3088  0.1657  0.3967
  180SLPC  H13R20599   1.441   2.860   9.353  0.8859  0.5996 -1.4033
  180SLPC  C21420600   1.460   3.062   9.259 -0.3188 -0.0498  0.0237
  180SLPC  H14R20601   1.564   3.060   9.222 -0.5727  3.1162 -1.0131
  180SLPC  H14S20602   1.429   3.166   9.287  0.3967  0.4197 -0.9197
  180SLPC  C21520603   1.387   3.037   9.131 -0.0618  0.8679  0.5298
  180SLPC  H15R20604   1.397   3.125   9.063  1.2525  0.1704 -0.2067
  180SLPC  H15S20605   1.280   3.024   9.157 -0.0853 -0.5213 -0.2173
  180SLPC  C21620606   1.431   2.919   9.047 -0.0077  0.3803  0.2134
  180SLPC  H16R20607   1.424   2.837   9.121  0.8582 -0.0674 -0.1944
  180SLPC  H16S20608   1.539   2.935   9.024  0.5074  0.7564  2.7169
  180SLPC  C21720609   1.338   2.894   8.927 -0.2300 -0.8869 -0.6674
  180SLPC  H17R20610   1.336   2.967   8.843 -2.0273 -0.3564 -0.1761
  180SLPC  H17S20611   1.236   2.882   8.969 -0.1845  1.0518  0.0378
  180SLPC  C21820612   1.376   2.754   8.859  0.3475  0.1976 -0.1435
  180SLPC  H18R20613   1.290   2.699   8.816  2.6467 -1.7512 -2.3778
  180SLPC  H18S20614   1.420   2.682   8.931 -0.1267 -0.5454 -0.6008
  180SLPC  H18T20615   1.450   2.769   8.778  0.3214 -1.2871 -0.4509
  180SLPC   C3320616   2.216   2.536  10.389  0.2797 -0.7306  0.1624
  180SLPC   H3X20617   2.288   2.477  10.450 -0.4570 -3.6186 -1.6558
  180SLPC   H3Y20618   2.242   2.644  10.383 -1.1053 -0.4657 -1.4479
  180SLPC   C3420619   2.229   2.493  10.248  0.5624  0.3603 -0.4509
  180SLPC   H4X20620   2.232   2.382  10.246  0.9097  0.3454  0.6750
  180SLPC   H4Y20621   2.334   2.515  10.218  1.2552 -1.3643  0.6059
  180SLPC   C3520622   2.122   2.553  10.152 -0.0767  0.2507 -0.2104
  180SLPC   H5X20623   2.040   2.609  10.203 -0.8586 -0.5850 -0.5314
  180SLPC   H5Y20624   2.062   2.475  10.101 -0.3274  0.3704 -0.1008
  180SLPC   C3620625   2.187   2.648  10.050 -0.1311  0.3994 -0.5400
  180SLPC   H6X20626   2.271   2.591  10.004 -0.1346  1.4088 -1.8265
  180SLPC   H6Y20627   2.221   2.742  10.099  0.5401  0.2001 -0.6191
  180SLPC   C3720628   2.100   2.688   9.932  0.6064 -0.5487  0.6453
  180SLPC   H7X20629   2.064   2.597   9.881 -0.5800  2.2022 -3.6558
  180SLPC   H7Y20630   2.153   2.761   9.867  2.0616 -1.2372  1.0356
  180SLPC   C3820631   1.975   2.762   9.969  0.2785 -0.5931  0.1641
  180SLPC   H8X20632   1.997   2.831  10.053  0.0199 -1.6229  1.0929
  180SLPC   H8Y20633   1.901   2.688  10.007 -1.5395 -0.6356 -3.2487
  180SLPC   C3920634   1.908   2.852   9.860  0.9334 -0.3112 -0.2624
  180SLPC   H9X20635   1.995   2.893   9.804  0.2773 -0.9421 -1.7784
  180SLPC   H9Y20636   1.859   2.939   9.909 -0.0854 -0.1793 -1.4910
  180SLPC  C31020637   1.794   2.789   9.782  0.4527  0.3517 -0.5363
  180SLPC  H10X20638   1.707   2.765   9.848  0.6046  0.0080 -0.4616
  180SLPC  H10Y20639   1.836   2.695   9.742 -1.8742 -0.9280 -0.0652
  180SLPC  C31120640   1.739   2.866   9.659 -0.6335 -0.0918 -0.2212
  180SLPC  H11X20641   1.684   2.952   9.705 -2.0088 -0.9977 -0.1406
  180SLPC  H11Y20642   1.690   2.781   9.608 -1.3506 -1.3382  2.4443
  180SLPC  C31220643   1.839   2.921   9.558  0.1053  0.2560  1.1602
  180SLPC  H12X20644   1.911   2.838   9.541 -0.0911  0.2524  0.3061
  180SLPC  H12Y20645   1.891   3.006   9.608  0.4576  1.3137 -0.9347
  180SLPC  C31320646   1.779   2.970   9.419  0.7294  0.6003 -0.2115
  180SLPC  H13X20647   1.731   3.069   9.434  1.0707  0.7679 -0.2257
  180SLPC  H13Y20648   1.703   2.896   9.388  0.9548 -0.5540  1.9244
  180SLPC  C31420649   1.886   2.988   9.302  0.3578  0.2569 -0.5026
  180SLPC  H14X20650   1.923   2.884   9.290 -1.7322 -0.4854 -0.7209
  180SLPC  H14Y20651   1.966   3.053   9.344 -0.1701 -0.4167  1.6406
  180SLPC  C31520652   1.836   3.041   9.165 -0.8447 -0.6945 -0.6814
  180SLPC  H15X20653   1.783   3.138   9.169 -0.5584 -0.5312 -0.8397
  180SLPC  H15Y20654   1.778   2.964   9.110 -2.2253  1.2187 -1.9558
  180SLPC  C31620655   1.962   3.076   9.087 -0.2717 -0.5518  0.2060
  180SLPC  H16X20656   2.031   2.990   9.085  1.8391  1.1027 -0.3476
  180SLPC  H16Y20657   2.015   3.165   9.127  0.8553  0.1881 -2.8082
  180SLPC  C31720658   1.925   3.103   8.940 -0.7422 -0.0867  0.1961
  180SLPC  H17X20659   1.853   3.187   8.935 -1.2468 -0.5634 -0.5603
  180SLPC  H17Y20660   1.870   3.020   8.891 -0.4359  0.7364 -1.5925
  180SLPC  C31820661   2.051   3.134   8.865  0.7740  0.1654  1.1192
  180SLPC  H18X20662   2.024   3.191   8.773  0.7340  1.8153  2.1320
  180SLPC  H18Y20663   2.116   3.048   8.836 -0.0883  0.3757 -1.5886
  180SLPC  H18Z20664   2.122   3.201   8.918  0.7679 -0.2284  1.6241
  181SLPC     N20665   4.854   6.652  11.144  0.5158  0.5429  0.4761
  181SLPC   C1320666   4.991   6.605  11.116 -0.0005 -0.4061 -0.0258
  181SLPC  H13A20667   5.021   6.527  11.184 -0.9340 -2.0175 -1.4372
  181SLPC  H13B20668   4.997   6.568  11.015 -0.8023 -1.3192  0.2452
  181SLPC  H13C20669   5.064   6.684  11.121  3.0250 -3.0788 -0.2993
  181SLPC   C1420670   4.847   6.724  11.269 -0.1047 -0.1449  0.4693
  181SLPC  H14A20671   4.744   6.732  11.298  0.3777  1.5601  1.7539
  181SLPC  H14B20672   4.897   6.670  11.348  1.8765  1.6078  0.4648
  181SLPC  H14C20673   4.891   6.822  11.258  0.3105 -0.3881 -0.0764
  181SLPC   C1520674   4.752   6.543  11.147 -0.1629  0.0058 -0.2986
  181SLPC  H15A20675   4.774   6.463  11.216  1.8091  0.1661 -0.7231
  181SLPC  H15B20676   4.667   6.596  11.189  0.8257  1.4984 -0.1235
  181SLPC  H15C20677   4.723   6.508  11.049 -1.7748  1.8839 -0.5341
  181SLPC   C1220678   4.813   6.745  11.034 -1.0400  0.2354  0.5140
  181SLPC  H12A20679   4.831   6.702  10.936  3.4823  0.9858  0.9401
  181SLPC  H12B20680   4.876   6.832  11.025  0.2399 -0.9495 -2.7789
  181SLPC   C1120681   4.658   6.789  11.038  0.2975  0.8717  0.5442
  181SLPC  H11A20682   4.600   6.698  11.010  0.0107  0.9639  0.8419
  181SLPC  H11B20683   4.632   6.862  10.958  1.8295  1.1856  0.3167
  181SLPC     P20684   4.609   6.986  11.197 -0.0342  0.0440  0.0285
  181SLPC   O1320685   4.524   7.006  11.316 -0.2367 -0.2522 -0.1166
  181SLPC   O1420686   4.753   7.033  11.212  0.0592 -0.4987 -0.2964
  181SLPC   O1220687   4.603   6.831  11.155  0.7747  0.1102 -0.1141
  181SLPC   O1120688   4.552   7.052  11.072  0.4940 -0.4382 -0.3246
  181SLPC    C120689   4.414   7.051  11.051  0.1946 -0.2676  0.2698
  181SLPC    HA20690   4.362   6.965  11.097  2.9993 -2.1034  0.1773
  181SLPC    HB20691   4.369   7.136  11.106 -0.2542 -0.6429  0.4764
  181SLPC    C220692   4.396   7.076  10.900 -0.1068 -0.3333  0.3891
  181SLPC    HS20693   4.292   7.108  10.877  0.0399  0.5575  0.9462
  181SLPC   O2120694   4.420   6.958  10.823  0.5466 -0.5924  0.0416
  181SLPC   C2120695   4.333   6.861  10.844  0.5724  0.3418  0.5102
  181SLPC   O2220696   4.224   6.868  10.906  0.4990  0.6966  0.3039
  181SLPC   C2220697   4.376   6.729  10.776  0.5301  0.4029 -0.2486
  181SLPC   H2R20698   4.463   6.696  10.837  1.4493 -1.7431 -2.6186
  181SLPC   H2S20699   4.301   6.648  10.780 -0.3589  1.1923 -0.9310
  181SLPC    C320700   4.492   7.192  10.857  0.4939  0.0916 -0.8309
  181SLPC    HX20701   4.597   7.170  10.887  0.8240  0.5643 -1.5980
  181SLPC    HY20702   4.479   7.287  10.913  0.0313  0.4796 -1.5901
  181SLPC   O3120703   4.481   7.218  10.718 -0.3581  0.7176  0.1676
  181SLPC   C3120704   4.563   7.151  10.638  0.7908  0.3941 -0.5083
  181SLPC   O3220705   4.636   7.062  10.670 -0.2966 -0.1198 -0.4060
  181SLPC   C3220706   4.558   7.216  10.494 -0.6250  0.4111  0.5919
  181SLPC   H2X20707   4.662   7.208  10.456 -0.6705  2.2024  0.0247
  181SLPC   H2Y20708   4.539   7.325  10.509  3.3150  0.9007  2.7768
  181SLPC   C2320709   4.414   6.759  10.630 -0.3139  0.8465 -0.2852
  181SLPC   H3R20710   4.471   6.675  10.586  0.9284  1.6798 -0.2732
  181SLPC   H3S20711   4.493   6.836  10.626 -0.3785  1.0249  1.5905
  181SLPC   C2420712   4.289   6.783  10.547  0.4679  0.5796  0.7205
  181SLPC   H4R20713   4.242   6.882  10.565  0.7600  0.8338  0.0948
  181SLPC   H4S20714   4.222   6.698  10.570  1.9052 -1.1499 -1.2665
  181SLPC   C2520715   4.319   6.778  10.399 -0.6479  0.1952  0.2202
  181SLPC   H5R20716   4.329   6.673  10.364  1.3135  0.4834 -0.1519
  181SLPC   H5S20717   4.420   6.825  10.391 -0.0712 -1.0357  0.0419
  181SLPC   C2620718   4.221   6.852  10.307 -0.4659  0.3973 -0.0069
  181SLPC   H6R20719   4.241   6.959  10.328  0.0286  0.3386 -0.1629
  181SLPC   H6S20720   4.116   6.823  10.330 -0.1639  0.5730  1.5966
  181SLPC   C2720721   4.248   6.844  10.157 -0.0161 -0.2256  0.6347
  181SLPC   H7R20722   4.228   6.743  10.115  3.1403 -0.2548 -0.9449
  181SLPC   H7S20723   4.357   6.856  10.138  0.6682 -1.7098  3.3893
  181SLPC   C2820724   4.157   6.924  10.069  0.4366 -0.1093 -0.0638
  181SLPC   H8R20725   4.170   7.032  10.091  0.7640  0.5485 -3.3383
  181SLPC   H8S20726   4.054   6.884  10.088  0.7055 -0.1265  1.4329
  181SLPC   C2920727   4.196   6.914   9.920 -0.3791  0.0245 -0.5599
  181SLPC   H9R20728   4.180   6.814   9.876  0.6260  1.2807 -3.9616
  181SLPC  C21020729   4.254   6.998   9.841 -0.3047  0.3620  0.5171
  181SLPC  H10R20730   4.255   6.966   9.736 -1.3836  1.8188  0.0363
  181SLPC  C21120731   4.308   7.136   9.878  0.2735 -0.1478 -0.0770
  181SLPC  H11R20732   4.405   7.155   9.829 -0.0455  1.6087 -0.0608
  181SLPC  H11S20733   4.321   7.153   9.987  0.6357  1.6795 -0.3840
  181SLPC  C21220734   4.216   7.240   9.819  0.0399  0.5996  0.6024
  181SLPC  H12R20735   4.132   7.268   9.884  1.2985  1.0664  2.0523
  181SLPC  C21320736   4.221   7.292   9.699  0.8815  0.3575  0.3127
  181SLPC  H13R20737   4.144   7.369   9.684  0.4280  0.0523  1.0339
  181SLPC  C21420738   4.326   7.261   9.595 -0.1970  0.1248  0.3854
  181SLPC  H14R20739   4.361   7.158   9.620 -0.0749 -0.1959 -1.0440
  181SLPC  H14S20740   4.410   7.333   9.605 -1.9375  2.1471  0.6861
  181SLPC  C21520741   4.260   7.255   9.454  0.4026 -0.0224 -0.1510
  181SLPC  H15R20742   4.243   7.358   9.417  0.3703  0.4395  1.1477
  181SLPC  H15S20743   4.165   7.198   9.466  1.4691 -1.5110  1.4542
  181SLPC  C21620744   4.340   7.172   9.354  0.2633  0.0959  0.3514
  181SLPC  H16R20745   4.363   7.077   9.407  0.2421 -1.4612 -2.3565
  181SLPC  H16S20746   4.433   7.233   9.340 -0.2010  1.0912  1.5133
  181SLPC  C21720747   4.278   7.144   9.217  0.3236 -0.3867 -0.3130
  181SLPC  H17R20748   4.250   7.239   9.166  0.7707  0.2062  0.5280
  181SLPC  H17S20749   4.178   7.097   9.227 -1.7077  2.9308 -3.6312
  181SLPC  C21820750   4.364   7.057   9.119  0.4191  0.3403 -0.1436
  181SLPC  H18R20751   4.459   7.111   9.103 -0.3317  1.8755  0.4942
  181SLPC  H18S20752   4.322   7.044   9.017 -0.0769 -1.6807  0.3053
  181SLPC  H18T20753   4.376   6.955   9.162 -0.6005 -0.2416 -1.1881
  181SLPC   C3320754   4.457   7.141  10.410  0.1474 -0.0243 -0.0298
  181SLPC   H3X20755   4.360   7.151  10.463 -0.2498  1.8153 -1.0679
  181SLPC   H3Y20756   4.473   7.032  10.400  1.8355  0.1833  0.2986
  181SLPC   C3420757   4.440   7.198  10.267  0.0520  0.2940 -0.0849
  181SLPC   H4X20758   4.415   7.306  10.261 -1.3241 -0.0431 -0.6608
  181SLPC   H4Y20759   4.355   7.132  10.237  0.1540 -1.3256  2.9647
  181SLPC   C3520760   4.564   7.183  10.170 -0.3243 -0.4129  0.3815
  181SLPC   H5X20761   4.561   7.083  10.121  0.3143  0.7031 -1.9862
  181SLPC   H5Y20762   4.661   7.184  10.225  0.3262  0.7096 -0.7700
  181SLPC   C3620763   4.567   7.278  10.060  0.1386 -0.8451  0.2111
  181SLPC   H6X20764   4.608   7.374  10.099 -1.8745 -0.8919  2.5292
  181SLPC   H6Y20765   4.464   7.304  10.028 -0.1347 -0.8255  1.1047
  181SLPC   C3720766   4.664   7.232   9.959  0.3668  0.0130  0.2374
  181SLPC   H7X20767   4.653   7.125   9.930  1.9824 -0.1975  0.3195
  181SLPC   H7Y20768   4.765   7.226  10.005 -0.4526  0.0703  2.0880
  181SLPC   C3820769   4.660   7.334   9.847 -0.1820  0.8572  0.0430
  181SLPC   H8X20770   4.707   7.432   9.871 -1.5489  2.2020 -2.4716
  181SLPC   H8Y20771   4.557   7.351   9.807 -0.4776 -0.1912  0.3406
  181SLPC   C3920772   4.738   7.265   9.734  1.1818 -0.2077 -0.2138
  181SLPC   H9X20773   4.691   7.166   9.719 -0.2282  0.3242  0.6219
  181SLPC   H9Y20774   4.845   7.256   9.764  1.8302 -1.1105 -2.6697
  181SLPC  C31020775   4.737   7.350   9.609 -0.1773 -0.2865  0.2574
  181SLPC  H10X20776   4.752   7.454   9.646 -1.8367 -0.3987  1.3283
  181SLPC  H10Y20777   4.636   7.347   9.563 -0.5870 -2.3398  1.2254
  181SLPC  C31120778   4.843   7.295   9.517 -1.2208  0.5104  0.2494
  181SLPC  H11X20779   4.843   7.184   9.512 -1.2530  0.5011  0.4671
  181SLPC  H11Y20780   4.935   7.314   9.576 -0.8388  2.9903 -1.0846
  181SLPC  C31220781   4.858   7.364   9.380 -0.3428  0.2945 -0.8605
  181SLPC  H12X20782   4.762   7.359   9.324  0.4087 -0.0480 -2.1426
  181SLPC  H12Y20783   4.930   7.300   9.326  2.3831  0.8276  2.0124
  181SLPC  C31320784   4.918   7.508   9.380 -0.3314 -0.4066  0.6096
  181SLPC  H13X20785   5.018   7.512   9.428  0.8426 -1.6928 -1.6193
  181SLPC  H13Y20786   4.841   7.581   9.412 -0.8014  0.4466 -2.2573
  181SLPC  C31420787   4.940   7.547   9.234  0.1617  0.0445  0.1249
  181SLPC  H14X20788   4.850   7.505   9.183  1.0209 -0.7951 -0.6997
  181SLPC  H14Y20789   5.016   7.486   9.182 -1.0732 -0.6331 -0.9324
  181SLPC  C31520790   4.926   7.695   9.202 -0.0286 -0.7485  0.6046
  181SLPC  H15X20791   5.003   7.749   9.261  0.3484 -0.0842 -0.4906
  181SLPC  H15Y20792   4.826   7.722   9.243  0.5321  1.1495  0.7578
  181SLPC  C31620793   4.935   7.725   9.050 -0.0546 -0.7691 -0.2211
  181SLPC  H16X20794   4.931   7.633   8.988 -0.3554 -1.6393  1.0671
  181SLPC  H16Y20795   5.031   7.778   9.028 -0.5770  1.1052  1.8067
  181SLPC  C31720796   4.813   7.804   8.994  0.4571 -0.2254  0.0643
  181SLPC  H17X20797   4.842   7.852   8.898 -2.1381  0.4008 -0.4351
  181SLPC  H17Y20798   4.799   7.892   9.060  1.3171 -0.7533  0.9813
  181SLPC  C31820799   4.683   7.722   8.967  0.1625 -0.2751 -0.0780
  181SLPC  H18X20800   4.639   7.694   9.065  1.6606  1.7954  1.2147
  181SLPC  H18Y20801   4.695   7.629   8.908 -1.2238  0.4081 -1.4732
  181SLPC  H18Z20802   4.616   7.788   8.908  0.5982  0.2375 -0.0083
  182SLPC     N20803   2.890   1.087  10.880 -0.1952 -0.3964 -0.4900
  182SLPC   C1320804   2.828   1.090  11.012 -0.6030 -0.3132 -0.7785
  182SLPC  H13A20805   2.843   1.000  11.070 -1.3592  0.2800  0.3557
  182SLPC  H13B20806   2.867   1.172  11.070 -2.2195  0.5225 -0.8576
  182SLPC  H13C20807   2.723   1.113  10.996 -0.3978 -0.3403 -2.2043
  182SLPC   C1420808   2.833   0.972  10.797 -0.0477 -0.1031 -0.3643
  182SLPC  H14A20809   2.887   0.948  10.707 -0.5641  0.7528 -0.9067
  182SLPC  H14B20810   2.828   0.881  10.856  0.1729  0.4204  0.4693
  182SLPC  H14C20811   2.729   0.994  10.779  0.7946  0.9475 -4.5046
  182SLPC   C1520812   3.034   1.070  10.898 -0.3979  0.0122  0.3034
  182SLPC  H15A20813   3.084   1.096  10.806 -0.7442 -0.9100 -0.1536
  182SLPC  H15B20814   3.063   1.129  10.983  2.8003 -1.0703 -0.0023
  182SLPC  H15C20815   3.050   0.969  10.933  3.3825  0.5240  0.2002
  182SLPC   C1220816   2.869   1.216  10.802  0.0703 -0.5645 -0.2399
  182SLPC  H12A20817   2.946   1.224  10.726  0.3764  1.1471  0.2138
  182SLPC  H12B20818   2.884   1.292  10.877 -2.6577  0.5737 -0.7937
  182SLPC   C1120819   2.733   1.246  10.742  0.4508  0.2618  0.4490
  182SLPC  H11A20820   2.706   1.185  10.652 -0.5602 -0.4250  1.2006
  182SLPC  H11B20821   2.721   1.351  10.710 -0.5336  0.1660  0.4863
  182SLPC     P20822   2.499   1.152  10.807 -0.2978 -0.3845 -0.4419
  182SLPC   O1320823   2.533   1.011  10.809  0.3517 -0.8264 -0.3651
  182SLPC   O1420824   2.392   1.188  10.902  0.5946 -0.3472  0.0181
  182SLPC   O1220825   2.626   1.243  10.841 -0.4030 -0.3728 -0.1270
  182SLPC   O1120826   2.454   1.188  10.655  0.3527  0.7738  0.2487
  182SLPC    C120827   2.388   1.317  10.635 -1.1275  0.1646  0.3705
  182SLPC    HA20828   2.284   1.292  10.666 -0.6891 -0.9535  0.9429
  182SLPC    HB20829   2.430   1.398  10.698  0.2755 -0.1188 -0.1828
  182SLPC    C220830   2.401   1.354  10.479  1.1345 -0.1925 -0.2451
  182SLPC    HS20831   2.339   1.444  10.459 -1.3820 -1.2108  2.6122
  182SLPC   O2120832   2.352   1.248  10.397 -0.4272  0.0699 -0.1515
  182SLPC   C2120833   2.229   1.197  10.421  0.3841  0.0648 -0.3124
  182SLPC   O2220834   2.152   1.240  10.505  0.8649  0.1810  0.4032
  182SLPC   C2220835   2.203   1.079  10.327  0.0862  0.3665  0.0639
  182SLPC   H2R20836   2.298   1.031  10.294 -1.1494 -1.6167 -0.6710
  182SLPC   H2S20837   2.145   1.000  10.379 -0.0434  1.2499  1.2856
  182SLPC    C320838   2.546   1.374  10.444  0.3578 -0.0942  0.5303
  182SLPC    HX20839   2.612   1.299  10.491  0.5569  0.9563  1.9795
  182SLPC    HY20840   2.586   1.466  10.491 -0.2489  1.7281 -2.3603
  182SLPC   O3120841   2.568   1.386  10.303  0.0403 -0.5042 -1.1551
  182SLPC   C3120842   2.554   1.504  10.249 -0.2027 -0.0874  0.6012
  182SLPC   O3220843   2.529   1.607  10.302 -0.8099 -0.0622 -0.1451
  182SLPC   C3220844   2.575   1.474  10.102  0.4745 -0.0804 -0.5943
  182SLPC   H2X20845   2.483   1.443  10.048 -1.0427  2.3414  0.5107
  182SLPC   H2Y20846   2.638   1.384  10.088 -0.5081 -0.6960 -1.1041
  182SLPC   C2320847   2.139   1.132  10.201 -0.2903  0.6916 -0.3696
  182SLPC   H3R20848   2.065   1.212  10.222  0.9022  2.3374 -2.2568
  182SLPC   H3S20849   2.082   1.051  10.150  2.7229 -1.2964 -0.7323
  182SLPC   C2420850   2.245   1.196  10.114  0.3813  0.1429  0.6039
  182SLPC   H4R20851   2.328   1.130  10.082  1.2752  1.2985  0.5064
  182SLPC   H4S20852   2.291   1.277  10.174  0.5343 -0.2264  0.9827
  182SLPC   C2520853   2.169   1.250   9.987 -0.7477 -0.5773 -1.1407
  182SLPC   H5R20854   2.080   1.309  10.015  0.6798  0.5645  1.0930
  182SLPC   H5S20855   2.134   1.165   9.924 -1.4929 -0.6337 -0.6522
  182SLPC   C2620856   2.254   1.355   9.903  0.7853 -0.2896 -0.5850
  182SLPC   H6R20857   2.352   1.318   9.864  0.9677 -0.6298  0.1968
  182SLPC   H6S20858   2.281   1.433   9.977 -0.2594  0.0607 -0.5692
  182SLPC   C2720859   2.177   1.414   9.788  0.2348  0.1436  0.4792
  182SLPC   H7R20860   2.069   1.426   9.810  0.0434  1.6127 -1.2328
  182SLPC   H7S20861   2.176   1.338   9.706  0.4485 -1.9385  2.3461
  182SLPC   C2820862   2.237   1.543   9.734  0.0654 -0.5143 -1.0028
  182SLPC   H8R20863   2.226   1.607   9.823  1.1692 -2.3473  0.5063
  182SLPC   H8S20864   2.174   1.584   9.652 -1.8381  0.5651  0.9679
  182SLPC   C2920865   2.382   1.532   9.689  0.5264  0.4215  0.5855
  182SLPC   H9R20866   2.442   1.454   9.738  1.4344  0.1523 -0.9144
  182SLPC  C21020867   2.448   1.608   9.600 -0.2536 -0.4154 -0.3451
  182SLPC  H10R20868   2.549   1.578   9.570  0.9007  0.0250  2.8899
  182SLPC  C21120869   2.399   1.732   9.532 -0.5133 -0.1449  0.2874
  182SLPC  H11R20870   2.483   1.806   9.524 -1.1367  0.3335 -2.7758
  182SLPC  H11S20871   2.330   1.784   9.601 -0.8657  2.4541 -1.9044
  182SLPC  C21220872   2.327   1.703   9.398 -0.5015 -0.3584  1.4722
  182SLPC  H12R20873   2.231   1.650   9.412 -1.8988  1.0261 -2.2874
  182SLPC  C21320874   2.354   1.742   9.271 -0.1999 -1.5127  0.0965
  182SLPC  H13R20875   2.301   1.688   9.191  1.0291 -3.1070  0.3100
  182SLPC  C21420876   2.474   1.822   9.227  0.5765  0.1526 -0.1242
  182SLPC  H14R20877   2.554   1.753   9.194 -0.4177 -0.0640 -2.1912
  182SLPC  H14S20878   2.515   1.882   9.310 -1.1767 -0.8686  1.5206
  182SLPC  C21520879   2.462   1.929   9.111 -0.3704 -0.6237 -0.3770
  182SLPC  H15R20880   2.558   1.983   9.096 -0.0052 -1.4272 -0.9858
  182SLPC  H15S20881   2.373   1.992   9.132  1.1557  1.7802 -0.9077
  182SLPC  C21620882   2.436   1.852   8.973  0.3007  0.2083 -0.0534
  182SLPC  H16R20883   2.360   1.771   8.980 -1.1246  1.7888  4.4333
  182SLPC  H16S20884   2.532   1.813   8.933  0.7702 -0.6413  1.8245
  182SLPC  C21720885   2.385   1.957   8.872  0.3165 -0.2563  0.5356
  182SLPC  H17R20886   2.444   2.050   8.878  1.8321 -1.1156 -0.7834
  182SLPC  H17S20887   2.280   1.992   8.884  0.6688  1.7889 -2.0023
  182SLPC  C21820888   2.398   1.920   8.723  0.7587 -0.1321  0.0891
  182SLPC  H18R20889   2.335   1.834   8.690  0.6070  0.0543 -0.1080
  182SLPC  H18S20890   2.502   1.894   8.695  0.1028 -2.0056 -0.7476
  182SLPC  H18T20891   2.373   2.008   8.660  2.3926  1.4584  1.6369
  182SLPC   C3320892   2.621   1.584  10.009  0.2551  0.0875  0.6991
  182SLPC   H3X20893   2.685   1.654  10.067 -0.8953  3.5376 -1.9911
  182SLPC   H3Y20894   2.534   1.650   9.990 -0.6586 -1.4933 -0.7180
  182SLPC   C3420895   2.702   1.537   9.886  0.8050  0.3074 -0.1978
  182SLPC   H4X20896   2.627   1.493   9.816 -0.6527 -0.9451  2.0858
  182SLPC   H4Y20897   2.779   1.464   9.919  0.4323  0.6127  1.3967
  182SLPC   C3520898   2.768   1.653   9.813  0.4032  0.2784 -0.3432
  182SLPC   H5X20899   2.849   1.702   9.872  1.6536 -1.8115 -0.2818
  182SLPC   H5Y20900   2.690   1.731   9.798 -1.2207 -1.3600 -0.5759
  182SLPC   C3620901   2.831   1.602   9.684  0.6081  0.0909  0.7394
  182SLPC   H6X20902   2.778   1.512   9.645 -0.1096  1.3361 -1.2185
  182SLPC   H6Y20903   2.932   1.556   9.692  2.2593  3.4318 -0.1942
  182SLPC   C3720904   2.827   1.707   9.569 -0.6069 -0.0423 -0.3217
  182SLPC   H7X20905   2.900   1.788   9.589  1.5795 -2.4283  1.6554
  182SLPC   H7Y20906   2.726   1.752   9.572 -0.8520 -0.6515  0.5798
  182SLPC   C3820907   2.863   1.645   9.429  0.1476  0.1186 -0.2600
  182SLPC   H8X20908   2.795   1.561   9.400  0.1021  0.4503 -1.1211
  182SLPC   H8Y20909   2.965   1.603   9.441 -0.4939 -1.2258  0.6755
  182SLPC   C3920910   2.857   1.756   9.328 -1.1570  0.8292  0.6301
  182SLPC   H9X20911   2.917   1.842   9.364  3.7199 -2.0839 -0.1242
  182SLPC   H9Y20912   2.751   1.788   9.317 -1.4735  0.3385  2.1987
  182SLPC  C31020913   2.908   1.725   9.186 -0.3813  0.6314  0.2842
  182SLPC  H10X20914   2.855   1.638   9.142 -2.5301  0.8253  2.3804
  182SLPC  H10Y20915   3.019   1.723   9.190 -0.3627 -3.2300 -0.8236
  182SLPC  C31120916   2.875   1.836   9.079  0.7014 -0.4718 -0.3053
  182SLPC  H11X20917   2.937   1.925   9.107  0.8443 -0.8267  0.5116
  182SLPC  H11Y20918   2.771   1.875   9.079  0.7353 -0.3753 -0.7741
  182SLPC  C31220919   2.919   1.801   8.939 -1.0310 -0.7941 -0.0231
  182SLPC  H12X20920   2.842   1.739   8.888 -0.7264 -1.0484 -0.1747
  182SLPC  H12Y20921   3.014   1.745   8.935  0.1652  1.1884 -0.1011
  182SLPC  C31320922   2.941   1.924   8.841  0.1559 -0.0554  0.0678
  182SLPC  H13X20923   2.978   1.897   8.740  0.3621  1.8758 -0.3896
  182SLPC  H13Y20924   3.023   1.983   8.889  0.4278 -0.8917  0.6391
  182SLPC  C31420925   2.811   2.009   8.825  0.3551  0.0720  0.0360
  182SLPC  H14X20926   2.793   2.063   8.921 -1.2979  0.5796 -0.5451
  182SLPC  H14Y20927   2.725   1.940   8.820 -1.2529  2.0082  0.3151
  182SLPC  C31520928   2.818   2.104   8.706 -0.4569  0.3903 -0.4121
  182SLPC  H15X20929   2.730   2.172   8.707 -1.6976 -1.1607 -0.0655
  182SLPC  H15Y20930   2.807   2.042   8.614 -0.5786 -0.7049  0.3276
  182SLPC  C31620931   2.952   2.192   8.690  0.8552  0.4141  0.2231
  182SLPC  H16X20932   3.031   2.116   8.673 -0.9592 -1.5843  0.3201
  182SLPC  H16Y20933   2.969   2.244   8.787 -2.6744  1.8679  0.1435
  182SLPC  C31720934   2.957   2.291   8.571  0.1840  0.2583  0.5312
  182SLPC  H17X20935   2.922   2.234   8.483  1.3699  0.7647 -0.2739
  182SLPC  H17Y20936   3.060   2.328   8.553  0.2257  0.1265  0.4998
  182SLPC  C31820937   2.871   2.417   8.589 -0.1525  0.0677  0.0467
  182SLPC  H18X20938   2.763   2.390   8.590 -0.4219  1.1242  0.2233
  182SLPC  H18Y20939   2.890   2.485   8.504 -0.5906 -1.1910 -1.0654
  182SLPC  H18Z20940   2.888   2.465   8.688  0.0573  1.0257 -0.4544
  183SLPC     N20941   4.187   2.315  11.136 -0.0779  0.7851  0.8962
  183SLPC   C1320942   4.248   2.438  11.205  0.6976  0.4172 -0.7162
  183SLPC  H13A20943   4.355   2.424  11.206  0.4890 -1.3202  1.7597
  183SLPC  H13B20944   4.222   2.530  11.156  0.2146  0.9554  0.5380
  183SLPC  H13C20945   4.218   2.442  11.309  1.4533  0.5549 -0.5024
  183SLPC   C1420946   4.035   2.319  11.163  0.0173  0.4152  0.5433
  183SLPC  H14A20947   3.998   2.291  11.261  2.1770  0.7899  1.4823
  183SLPC  H14B20948   3.996   2.419  11.158  1.6245  1.0092 -0.5855
  183SLPC  H14C20949   3.984   2.252  11.094 -0.0088  0.9135  0.0786
  183SLPC   C1520950   4.253   2.192  11.182 -0.5482  0.4816  0.0059
  183SLPC  H15A20951   4.361   2.191  11.182 -0.5458 -0.4963  0.9755
  183SLPC  H15B20952   4.234   2.172  11.287 -2.6442  1.0751 -0.2334
  183SLPC  H15C20953   4.220   2.107  11.123  0.2853  1.3545 -1.7406
  183SLPC   C1220954   4.210   2.326  10.980 -0.1789  0.4071 -0.3556
  183SLPC  H12A20955   4.181   2.231  10.937 -1.8150  0.1287  1.2907
  183SLPC  H12B20956   4.316   2.332  10.963 -0.2764  0.2602 -1.0070
  183SLPC   C1120957   4.149   2.443  10.902  0.0146  0.4426  0.4823
  183SLPC  H11A20958   4.038   2.438  10.901  0.0315 -0.0768 -2.0996
  183SLPC  H11B20959   4.192   2.436  10.800 -1.3655  1.5009 -0.1830
  183SLPC     P20960   4.328   2.639  10.918 -0.6613  0.0721  0.4452
  183SLPC   O1320961   4.328   2.776  10.982  0.0089 -0.0739  0.6062
  183SLPC   O1420962   4.439   2.554  10.957 -0.3416 -0.1434 -0.0519
  183SLPC   O1220963   4.189   2.568  10.955  0.3000 -0.3124  0.7498
  183SLPC   O1120964   4.326   2.649  10.759 -0.3014 -0.3264  0.2127
  183SLPC    C120965   4.225   2.720  10.688  0.3142  0.3143 -0.4467
  183SLPC    HA20966   4.129   2.665  10.683  0.1352  0.5601  0.2196
  183SLPC    HB20967   4.201   2.817  10.737  0.2017 -1.5956  3.5329
  183SLPC    C220968   4.270   2.749  10.547 -0.0123 -0.5074 -0.5768
  183SLPC    HS20969   4.176   2.754  10.488 -0.2264 -0.7314 -0.2534
  183SLPC   O2120970   4.358   2.649  10.503 -0.2579 -0.4871  0.1025
  183SLPC   C2120971   4.304   2.532  10.486 -0.2834  0.1069 -0.8809
  183SLPC   O2220972   4.183   2.505  10.484  0.1125 -0.2902  0.0898
  183SLPC   C2220973   4.419   2.435  10.444 -0.2773 -0.1945  0.0560
  183SLPC   H2R20974   4.510   2.453  10.506  0.1435  0.4549 -0.7337
  183SLPC   H2S20975   4.388   2.330  10.460  1.8549 -0.6864  1.0504
  183SLPC    C320976   4.334   2.887  10.514 -0.6355  1.1590 -0.0686
  183SLPC    HX20977   4.434   2.907  10.561  0.7540 -1.4721 -1.7808
  183SLPC    HY20978   4.260   2.964  10.546  0.1211  1.8810 -0.0220
  183SLPC   O3120979   4.334   2.900  10.370 -0.0744  0.1836 -0.3036
  183SLPC   C3120980   4.415   2.991  10.329  0.1915  0.2862  0.0552
  183SLPC   O3220981   4.480   3.067  10.392  0.4684  0.3102  0.2995
  183SLPC   C3220982   4.412   2.985  10.173 -0.1615  0.0393  0.6891
  183SLPC   H2X20983   4.496   3.047  10.136  0.4239 -2.1327 -1.7643
  183SLPC   H2Y20984   4.324   3.049  10.149  1.6425  2.2783 -0.0909
  183SLPC   C2320985   4.448   2.453  10.289  0.5305  0.0096  0.1455
  183SLPC   H3R20986   4.549   2.412  10.271  0.7438  0.5376  0.1328
  183SLPC   H3S20987   4.451   2.563  10.277  2.9369  0.3040  2.9503
  183SLPC   C2420988   4.343   2.396  10.186  0.2357 -0.0158 -0.4488
  183SLPC   H4R20989   4.304   2.481  10.127  2.1483  1.6127  0.5745
  183SLPC   H4S20990   4.258   2.367  10.252  1.2807 -0.3420  0.7833
  183SLPC   C2520991   4.393   2.271  10.113 -0.4724  0.6096 -0.5313
  183SLPC   H5R20992   4.309   2.215  10.067  0.8164  1.4517 -4.0772
  183SLPC   H5S20993   4.438   2.201  10.187 -1.6083 -0.1716 -0.5593
  183SLPC   C2620994   4.502   2.288  10.007 -0.0042  0.3964  1.3697
  183SLPC   H6R20995   4.595   2.338  10.044  2.0136 -2.7304  0.7117
  183SLPC   H6S20996   4.453   2.344   9.924  3.3057 -0.4074 -1.2699
  183SLPC   C2720997   4.539   2.153   9.942  0.4573  0.5057 -0.1089
  183SLPC   H7R20998   4.445   2.097   9.923 -0.6803  2.9408 -1.9845
  183SLPC   H7S20999   4.590   2.093  10.020 -0.8509  0.0309  0.3998
  183SLPC   C2821000   4.630   2.148   9.813 -0.4193 -0.2325 -0.7716
  183SLPC   H8R21001   4.657   2.042   9.797  0.4640 -0.1498  0.1049
  183SLPC   H8S21002   4.723   2.202   9.841 -0.3650 -1.3103  1.2675
  183SLPC   C2921003   4.563   2.210   9.694 -0.7309 -0.9596  0.3295
  183SLPC   H9R21004   4.594   2.315   9.684 -1.2980 -0.8445 -0.2756
  183SLPC  C21021005   4.506   2.149   9.593  0.7574  0.7024  0.6692
  183SLPC  H10R21006   4.458   2.199   9.508  0.5524  2.0265  1.5555
  183SLPC  C21121007   4.486   1.998   9.577 -0.7945  0.0304  0.2653
  183SLPC  H11R21008   4.397   1.981   9.641 -2.1222 -1.9761 -1.9989
  183SLPC  H11S21009   4.570   1.936   9.615 -0.0084  0.4631 -0.7423
  183SLPC  C21221010   4.439   1.945   9.442  0.5750 -0.0285 -0.4718
  183SLPC  H12R21011   4.522   1.908   9.380  0.2943 -2.4052  0.5471
  183SLPC  C21321012   4.313   1.929   9.392  0.6589 -0.3167 -0.2697
  183SLPC  H13R21013   4.304   1.884   9.292  0.5665 -0.4082 -0.2199
  183SLPC  C21421014   4.180   1.966   9.449 -0.1178 -0.0564  0.3024
  183SLPC  H14R21015   4.137   2.043   9.383  3.8220 -0.0319 -2.4394
  183SLPC  H14S21016   4.208   2.010   9.547  0.4728 -0.3609  0.2721
  183SLPC  C21521017   4.080   1.848   9.468  0.6083  0.2563 -0.2159
  183SLPC  H15R21018   4.002   1.885   9.538  0.9559 -0.0058  0.3135
  183SLPC  H15S21019   4.127   1.761   9.519 -0.2323  0.1243  0.3431
  183SLPC  C21621020   4.008   1.814   9.342  0.1635  0.6931  0.2997
  183SLPC  H16R21021   4.079   1.791   9.260  0.5882 -0.9182  1.0818
  183SLPC  H16S21022   3.940   1.895   9.308  3.2478  1.9947 -3.1409
  183SLPC  C21721023   3.921   1.680   9.348 -0.4966 -0.1777  0.5465
  183SLPC  H17R21024   3.850   1.687   9.434  0.2798  1.6883  1.0465
  183SLPC  H17S21025   3.991   1.597   9.372  0.9671  1.0266  0.5312
  183SLPC  C21821026   3.860   1.649   9.212  0.0190 -0.2649 -0.2783
  183SLPC  H18R21027   3.799   1.736   9.182 -0.5275 -1.0826 -1.5632
  183SLPC  H18S21028   3.794   1.559   9.218 -0.3016 -0.3058 -3.6979
  183SLPC  H18T21029   3.941   1.628   9.140  0.1985 -0.3907 -0.0413
  183SLPC   C3321030   4.424   2.845  10.110 -0.6026  0.3144 -0.7899
  183SLPC   H3X21031   4.354   2.776  10.162  0.1002 -1.1405 -1.7557
  183SLPC   H3Y21032   4.530   2.813  10.106  0.3965  3.2577  0.6816
  183SLPC   C3421033   4.363   2.848   9.967  0.2984 -0.0838  0.0872
  183SLPC   H4X21034   4.435   2.909   9.909  1.0818  0.9266  2.0784
  183SLPC   H4Y21035   4.265   2.900   9.970  0.5633  0.4789 -0.8871
  183SLPC   C3521036   4.358   2.706   9.896 -0.6584  0.0205 -0.3566
  183SLPC   H5X21037   4.285   2.647   9.955 -0.0980  2.5463  2.9791
  183SLPC   H5Y21038   4.455   2.653   9.886  0.0624  1.5512 -1.8465
  183SLPC   C3621039   4.300   2.719   9.753  0.0041  0.1084 -0.5715
  183SLPC   H6X21040   4.379   2.768   9.691 -0.5172  2.0997  0.2864
  183SLPC   H6Y21041   4.212   2.786   9.761  1.4572  2.0137  0.0462
  183SLPC   C3721042   4.246   2.595   9.694 -0.3915  0.2091  0.4397
  183SLPC   H7X21043   4.159   2.553   9.749 -1.3584  0.1810 -1.0786
  183SLPC   H7Y21044   4.329   2.521   9.695 -0.5478  0.0307  0.3445
  183SLPC   C3821045   4.190   2.605   9.549  0.0246 -0.0192  0.4715
  183SLPC   H8X21046   4.267   2.656   9.488 -0.8091  0.0636 -0.5143
  183SLPC   H8Y21047   4.099   2.669   9.547 -0.4336 -0.7051 -1.5349
  183SLPC   C3921048   4.177   2.468   9.485  0.3519 -0.2502 -0.0077
  183SLPC   H9X21049   4.093   2.413   9.534 -0.6957  0.9445 -0.4341
  183SLPC   H9Y21050   4.275   2.417   9.494 -0.1953 -1.4128 -0.4271
  183SLPC  C31021051   4.159   2.467   9.333 -0.4414  0.2501 -0.5183
  183SLPC  H10X21052   4.246   2.513   9.283  0.8884 -1.2828  0.3467
  183SLPC  H10Y21053   4.069   2.530   9.316 -0.3387 -0.1189 -2.4718
  183SLPC  C31121054   4.155   2.322   9.278  0.2031 -0.1542  0.3487
  183SLPC  H11X21055   4.065   2.268   9.315 -0.6790 -0.5359 -2.2698
  183SLPC  H11Y21056   4.241   2.260   9.313  0.4047  0.5727  1.1788
  183SLPC  C31221057   4.157   2.314   9.123 -0.1632  0.0802 -0.2947
  183SLPC  H12X21058   4.235   2.380   9.079 -3.0078  2.1351 -2.4974
  183SLPC  H12Y21059   4.060   2.365   9.105 -0.7985 -0.7584  0.7417
  183SLPC  C31321060   4.149   2.178   9.054 -0.3091 -0.4889 -0.2955
  183SLPC  H13X21061   4.126   2.174   8.945 -0.4873 -5.0058 -0.1627
  183SLPC  H13Y21062   4.065   2.127   9.105 -0.0671 -0.6411 -0.0468
  183SLPC  C31421063   4.272   2.087   9.070  0.1095  0.6804 -0.6592
  183SLPC  H14X21064   4.281   2.080   9.181 -0.9496  0.0792 -0.5954
  183SLPC  H14Y21065   4.356   2.154   9.043  0.3092  1.7642  2.4639
  183SLPC  C31521066   4.263   1.953   9.005 -0.1929 -0.5782 -1.0053
  183SLPC  H15X21067   4.228   1.965   8.901  1.8438  0.5031 -1.6012
  183SLPC  H15Y21068   4.185   1.900   9.063  0.1950 -1.6363 -1.4395
  183SLPC  C31621069   4.395   1.874   9.020  0.5047 -0.0595  0.4403
  183SLPC  H16X21070   4.427   1.861   9.126  1.2189 -2.4758 -0.0397
  183SLPC  H16Y21071   4.467   1.926   8.954  0.5626  0.6034  1.0249
  183SLPC  C31721072   4.379   1.727   8.975  0.0857  0.0695  0.4373
  183SLPC  H17X21073   4.473   1.689   8.931 -0.9696  0.4362 -2.2544
  183SLPC  H17Y21074   4.296   1.717   8.902  0.4735 -0.3821  0.0594
  183SLPC  C31821075   4.347   1.632   9.088  0.3181  0.0542  0.1481
  183SLPC  H18X21076   4.320   1.532   9.048  0.5497 -0.8409  2.1633
  183SLPC  H18Y21077   4.258   1.673   9.140  1.0478  0.5144  1.0350
  183SLPC  H18Z21078   4.421   1.623   9.170 -1.1351 -1.8764  1.2698
  184SLPC     N21079   6.173   6.221  10.640 -0.0180 -0.1977  0.3725
  184SLPC   C1321080   6.047   6.162  10.686 -0.1825  0.9450 -0.7126
  184SLPC  H13A21081   6.029   6.144  10.791  1.7503  1.0254 -0.3619
  184SLPC  H13B21082   5.955   6.201  10.644 -0.6334  0.6543  0.0008
  184SLPC  H13C21083   6.050   6.062  10.648  2.0144  1.3944 -1.7739
  184SLPC   C1421084   6.194   6.188  10.494  0.0974  0.2707 -0.1483
  184SLPC  H14A21085   6.188   6.081  10.485  2.4180  0.1533 -0.8367
  184SLPC  H14B21086   6.122   6.216  10.419 -0.1125  0.2124  0.0324
  184SLPC  H14C21087   6.293   6.217  10.461  0.4755 -1.0152 -0.1396
  184SLPC   C1521088   6.276   6.151  10.716 -0.2331 -0.9471 -0.7293
  184SLPC  H15A21089   6.368   6.201  10.690 -0.5196 -0.6455 -1.1751
  184SLPC  H15B21090   6.264   6.169  10.821  1.6183 -0.1007 -0.6539
  184SLPC  H15C21091   6.284   6.046  10.689 -0.0420 -1.0779 -0.1572
  184SLPC   C1221092   6.175   6.366  10.657 -0.1601 -0.2939 -0.0991
  184SLPC  H12A21093   6.279   6.392  10.644 -0.1752  0.1354  0.5892
  184SLPC  H12B21094   6.142   6.397  10.755  2.0907  0.2834  0.5180
  184SLPC   C1121095   6.091   6.449  10.564  0.6312 -0.7340  0.0357
  184SLPC  H11A21096   5.987   6.439  10.601 -0.0409 -0.4015 -1.7209
  184SLPC  H11B21097   6.085   6.421  10.457  1.8672 -2.2408  0.3271
  184SLPC     P21098   6.215   6.649  10.471  0.0375 -0.4328  0.2506
  184SLPC   O1321099   6.197   6.800  10.488  0.3276 -0.6430 -0.2434
  184SLPC   O1421100   6.351   6.590  10.467 -0.5315 -0.1425 -0.0191
  184SLPC   O1221101   6.129   6.582  10.582 -0.5034 -0.4537  0.1160
  184SLPC   O1121102   6.139   6.614  10.333 -0.1187 -0.4122 -0.4170
  184SLPC    C121103   6.162   6.672  10.205  0.4223  0.2086 -0.2643
  184SLPC    HA21104   6.062   6.683  10.159  0.6969 -1.2769 -1.2541
  184SLPC    HB21105   6.202   6.776  10.211  1.5891 -0.3224  1.8358
  184SLPC    C221106   6.251   6.582  10.113  0.6064 -0.1773 -0.4846
  184SLPC    HS21107   6.225   6.478  10.140 -3.4116  0.8208 -0.2671
  184SLPC   O2121108   6.390   6.612  10.133  0.4973 -0.1928 -0.2775
  184SLPC   C2121109   6.473   6.514  10.110 -0.0688  1.1629  0.3340
  184SLPC   O2221110   6.449   6.394  10.102  0.6303 -0.2701 -0.7117
  184SLPC   C2221111   6.615   6.566  10.087  0.1821 -0.5734  0.0296
  184SLPC   H2R21112   6.623   6.672  10.116  2.4007 -0.1212 -2.0694
  184SLPC   H2S21113   6.694   6.515  10.146  1.3384  1.4296  0.2177
  184SLPC    C321114   6.215   6.604   9.962  0.3867  0.0573 -0.1412
  184SLPC    HX21115   6.277   6.689   9.926  0.3074  1.2581  2.4649
  184SLPC    HY21116   6.106   6.617   9.950  0.3785 -2.3471 -3.5119
  184SLPC   O3121117   6.259   6.487   9.886  0.7978 -0.1122 -0.0963
  184SLPC   C3121118   6.191   6.469   9.772 -0.3247 -0.6998 -0.6472
  184SLPC   O3221119   6.086   6.523   9.744 -0.1476 -0.0129  0.5614
  184SLPC   C3221120   6.268   6.380   9.671  0.0457  0.1968 -0.3932
  184SLPC   H2X21121   6.245   6.432   9.576 -0.8922 -0.6928 -0.6646
  184SLPC   H2Y21122   6.214   6.283   9.664  0.1911  0.3054 -3.4663
  184SLPC   C2321123   6.647   6.549   9.936 -0.0482  0.1348 -0.3156
  184SLPC   H3R21124   6.568   6.592   9.872  0.6642 -1.3318 -2.2240
  184SLPC   H3S21125   6.650   6.439   9.917 -1.5198  0.0927 -0.2982
  184SLPC   C2421126   6.786   6.607   9.907  0.0303  0.2451  0.5282
  184SLPC   H4R21127   6.855   6.568   9.985  0.1880  0.3475  0.4419
  184SLPC   H4S21128   6.784   6.717   9.920  0.5267  0.1913  1.1127
  184SLPC   C2521129   6.844   6.566   9.772  0.2445  0.0928  0.4000
  184SLPC   H5R21130   6.847   6.455   9.774 -2.7974 -0.1614 -2.5356
  184SLPC   H5S21131   6.950   6.597   9.776 -0.4694  2.5175  1.6155
  184SLPC   C2621132   6.771   6.626   9.655 -0.6864  0.7102  0.2878
  184SLPC   H6R21133   6.788   6.736   9.647  2.5253  0.3144  0.7126
  184SLPC   H6S21134   6.663   6.611   9.675 -0.2008 -0.6065  2.0344
  184SLPC   C2721135   6.820   6.568   9.528  0.6772 -0.0282 -0.1532
  184SLPC   H7R21136   6.827   6.458   9.540 -0.0068 -0.0988 -0.3792
  184SLPC   H7S21137   6.928   6.593   9.515  0.4918  1.8187  1.5892
  184SLPC   C2821138   6.735   6.608   9.404  0.3442  0.5305 -0.0822
  184SLPC   H8R21139   6.632   6.604   9.445  0.7136  2.9235  1.0981
  184SLPC   H8S21140   6.750   6.530   9.326 -1.0209 -0.5318  0.6806
  184SLPC   C2921141   6.761   6.750   9.355 -0.4504 -0.5318  0.1361
  184SLPC   H9R21142   6.708   6.832   9.404  2.5829  0.8650  1.2405
  184SLPC  C21021143   6.813   6.784   9.236  0.4462 -0.3969 -0.2799
  184SLPC  H10R21144   6.796   6.891   9.216 -1.3991 -0.3343  1.4715
  184SLPC  C21121145   6.876   6.691   9.136  1.0871  0.5130 -0.1176
  184SLPC  H11R21146   6.795   6.662   9.066 -1.0006  2.5875  1.3593
  184SLPC  H11S21147   6.904   6.604   9.199  0.3154  0.5768  0.3172
  184SLPC  C21221148   6.987   6.750   9.046 -0.4678 -0.3112 -0.3728
  184SLPC  H12R21149   7.070   6.779   9.112 -0.5104  2.0616 -1.2920
  184SLPC  C21321150   6.982   6.788   8.915  0.0442 -0.7044  0.1096
  184SLPC  H13R21151   7.076   6.812   8.862 -1.5496  2.7102 -1.3374
  184SLPC  C21421152   6.860   6.768   8.826  0.1610 -0.3414  0.2155
  184SLPC  H14R21153   6.773   6.771   8.896  0.5285  1.6149  0.6131
  184SLPC  H14S21154   6.859   6.673   8.769  0.9804 -0.8541  1.0457
  184SLPC  C21521155   6.825   6.878   8.725  0.3840 -0.0061 -0.3682
  184SLPC  H15R21156   6.798   6.972   8.777 -0.9819  0.2666 -1.5338
  184SLPC  H15S21157   6.745   6.838   8.659  3.0841 -1.5117 -2.8439
  184SLPC  C21621158   6.936   6.905   8.627  0.0421  0.8370  0.2356
  184SLPC  H16R21159   6.955   6.807   8.578  0.8249  1.1767 -0.1395
  184SLPC  H16S21160   7.026   6.956   8.667  0.9724 -1.1319  0.7287
  184SLPC  C21721161   6.900   7.002   8.513 -0.4565 -0.4474 -0.6291
  184SLPC  H17R21162   6.794   6.986   8.485 -1.1751  0.6966  1.3673
  184SLPC  H17S21163   6.954   6.969   8.421 -0.1479  4.9701 -2.5844
  184SLPC  C21821164   6.923   7.147   8.547  0.2530 -0.1109 -0.1245
  184SLPC  H18R21165   6.914   7.209   8.456 -1.4576 -0.0824  0.0496
  184SLPC  H18S21166   7.024   7.169   8.587  0.5510 -0.0340 -0.9115
  184SLPC  H18T21167   6.861   7.186   8.631 -0.6748 -2.4752  0.3432
  184SLPC   C3321168   6.421   6.366   9.688 -0.1165 -0.8621 -0.5381
  184SLPC   H3X21169   6.451   6.323   9.786  1.3374 -1.0461 -1.0576
  184SLPC   H3Y21170   6.483   6.457   9.677 -0.7420 -0.3514  0.0951
  184SLPC   C3421171   6.475   6.272   9.586  0.4015  0.0674 -0.0515
  184SLPC   H4X21172   6.396   6.195   9.569  1.2113 -0.8441  0.2835
  184SLPC   H4Y21173   6.563   6.217   9.626  2.1074  2.0793 -0.9185
  184SLPC   C3521174   6.516   6.346   9.460  0.2659  0.1509 -0.2428
  184SLPC   H5X21175   6.622   6.374   9.478  0.3218 -1.1726  1.6693
  184SLPC   H5Y21176   6.452   6.433   9.434 -3.0632 -1.7835  1.1985
  184SLPC   C3621177   6.498   6.251   9.339 -1.3252 -0.1323  0.3021
  184SLPC   H6X21178   6.388   6.235   9.336 -1.6888  1.9984  1.1720
  184SLPC   H6Y21179   6.563   6.164   9.361  0.8015  0.2665 -3.8339
  184SLPC   C3721180   6.546   6.317   9.211 -0.1711  0.3055  0.8593
  184SLPC   H7X21181   6.650   6.356   9.211  0.1414 -0.5239  0.7404
  184SLPC   H7Y21182   6.479   6.403   9.187  0.5133  0.4702 -0.5245
  184SLPC   C3821183   6.531   6.213   9.094 -0.0237  0.2403 -0.7280
  184SLPC   H8X21184   6.426   6.204   9.060  0.2544 -1.0462 -1.2893
  184SLPC   H8Y21185   6.562   6.112   9.128 -0.2744 -0.0276 -1.2859
  184SLPC   C3921186   6.610   6.250   8.962 -0.1822  0.0331  0.1527
  184SLPC   H9X21187   6.633   6.166   8.894  2.2342  0.0940  0.8408
  184SLPC   H9Y21188   6.715   6.259   8.997  0.0023  0.6071 -0.5238
  184SLPC  C31021189   6.579   6.378   8.888  0.1404  0.7449 -0.4590
  184SLPC  H10X21190   6.658   6.399   8.813 -1.4613 -0.6196 -2.6177
  184SLPC  H10Y21191   6.568   6.465   8.955  3.0000 -1.0795  2.5361
  184SLPC  C31121192   6.449   6.357   8.800 -0.2921  0.0242 -0.2670
  184SLPC  H11X21193   6.374   6.353   8.883  1.9104  0.9624  1.8138
  184SLPC  H11Y21194   6.451   6.260   8.745 -0.5407  1.0462 -2.0954
  184SLPC  C31221195   6.416   6.467   8.698 -0.4292 -0.6722 -0.8085
  184SLPC  H12X21196   6.486   6.438   8.616  1.6310  1.0127  0.2935
  184SLPC  H12Y21197   6.457   6.564   8.732 -2.2671  0.3414 -1.4507
  184SLPC  C31321198   6.267   6.484   8.661  1.0211 -0.4716  0.2718
  184SLPC  H13X21199   6.224   6.382   8.646 -0.3656 -0.1314  1.7135
  184SLPC  H13Y21200   6.262   6.538   8.564  1.0923  0.1393  0.6057
  184SLPC  C31421201   6.172   6.559   8.763 -0.4556 -0.1656  0.1444
  184SLPC  H14X21202   6.217   6.656   8.792 -0.4501  0.4399 -1.7681
  184SLPC  H14Y21203   6.163   6.489   8.848 -2.3548 -1.9804 -1.5065
  184SLPC  C31521204   6.029   6.581   8.708  0.2347  0.2948  0.7546
  184SLPC  H15X21205   5.988   6.480   8.684 -1.2437  1.4248 -1.6107
  184SLPC  H15Y21206   6.034   6.633   8.610 -4.2186 -3.4095 -1.6245
  184SLPC  C31621207   5.943   6.665   8.801 -0.2307  0.0680 -0.1464
  184SLPC  H16X21208   5.843   6.676   8.754 -0.3909 -1.5461 -0.2204
  184SLPC  H16Y21209   5.987   6.762   8.832 -1.2100  0.1101  1.1606
  184SLPC  C31721210   5.901   6.599   8.938 -0.8010  0.3288 -0.3246
  184SLPC  H17X21211   5.991   6.586   9.001  1.0570  1.3916 -2.6790
  184SLPC  H17Y21212   5.860   6.500   8.910 -1.4178  0.8886 -1.4605
  184SLPC  C31821213   5.790   6.678   9.012  0.0501 -0.3750 -0.3683
  184SLPC  H18X21214   5.769   6.647   9.116  0.3650  2.1507  0.4829
  184SLPC  H18Y21215   5.692   6.670   8.959  0.3505 -0.6982 -0.8852
  184SLPC  H18Z21216   5.823   6.784   9.019 -2.4762  0.4098  0.4015
  185SLPC     N21217   3.791   1.597   6.500  0.8958  0.3718 -0.6506
  185SLPC   C1321218   3.925   1.564   6.553  0.0994 -1.3285 -0.0681
  185SLPC  H13A21219   3.985   1.654   6.561 -1.9727  0.1819 -1.2288
  185SLPC  H13B21220   3.924   1.520   6.651 -0.0007  1.8502  1.4368
  185SLPC  H13C21221   3.965   1.489   6.486  3.2059 -0.6793  0.9559
  185SLPC   C1421222   3.716   1.464   6.485  0.7692  0.0567 -0.1404
  185SLPC  H14A21223   3.610   1.476   6.472  1.0714  0.8513 -2.0002
  185SLPC  H14B21224   3.759   1.408   6.403  2.5611 -2.6923  2.5503
  185SLPC  H14C21225   3.721   1.397   6.570 -1.5777 -1.6722 -1.2886
  185SLPC   C1521226   3.805   1.667   6.372 -0.0196  0.6873 -0.4685
  185SLPC  H15A21227   3.855   1.601   6.302  1.3723  0.7133  0.4756
  185SLPC  H15B21228   3.707   1.696   6.339 -0.3077 -1.2457 -1.3829
  185SLPC  H15C21229   3.860   1.756   6.398 -0.7350  0.7898  0.7640
  185SLPC   C1221230   3.712   1.690   6.598  0.4487  0.0864  0.1464
  185SLPC  H12A21231   3.678   1.632   6.683 -0.5146 -0.9092 -0.8980
  185SLPC  H12B21232   3.625   1.731   6.548  0.3639  1.5158  1.4506
  185SLPC   C1121233   3.783   1.821   6.650 -0.1631  0.3223  0.0456
  185SLPC  H11A21234   3.867   1.791   6.716 -2.2915 -0.6201  2.3895
  185SLPC  H11B21235   3.718   1.866   6.728  2.8326  0.5805  2.4542
  185SLPC     P21236   3.702   2.026   6.495 -0.3517 -0.4829 -0.0705
  185SLPC   O1321237   3.768   2.163   6.506  0.6023  0.1076 -0.3038
  185SLPC   O1421238   3.660   1.991   6.356  0.1596  0.2261  0.3568
  185SLPC   O1221239   3.813   1.919   6.556 -0.4919 -0.0831 -0.2577
  185SLPC   O1121240   3.582   2.004   6.582 -0.7940 -0.0803 -0.1718
  185SLPC    C121241   3.515   2.108   6.660  0.1990  0.2901 -0.3159
  185SLPC    HA21242   3.461   2.185   6.600 -1.3683  0.7929  1.6855
  185SLPC    HB21243   3.429   2.055   6.708 -0.6835 -0.6204 -2.8001
  185SLPC    C221244   3.595   2.166   6.779  0.6262 -0.0613 -0.6902
  185SLPC    HS21245   3.683   2.222   6.741  0.4511  0.0323 -0.9574
  185SLPC   O2121246   3.620   2.056   6.871 -0.5804  0.0925  0.1875
  185SLPC   C2121247   3.729   2.064   6.934  1.0209  0.4906 -0.1816
  185SLPC   O2221248   3.823   2.143   6.908 -0.4798  0.0086 -0.8803
  185SLPC   C2221249   3.738   1.958   7.043 -0.0426  0.4195 -0.1030
  185SLPC   H2R21250   3.650   1.890   7.048  1.3906 -1.4138  0.6860
  185SLPC   H2S21251   3.821   1.895   7.005  0.3933  0.4683  0.7552
  185SLPC    C321252   3.492   2.264   6.849 -0.5115 -0.1168  0.0695
  185SLPC    HX21253   3.411   2.195   6.882  0.0876 -1.1661 -0.6641
  185SLPC    HY21254   3.444   2.331   6.775  1.5778  1.9704  0.5401
  185SLPC   O3121255   3.557   2.331   6.965  0.3695  0.5746 -0.0617
  185SLPC   C3121256   3.612   2.440   6.938 -0.0385  0.6061  0.5082
  185SLPC   O3221257   3.623   2.488   6.827 -0.3663  0.0889  0.3386
  185SLPC   C3221258   3.659   2.507   7.066  0.0457  0.2167  0.0030
  185SLPC   H2X21259   3.579   2.522   7.141  1.4586  3.1839  0.9823
  185SLPC   H2Y21260   3.680   2.613   7.041 -0.9522  0.6221  0.8576
  185SLPC   C2321261   3.777   2.008   7.184  0.4518 -0.2454 -0.2616
  185SLPC   H3R21262   3.865   2.075   7.195  0.0849  0.1353  0.3673
  185SLPC   H3S21263   3.815   1.922   7.244  1.1324 -0.2452 -0.6788
  185SLPC   C2421264   3.663   2.063   7.273 -0.4247 -0.3880  0.1634
  185SLPC   H4R21265   3.579   1.991   7.280  0.6908 -1.7493 -0.2215
  185SLPC   H4S21266   3.629   2.155   7.220 -0.7253 -0.7587 -0.2897
  185SLPC   C2521267   3.705   2.097   7.416 -0.0767 -0.1459  0.8429
  185SLPC   H5R21268   3.796   2.159   7.398  0.8349 -1.7885 -0.4272
  185SLPC   H5S21269   3.737   2.003   7.465  0.3789 -0.1005  0.6438
  185SLPC   C2621270   3.585   2.162   7.490  0.4087 -0.0579 -0.1644
  185SLPC   H6R21271   3.499   2.092   7.481  0.5059  0.2403 -4.0782
  185SLPC   H6S21272   3.561   2.251   7.428 -1.0642  0.8271  1.6197
  185SLPC   C2721273   3.608   2.203   7.640  0.2010 -0.6073 -0.4530
  185SLPC   H7R21274   3.644   2.308   7.633  0.5077 -0.7468 -0.9555
  185SLPC   H7S21275   3.693   2.145   7.680 -0.0339 -0.8497 -0.2999
  185SLPC   C2821276   3.492   2.185   7.744  0.6542  0.4787 -0.0327
  185SLPC   H8R21277   3.403   2.222   7.689  1.3491 -0.1987 -1.6546
  185SLPC   H8S21278   3.529   2.247   7.829 -0.3841 -0.2275  0.9478
  185SLPC   C2921279   3.487   2.041   7.781  0.0164  0.1566 -0.3825
  185SLPC   H9R21280   3.552   1.971   7.726 -0.2083  0.0352 -0.4916
  185SLPC  C21021281   3.405   1.992   7.881 -0.2922  0.2959 -0.9418
  185SLPC  H10R21282   3.389   1.883   7.882  3.0565 -0.2600 -1.3145
  185SLPC  C21121283   3.319   2.074   7.968  0.3675 -0.1401  0.2279
  185SLPC  H11R21284   3.238   2.007   8.006 -0.2666  0.2700 -0.3907
  185SLPC  H11S21285   3.263   2.149   7.909 -0.7648 -1.7096 -0.7448
  185SLPC  C21221286   3.390   2.139   8.087  0.4636  0.0324  0.0225
  185SLPC  H12R21287   3.473   2.209   8.068 -0.0235  0.2634 -1.2913
  185SLPC  C21321288   3.356   2.124   8.217  0.3867  0.7605 -0.0077
  185SLPC  H13R21289   3.409   2.189   8.289  0.9663 -0.2221  0.4772
  185SLPC  C21421290   3.240   2.044   8.288  0.2222  0.1854 -0.0149
  185SLPC  H14R21291   3.254   1.934   8.295 -1.7203  0.0582  2.6681
  185SLPC  H14S21292   3.153   2.054   8.220 -0.2972  0.6379  0.7076
  185SLPC  C21521293   3.203   2.095   8.427 -0.0785  0.1773 -0.3945
  185SLPC  H15R21294   3.111   2.052   8.472 -0.0858 -0.6521 -1.1680
  185SLPC  H15S21295   3.188   2.204   8.411 -0.6667  0.2456  0.6314
  185SLPC  C21621296   3.318   2.093   8.527 -0.0184 -0.1867 -0.7166
  185SLPC  H16R21297   3.290   2.139   8.624 -1.4331 -1.4745 -0.5058
  185SLPC  H16S21298   3.416   2.134   8.493  0.4079  1.2281  2.0691
  185SLPC  C21721299   3.355   1.946   8.558  0.2114  0.4373 -0.6546
  185SLPC  H17R21300   3.453   1.929   8.607 -0.6213 -0.3943  0.7721
  185SLPC  H17S21301   3.370   1.903   8.457  2.0766  1.0072 -0.6430
  185SLPC  C21821302   3.246   1.878   8.641 -0.5703  0.1898 -0.1619
  185SLPC  H18R21303   3.231   1.935   8.735 -1.5642  1.9866 -1.3683
  185SLPC  H18S21304   3.263   1.775   8.678 -0.1469  0.2937 -0.0675
  185SLPC  H18T21305   3.153   1.883   8.580 -3.6292  1.9560  4.3801
  185SLPC   C3321306   3.772   2.435   7.138 -0.5439  0.5713  0.8163
  185SLPC   H3X21307   3.826   2.362   7.073 -0.6700  1.0649  0.1509
  185SLPC   H3Y21308   3.732   2.391   7.232  0.2538 -1.9372  0.0436
  185SLPC   C3421309   3.889   2.533   7.168  0.0202 -0.1920 -0.5087
  185SLPC   H4X21310   3.852   2.629   7.208  1.2909  0.1941 -0.2382
  185SLPC   H4Y21311   3.960   2.558   7.086  3.3857  1.5000  2.7931
  185SLPC   C3521312   3.982   2.473   7.275  0.2488  0.1407  0.5378
  185SLPC   H5X21313   4.087   2.507   7.263 -0.3568  2.0711  0.4932
  185SLPC   H5Y21314   3.981   2.365   7.249 -0.6462  0.5538 -1.2863
  185SLPC   C3621315   3.934   2.477   7.419 -0.5984 -0.4025 -0.1787
  185SLPC   H6X21316   4.009   2.418   7.476  0.8557  1.7588  0.2000
  185SLPC   H6Y21317   3.836   2.426   7.431 -1.1840  0.1725 -2.2499
  185SLPC   C3721318   3.916   2.615   7.484 -0.1307 -0.2824 -0.2643
  185SLPC   H7X21319   3.836   2.673   7.432 -1.3433 -0.1255  1.7044
  185SLPC   H7Y21320   4.009   2.674   7.477 -1.2325  1.2918 -2.4621
  185SLPC   C3821321   3.872   2.602   7.631 -0.1640  0.2284  0.0917
  185SLPC   H8X21322   3.771   2.555   7.638 -0.1193  0.3880  2.2162
  185SLPC   H8Y21323   3.859   2.704   7.675 -0.9950 -1.4436  3.9039
  185SLPC   C3921324   3.960   2.522   7.722  0.1929  0.5919 -0.2487
  185SLPC   H9X21325   4.064   2.561   7.728 -0.4490  2.2019  0.6510
  185SLPC   H9Y21326   3.975   2.419   7.681 -0.9950  0.4282 -0.2791
  185SLPC  C31021327   3.916   2.533   7.869 -0.4237 -0.2360  1.2333
  185SLPC  H10X21328   3.820   2.477   7.873  0.5402 -1.8083  2.4337
  185SLPC  H10Y21329   3.888   2.635   7.903  1.0632  0.5360  0.2104
  185SLPC  C31121330   4.009   2.459   7.964  0.8942 -0.3381 -0.5024
  185SLPC  H11X21331   4.105   2.515   7.969 -0.0386  1.0886  2.7634
  185SLPC  H11Y21332   4.037   2.357   7.929 -0.9256 -1.4145  1.0915
  185SLPC  C31221333   3.956   2.465   8.107 -0.8803 -0.8717  0.2507
  185SLPC  H12X21334   3.859   2.410   8.110 -1.5308  0.1909 -0.9520
  185SLPC  H12Y21335   3.938   2.574   8.123  1.7140 -0.0486 -2.0274
  185SLPC  C31321336   4.056   2.408   8.210  0.1909 -0.0298 -0.8003
  185SLPC  H13X21337   4.155   2.447   8.180  0.6756  0.3695  1.2146
  185SLPC  H13Y21338   4.066   2.297   8.205 -0.5528 -0.0604 -1.8936
  185SLPC  C31421339   4.018   2.454   8.354 -1.3966 -0.1550  0.0301
  185SLPC  H14X21340   3.916   2.420   8.381 -2.1343  3.0865  1.7007
  185SLPC  H14Y21341   4.028   2.564   8.367 -1.4205  0.0258 -1.3691
  185SLPC  C31521342   4.119   2.398   8.454  0.2959  0.4430 -0.4404
  185SLPC  H15X21343   4.220   2.435   8.426 -0.0210  1.0099 -0.8274
  185SLPC  H15Y21344   4.122   2.287   8.461  5.2252  0.5610  0.7963
  185SLPC  C31621345   4.091   2.443   8.592  0.2174  0.1362 -0.2168
  185SLPC  H16X21346   3.982   2.427   8.608  0.3524  0.7372  1.3455
  185SLPC  H16Y21347   4.107   2.553   8.602 -0.0437  0.1313  0.2406
  185SLPC  C31721348   4.161   2.371   8.711 -0.3478 -0.4356  0.6293
  185SLPC  H17X21349   4.166   2.262   8.690  1.2043 -0.6723  2.1309
  185SLPC  H17Y21350   4.101   2.385   8.804 -0.6278  0.0232  0.3850
  185SLPC  C31821351   4.307   2.418   8.730 -0.2821  0.4912 -0.2182
  185SLPC  H18X21352   4.372   2.388   8.645  0.8600  3.6453 -0.5024
  185SLPC  H18Y21353   4.342   2.363   8.820 -0.4823 -1.8365 -1.5106
  185SLPC  H18Z21354   4.319   2.525   8.754  1.8630  0.1012  0.4856
  186SLPC     N21355   4.843   5.921   6.279  0.2017 -0.5361 -0.1559
  186SLPC   C1321356   4.799   6.026   6.374  0.1304 -0.1519  0.2086
  186SLPC  H13A21357   4.885   6.067   6.425  0.1297 -0.6138  0.5895
  186SLPC  H13B21358   4.751   6.111   6.328  1.4340 -0.0934 -1.0700
  186SLPC  H13C21359   4.735   5.985   6.451  1.2232  0.3498  1.4147
  186SLPC   C1421360   4.910   5.993   6.168  0.5356 -0.8629 -0.0407
  186SLPC  H14A21361   4.928   5.918   6.093  2.3259 -0.5314  0.0543
  186SLPC  H14B21362   4.837   6.063   6.130 -0.7064 -0.8584  2.2554
  186SLPC  H14C21363   5.005   6.035   6.196  0.9570 -1.9183  0.1446
  186SLPC   C1521364   4.732   5.849   6.226 -0.6808  0.2920  0.4357
  186SLPC  H15A21365   4.668   5.908   6.162 -1.0892 -1.0135 -0.4043
  186SLPC  H15B21366   4.763   5.762   6.170 -0.2171  1.8836 -1.8427
  186SLPC  H15C21367   4.667   5.818   6.307  0.4538  1.7328  1.9160
  186SLPC   C1221368   4.937   5.838   6.365 -0.9650  0.0778 -0.1797
  186SLPC  H12A21369   4.871   5.785   6.433 -0.9509  0.1037 -0.1461
  186SLPC  H12B21370   4.997   5.903   6.427  0.9963 -0.5181 -1.3932
  186SLPC   C1121371   5.031   5.737   6.291  0.1937 -0.3369 -0.5909
  186SLPC  H11A21372   5.092   5.679   6.363  0.8782 -3.0695 -3.2811
  186SLPC  H11B21373   5.117   5.781   6.236 -1.6192  3.4074 -0.5624
  186SLPC     P21374   5.017   5.528   6.127 -0.3485  0.3239 -0.3579
  186SLPC   O1321375   4.921   5.484   6.023  0.1797 -0.2940  0.2893
  186SLPC   O1421376   5.159   5.546   6.088 -0.0983  0.0046 -0.0435
  186SLPC   O1221377   4.959   5.650   6.203 -0.3281 -0.1567  0.3037
  186SLPC   O1121378   5.002   5.421   6.240  0.1836 -0.0391  0.1962
  186SLPC    C121379   4.864   5.374   6.267  0.3804 -0.0794  0.2958
  186SLPC    HA21380   4.783   5.404   6.197  0.6321  0.4072  0.2124
  186SLPC    HB21381   4.858   5.263   6.276  2.1812 -0.1944  0.1895
  186SLPC    C221382   4.815   5.426   6.402 -0.7391 -0.3270  0.6559
  186SLPC    HS21383   4.830   5.536   6.404 -0.7273 -0.3273  0.5881
  186SLPC   O2121384   4.893   5.346   6.495  0.0551 -0.4474  0.1742
  186SLPC   C2121385   4.921   5.415   6.607 -0.2849 -0.4596  0.3501
  186SLPC   O2221386   4.892   5.528   6.634  0.8597  0.5498 -0.1053
  186SLPC   C2221387   4.995   5.326   6.708  0.2546  0.0478  0.1916
  186SLPC   H2R21388   4.929   5.249   6.753 -0.1804 -0.2602 -0.9567
  186SLPC   H2S21389   5.078   5.272   6.659 -1.3859 -3.3468  0.9836
  186SLPC    C321390   4.661   5.398   6.421  0.4745  0.5564  0.1025
  186SLPC    HX21391   4.640   5.289   6.420  0.1837  0.6200 -1.1441
  186SLPC    HY21392   4.613   5.444   6.332  1.4086  1.3070 -0.0269
  186SLPC   O3121393   4.613   5.463   6.542  0.0012  0.5520 -0.3668
  186SLPC   C3121394   4.586   5.589   6.532 -0.2748  0.6742 -0.5239
  186SLPC   O3221395   4.598   5.667   6.439  0.0030  0.4583 -0.2339
  186SLPC   C3221396   4.520   5.629   6.670  0.2140 -0.2364 -0.4971
  186SLPC   H2X21397   4.410   5.623   6.655  0.4681 -1.8511 -1.8098
  186SLPC   H2Y21398   4.539   5.738   6.681 -2.6640  0.1788  0.7800
  186SLPC   C2321399   5.050   5.410   6.824  0.0896  0.7506  0.1083
  186SLPC   H3R21400   4.966   5.468   6.866 -0.1926  1.2828 -1.1697
  186SLPC   H3S21401   5.131   5.474   6.782  1.2109 -0.6708  0.0675
  186SLPC   C2421402   5.114   5.321   6.934  0.1722  0.0320  0.1300
  186SLPC   H4R21403   5.193   5.258   6.890 -1.7882 -1.3335 -1.5452
  186SLPC   H4S21404   5.032   5.261   6.979  0.1711  0.8622  1.2539
  186SLPC   C2521405   5.181   5.407   7.038 -0.1202  0.0678 -0.1786
  186SLPC   H5R21406   5.126   5.502   7.057 -0.5295 -0.3815  0.9039
  186SLPC   H5S21407   5.275   5.442   6.989 -0.5308 -0.9801 -1.7529
  186SLPC   C2621408   5.222   5.331   7.166 -0.2239  0.1893 -0.3125
  186SLPC   H6R21409   5.288   5.397   7.226 -1.3431  0.6557  0.4313
  186SLPC   H6S21410   5.269   5.233   7.145  2.0603  1.2716 -0.3907
  186SLPC   C2721411   5.105   5.320   7.269  0.1634  0.2405 -0.0804
  186SLPC   H7R21412   5.007   5.291   7.226  1.0535 -1.7222 -0.8680
  186SLPC   H7S21413   5.096   5.422   7.313  0.6017 -0.9841  3.0098
  186SLPC   C2821414   5.143   5.228   7.390  0.2901  0.8683  0.0884
  186SLPC   H8R21415   5.137   5.129   7.339  1.7211  0.2185  1.1529
  186SLPC   H8S21416   5.064   5.243   7.466 -1.0241 -0.0480 -1.0655
  186SLPC   C2921417   5.288   5.226   7.447  0.6903 -0.0764 -0.4362
  186SLPC   H9R21418   5.374   5.193   7.385  1.9170  0.2194  1.0727
  186SLPC  C21021419   5.318   5.259   7.567 -0.5398  0.0231 -0.6969
  186SLPC  H10R21420   5.423   5.254   7.599  0.1625 -0.3987 -2.9851
  186SLPC  C21121421   5.229   5.300   7.679 -0.5215  0.5984 -0.8919
  186SLPC  H11R21422   5.207   5.208   7.737 -1.7675  1.0866 -0.5588
  186SLPC  H11S21423   5.127   5.332   7.650 -0.6777 -0.4456 -1.4924
  186SLPC  C21221424   5.297   5.414   7.750 -0.1693 -0.3169 -0.0058
  186SLPC  H12R21425   5.308   5.506   7.692  1.2987  1.7785  3.4240
  186SLPC  C21321426   5.335   5.403   7.880 -0.9167  0.3416  0.1982
  186SLPC  H13R21427   5.369   5.498   7.924  3.0296 -0.5297 -0.7765
  186SLPC  C21421428   5.315   5.288   7.974  0.5388  0.2679 -0.3021
  186SLPC  H14R21429   5.207   5.260   7.971  0.8374 -0.8840 -0.6650
  186SLPC  H14S21430   5.336   5.321   8.078 -2.0775  1.9029 -0.2549
  186SLPC  C21521431   5.416   5.171   7.958  0.2493  0.5551 -0.4355
  186SLPC  H15R21432   5.515   5.220   7.954  0.4468  0.2324  0.3270
  186SLPC  H15S21433   5.408   5.121   7.859 -2.9920  2.3231 -1.1600
  186SLPC  C21621434   5.402   5.061   8.074 -0.2121  0.4926 -0.0882
  186SLPC  H16R21435   5.431   5.101   8.174  1.0985 -0.8044  0.0659
  186SLPC  H16S21436   5.477   4.986   8.041  1.1235  2.6079 -2.0426
  186SLPC  C21721437   5.274   4.991   8.088 -1.1387  0.0074  0.2005
  186SLPC  H17R21438   5.203   5.071   8.118  0.2956  1.6647 -0.6763
  186SLPC  H17S21439   5.276   4.918   8.172  0.5117 -2.1021 -1.6025
  186SLPC  C21821440   5.213   4.918   7.964  0.0999 -0.3974  0.0045
  186SLPC  H18R21441   5.221   4.993   7.883  1.0755  1.0309  1.4011
  186SLPC  H18S21442   5.107   4.895   7.987 -0.2259  0.2188 -0.8304
  186SLPC  H18T21443   5.272   4.826   7.941 -0.7674 -0.5959 -1.4907
  186SLPC   C3321444   4.571   5.563   6.797 -0.6766  0.3662  0.4226
  186SLPC   H3X21445   4.678   5.536   6.783 -1.0908 -1.4150  0.5834
  186SLPC   H3Y21446   4.526   5.463   6.814  0.1540  0.1964  1.6910
  186SLPC   C3421447   4.557   5.651   6.917  0.1700  0.5698 -0.3021
  186SLPC   H4X21448   4.454   5.682   6.944  0.0456  0.9975 -1.2390
  186SLPC   H4Y21449   4.609   5.742   6.881 -1.2851  1.4914 -0.1225
  186SLPC   C3521450   4.619   5.591   7.046  0.4973  0.0785 -0.4029
  186SLPC   H5X21451   4.617   5.674   7.119 -1.2300 -0.8312  0.6260
  186SLPC   H5Y21452   4.727   5.574   7.029  0.4057  1.4693 -2.5504
  186SLPC   C3621453   4.552   5.467   7.096 -0.3858 -0.0440 -0.4957
  186SLPC   H6X21454   4.592   5.383   7.034 -4.2942 -2.8611  0.5687
  186SLPC   H6Y21455   4.443   5.484   7.078 -0.1426  0.1179 -1.8899
  186SLPC   C3721456   4.572   5.443   7.254  0.1181  0.1184  0.3872
  186SLPC   H7X21457   4.676   5.471   7.282  0.0768  1.7543 -1.0209
  186SLPC   H7Y21458   4.559   5.337   7.284  1.4415 -0.4593 -0.9940
  186SLPC   C3821459   4.472   5.521   7.347  0.4178 -0.2352  0.4411
  186SLPC   H8X21460   4.384   5.454   7.358  1.3897 -2.1947 -3.0543
  186SLPC   H8Y21461   4.438   5.614   7.297  2.6323  0.2744 -0.1288
  186SLPC   C3921462   4.539   5.567   7.476 -0.7746  0.0686 -0.2113
  186SLPC   H9X21463   4.465   5.608   7.549 -0.7001  0.2180 -0.2194
  186SLPC   H9Y21464   4.609   5.651   7.458  0.6669 -0.6430  1.9761
  186SLPC  C31021465   4.619   5.459   7.548 -0.0465  0.1945 -0.4283
  186SLPC  H10X21466   4.695   5.415   7.479  0.7494  0.5051  0.2376
  186SLPC  H10Y21467   4.554   5.374   7.578 -1.1417  0.4987 -1.9003
  186SLPC  C31121468   4.693   5.523   7.666  0.2156  0.1937  0.1199
  186SLPC  H11X21469   4.615   5.556   7.737  0.5366 -0.3028  0.7116
  186SLPC  H11Y21470   4.750   5.609   7.624  0.2075 -0.7381 -1.8504
  186SLPC  C31221471   4.792   5.429   7.741 -0.0129  0.0734  0.2981
  186SLPC  H12X21472   4.847   5.470   7.828  0.0311  0.5068  0.0671
  186SLPC  H12Y21473   4.857   5.400   7.656 -2.2338 -2.0065 -0.7547
  186SLPC  C31321474   4.714   5.303   7.791 -0.8610  0.3959  0.4588
  186SLPC  H13X21475   4.683   5.236   7.708 -2.8599  0.5172  1.0784
  186SLPC  H13Y21476   4.625   5.326   7.853 -0.9596  0.4344  0.3020
  186SLPC  C31421477   4.815   5.204   7.867  0.5447 -0.8908 -0.4072
  186SLPC  H14X21478   4.900   5.185   7.799  0.5295  0.0468 -0.6909
  186SLPC  H14Y21479   4.756   5.109   7.872 -0.7156 -0.1428 -0.8385
  186SLPC  C31521480   4.856   5.250   8.010  0.1882 -0.0499  0.6172
  186SLPC  H15X21481   4.768   5.296   8.060 -0.8545 -0.2610 -0.9783
  186SLPC  H15Y21482   4.918   5.340   7.989 -0.9835  1.5225  3.6404
  186SLPC  C31621483   4.939   5.156   8.098  0.7689 -0.2609 -0.6499
  186SLPC  H16X21484   4.970   5.226   8.178  1.6364  0.3485 -1.5237
  186SLPC  H16Y21485   5.027   5.118   8.043  0.0724 -3.2265  0.1973
  186SLPC  C31721486   4.856   5.054   8.164  0.3740  0.1276 -0.3971
  186SLPC  H17X21487   4.747   5.077   8.166  0.2579 -0.4128 -0.6198
  186SLPC  H17Y21488   4.892   5.046   8.269  1.0471 -1.6531 -0.7576
  186SLPC  C31821489   4.870   4.911   8.111 -0.4234 -0.3366 -0.1662
  186SLPC  H18X21490   4.966   4.862   8.135 -0.7313 -0.6639  0.3972
  186SLPC  H18Y21491   4.867   4.906   8.000  1.2000  1.5682 -0.3220
  186SLPC  H18Z21492   4.792   4.846   8.156  0.8358 -0.6552  1.5614
  187SLPC     N21493   5.127   2.241   6.397  0.3250  0.0347 -0.5835
  187SLPC   C1321494   5.034   2.329   6.476 -0.4768  0.4438  1.1647
  187SLPC  H13A21495   4.961   2.380   6.415  0.1585 -1.7189 -1.4766
  187SLPC  H13B21496   4.982   2.275   6.554 -2.4542 -0.7785 -0.9276
  187SLPC  H13C21497   5.094   2.399   6.533  2.3762  0.7184 -2.0270
  187SLPC   C1421498   5.229   2.340   6.337  0.1887  0.3128  0.0143
  187SLPC  H14A21499   5.247   2.419   6.409 -0.1183 -1.5201  2.1628
  187SLPC  H14B21500   5.310   2.287   6.290  1.0752  1.1641  0.5733
  187SLPC  H14C21501   5.174   2.392   6.260 -3.1685 -1.6622  0.9577
  187SLPC   C1521502   5.046   2.153   6.297  0.1650  0.2469 -0.8923
  187SLPC  H15A21503   4.977   2.086   6.346  0.9440 -1.0566 -1.5715
  187SLPC  H15B21504   4.988   2.210   6.225 -0.0725  0.6528 -0.3847
  187SLPC  H15C21505   5.115   2.098   6.236  1.2905 -0.3881  0.9421
  187SLPC   C1221506   5.197   2.148   6.498  0.0500  0.5087  0.0165
  187SLPC  H12A21507   5.239   2.212   6.574  1.1569 -1.4133  1.0528
  187SLPC  H12B21508   5.276   2.091   6.452 -0.4140  1.0587 -1.5002
  187SLPC   C1121509   5.114   2.041   6.578 -0.4143  0.6003 -0.9118
  187SLPC  H11A21510   5.020   2.078   6.624  1.1272  0.5234  2.4153
  187SLPC  H11B21511   5.176   1.997   6.659 -1.4374  1.0359  0.1234
  187SLPC     P21512   5.162   1.797   6.481 -0.5275 -0.4456  0.1733
  187SLPC   O1321513   5.094   1.716   6.374 -0.0787 -0.3242 -0.0333
  187SLPC   O1421514   5.306   1.826   6.467  0.2516 -0.4846  0.6291
  187SLPC   O1221515   5.083   1.932   6.495 -0.2421 -0.1563 -0.3278
  187SLPC   O1121516   5.134   1.734   6.616  0.8193 -0.7031 -0.0160
  187SLPC    C121517   4.997   1.705   6.656 -0.6528 -0.0084  0.5619
  187SLPC    HA21518   4.933   1.794   6.638  0.1367  0.0931 -1.9709
  187SLPC    HB21519   4.953   1.622   6.596  1.8914  0.0971 -1.5955
  187SLPC    C221520   4.984   1.666   6.809  0.3996 -0.1825 -0.6131
  187SLPC    HS21521   4.880   1.683   6.845  0.4446 -2.5938  0.7861
  187SLPC   O2121522   5.066   1.745   6.898  0.2256 -0.6457  0.0337
  187SLPC   C2121523   5.037   1.879   6.906 -0.0627 -0.0107  0.3107
  187SLPC   O2221524   4.944   1.940   6.856 -0.0234 -0.2770  0.4104
  187SLPC   C2221525   5.142   1.958   6.982 -0.2422  0.0820  0.0255
  187SLPC   H2R21526   5.246   1.946   6.944  0.1778  0.9420  0.8498
  187SLPC   H2S21527   5.133   2.069   6.983  3.6563  0.4638  0.3013
  187SLPC    C321528   5.015   1.514   6.829  0.5323  0.6493 -0.1525
  187SLPC    HX21529   5.101   1.489   6.764 -1.0172 -0.2513 -1.8843
  187SLPC    HY21530   4.927   1.462   6.784 -1.7174  1.5927  2.9211
  187SLPC   O3121531   5.021   1.482   6.970 -0.2295  0.4725  0.0178
  187SLPC   C3121532   5.149   1.474   7.018  0.0564  0.0394  0.9113
  187SLPC   O3221533   5.249   1.502   6.960  0.0908  0.6268  0.2612
  187SLPC   C3221534   5.148   1.448   7.171 -0.0411  0.2545  0.9968
  187SLPC   H2X21535   5.145   1.337   7.184 -1.9690  0.1150 -0.3713
  187SLPC   H2Y21536   5.058   1.498   7.212  0.3336  1.2730  0.5874
  187SLPC   C2321537   5.132   1.923   7.132 -0.0895  0.1363  0.0437
  187SLPC   H3R21538   5.230   1.925   7.185 -0.4376  1.1645  0.6638
  187SLPC   H3S21539   5.109   1.815   7.129  2.9775 -0.7147  3.5208
  187SLPC   C2421540   5.033   2.004   7.212  0.1153  0.1596 -0.3693
  187SLPC   H4R21541   4.940   2.024   7.153  2.5633  0.0957 -4.4723
  187SLPC   H4S21542   5.074   2.106   7.229 -0.3170 -0.0972  2.3060
  187SLPC   C2521543   4.993   1.934   7.342  0.1494  0.9658 -0.4300
  187SLPC   H5R21544   4.920   1.853   7.320  0.3573 -0.1951  2.8192
  187SLPC   H5S21545   4.925   1.995   7.405 -0.0968 -0.9256  1.2075
  187SLPC   C2621546   5.106   1.885   7.436  0.6012  0.1926 -0.1011
  187SLPC   H6R21547   5.155   1.970   7.489  1.9385 -0.1382 -0.7943
  187SLPC   H6S21548   5.190   1.837   7.381  1.7990  2.2207 -0.0802
  187SLPC   C2721549   5.066   1.780   7.546  0.2213 -0.2650  0.4640
  187SLPC   H7R21550   5.156   1.777   7.611  0.5521  2.1407  0.1745
  187SLPC   H7S21551   5.047   1.684   7.494 -1.9960  0.8896 -0.9170
  187SLPC   C2821552   4.945   1.808   7.631 -0.5143  0.1817  0.1898
  187SLPC   H8R21553   4.922   1.723   7.699  1.0994 -0.3466  0.0938
  187SLPC   H8S21554   4.861   1.822   7.558 -0.5841  1.8338  0.5757
  187SLPC   C2921555   4.962   1.935   7.720  0.7594  0.2193  0.5870
  187SLPC   H9R21556   4.959   2.030   7.664 -0.7578 -0.5550 -0.6915
  187SLPC  C21021557   4.976   1.942   7.848  0.0668 -0.4083  0.1946
  187SLPC  H10R21558   5.006   2.040   7.888  1.1988 -0.9085  0.5938
  187SLPC  C21121559   4.974   1.826   7.943  0.2155  0.2574 -0.2015
  187SLPC  H11R21560   4.884   1.765   7.920  1.0301 -0.4170 -1.7512
  187SLPC  H11S21561   4.949   1.875   8.039  0.2625 -1.3102  0.6178
  187SLPC  C21221562   5.092   1.733   7.962  0.7659 -0.4985  0.5415
  187SLPC  H12R21563   5.130   1.680   7.873  1.9113  0.1153  0.6592
  187SLPC  C21321564   5.142   1.700   8.079 -0.1611 -0.1055  0.0720
  187SLPC  H13R21565   5.221   1.624   8.087 -1.6616 -1.8042 -0.8076
  187SLPC  C21421566   5.096   1.762   8.207  0.3839 -0.2492  0.6350
  187SLPC  H14R21567   4.987   1.787   8.211  0.2080 -0.7367 -0.6747
  187SLPC  H14S21568   5.156   1.855   8.212 -0.1427  0.2813 -2.0439
  187SLPC  C21521569   5.121   1.678   8.330  0.4103 -0.4954  0.5483
  187SLPC  H15R21570   5.231   1.667   8.340  0.7540  1.8378 -0.5050
  187SLPC  H15S21571   5.086   1.572   8.327 -1.6559  0.1920 -0.7655
  187SLPC  C21621572   5.068   1.729   8.465 -0.9155  0.2034 -0.4895
  187SLPC  H16R21573   5.104   1.660   8.544 -0.6789  1.1554  0.2429
  187SLPC  H16S21574   4.957   1.729   8.461 -0.9053  1.4486 -1.1297
  187SLPC  C21721575   5.116   1.874   8.489 -0.0236 -0.8334 -0.9777
  187SLPC  H17R21576   5.112   1.925   8.390 -0.6587  0.1404 -0.4578
  187SLPC  H17S21577   5.222   1.872   8.524 -0.9405 -2.1873  1.8342
  187SLPC  C21821578   5.038   1.951   8.601  0.3593  0.1221 -0.0961
  187SLPC  H18R21579   4.938   1.961   8.552  1.0855  1.6610 -1.3404
  187SLPC  H18S21580   5.071   2.056   8.618  1.5617 -0.3495  0.4853
  187SLPC  H18T21581   5.040   1.903   8.701 -1.8824 -0.5884 -0.3580
  187SLPC   C3321582   5.269   1.511   7.244 -0.6091  0.7298 -1.0549
  187SLPC   H3X21583   5.273   1.622   7.237 -0.2443  0.8693  1.1043
  187SLPC   H3Y21584   5.367   1.482   7.203  0.8172 -0.0358  2.6893
  187SLPC   C3421585   5.277   1.450   7.386 -0.5966 -0.2070 -0.2778
  187SLPC   H4X21586   5.295   1.340   7.381 -0.3888 -0.3845  3.3739
  187SLPC   H4Y21587   5.174   1.454   7.428  0.2094 -0.2116  1.7458
  187SLPC   C3521588   5.372   1.522   7.482 -1.1154 -0.0998 -0.0203
  187SLPC   H5X21589   5.353   1.631   7.473  2.1899  0.4944 -0.2829
  187SLPC   H5Y21590   5.473   1.514   7.438 -1.3604 -2.2754 -0.2311
  187SLPC   C3621591   5.349   1.463   7.617 -0.2472 -0.2562 -0.0911
  187SLPC   H6X21592   5.389   1.360   7.628 -1.4060 -0.5139  2.1539
  187SLPC   H6Y21593   5.239   1.449   7.622 -0.2759 -0.0280 -0.0452
  187SLPC   C3721594   5.416   1.550   7.723  0.4745 -0.2250 -0.5012
  187SLPC   H7X21595   5.519   1.549   7.682 -0.7859 -1.2527 -3.8365
  187SLPC   H7Y21596   5.388   1.658   7.732  2.0214  0.3070 -1.7597
  187SLPC   C3821597   5.390   1.477   7.865 -0.3414 -0.2076 -0.3403
  187SLPC   H8X21598   5.393   1.366   7.861 -4.0469 -0.3886 -0.5887
  187SLPC   H8Y21599   5.288   1.513   7.890 -0.6594 -0.8227 -0.7269
  187SLPC   C3921600   5.489   1.537   7.965 -0.6517 -0.1021 -0.5879
  187SLPC   H9X21601   5.469   1.644   7.985 -0.2604  0.0944 -1.2406
  187SLPC   H9Y21602   5.597   1.530   7.938 -0.2769  1.2580  0.5083
  187SLPC  C31021603   5.476   1.460   8.108  0.2087  0.1265  0.4137
  187SLPC  H10X21604   5.502   1.355   8.084 -0.0610  0.1862 -0.1548
  187SLPC  H10Y21605   5.370   1.467   8.140 -0.3815  0.9464 -1.6225
  187SLPC  C31121606   5.568   1.522   8.217  0.2850 -0.3354  0.3546
  187SLPC  H11X21607   5.534   1.626   8.229 -0.2062 -0.8329  3.9447
  187SLPC  H11Y21608   5.674   1.519   8.181  0.6105 -2.4327  1.3775
  187SLPC  C31221609   5.566   1.458   8.359  0.8836  0.2837  0.5324
  187SLPC  H12X21610   5.595   1.350   8.355 -0.5285 -0.0476 -1.0946
  187SLPC  H12Y21611   5.460   1.462   8.393 -1.4694 -1.0714 -5.9302
  187SLPC  C31321612   5.653   1.536   8.457  0.1199 -0.3806 -0.3846
  187SLPC  H13X21613   5.642   1.644   8.438 -0.9253  0.1526  2.8843
  187SLPC  H13Y21614   5.759   1.508   8.439 -0.2952 -0.5843 -2.6421
  187SLPC  C31421615   5.624   1.519   8.604 -0.3592 -0.1252  0.3472
  187SLPC  H14X21616   5.526   1.568   8.622  0.0128 -0.1704  2.6237
  187SLPC  H14Y21617   5.694   1.575   8.669  2.3845 -3.7505  0.6831
  187SLPC  C31521618   5.633   1.369   8.633  0.5257 -0.6463  0.1459
  187SLPC  H15X21619   5.714   1.324   8.572  0.6027  0.3518 -0.4815
  187SLPC  H15Y21620   5.538   1.319   8.603  0.6696 -0.5140 -0.5187
  187SLPC  C31621621   5.645   1.342   8.788  0.1571 -0.2478  0.3026
  187SLPC  H16X21622   5.713   1.419   8.831  1.0283 -0.7323 -0.2013
  187SLPC  H16Y21623   5.680   1.238   8.802  1.4498  0.2543  0.8422
  187SLPC  C31721624   5.508   1.357   8.863 -0.3031 -0.7558 -0.7608
  187SLPC  H17X21625   5.437   1.278   8.832  0.7963 -1.5587 -1.2509
  187SLPC  H17Y21626   5.476   1.457   8.827  2.8775  0.7628  0.4056
  187SLPC  C31821627   5.533   1.367   9.011  0.4254 -0.7062 -0.1232
  187SLPC  H18X21628   5.617   1.436   9.032  0.8313 -2.0142  2.7662
  187SLPC  H18Y21629   5.557   1.268   9.056  0.6849 -0.2108  0.8397
  187SLPC  H18Z21630   5.443   1.407   9.063  2.4782  0.1137  2.8695
  188SLPC     N21631   6.682   3.634   6.352 -0.5432  0.6154 -0.2918
  188SLPC   C1321632   6.787   3.558   6.417 -0.0995 -0.0421 -0.6441
  188SLPC  H13A21633   6.758   3.493   6.498  0.7954  2.3681  1.6595
  188SLPC  H13B21634   6.837   3.496   6.344  0.8828  0.5168 -0.4492
  188SLPC  H13C21635   6.862   3.622   6.460 -0.1391 -0.5478  0.1923
  188SLPC   C1421636   6.597   3.549   6.269  0.1157  0.4649  0.1394
  188SLPC  H14A21637   6.549   3.470   6.326  0.6583  0.7591  1.0241
  188SLPC  H14B21638   6.518   3.590   6.209 -0.5970 -0.3757  0.4889
  188SLPC  H14C21639   6.656   3.493   6.198  0.3938  1.9178 -0.7947
  188SLPC   C1521640   6.725   3.746   6.268 -0.7068 -0.3854  0.5909
  188SLPC  H15A21641   6.789   3.819   6.317  1.0713 -1.3695 -0.1995
  188SLPC  H15B21642   6.777   3.697   6.187 -1.6267 -1.8869  0.8984
  188SLPC  H15C21643   6.644   3.802   6.225  0.4732 -0.2166 -1.4606
  188SLPC   C1221644   6.594   3.697   6.461 -0.3701  0.4565  0.1145
  188SLPC  H12A21645   6.548   3.620   6.521  1.0288 -0.7325 -0.3374
  188SLPC  H12B21646   6.508   3.750   6.422 -1.4858 -0.1087  1.7440
  188SLPC   C1121647   6.668   3.789   6.557  0.3273  0.5274 -0.5770
  188SLPC  H11A21648   6.767   3.753   6.591 -0.3787  0.0602  0.9897
  188SLPC  H11B21649   6.614   3.797   6.653  1.7070 -2.8369  0.5364
  188SLPC     P21650   6.571   4.026   6.475 -0.2117 -0.0440 -0.0945
  188SLPC   O1321651   6.629   4.160   6.483  0.3071  0.6284 -0.2944
  188SLPC   O1421652   6.477   4.001   6.361  0.4932 -0.2483 -0.4654
  188SLPC   O1221653   6.693   3.919   6.499 -0.2904  0.1803  0.4595
  188SLPC   O1121654   6.492   3.998   6.606  0.1311  0.1520 -0.2653
  188SLPC    C121655   6.356   4.041   6.629 -0.0899 -0.0094  0.6970
  188SLPC    HA21656   6.306   4.010   6.535 -0.3462 -2.2211  1.5431
  188SLPC    HB21657   6.313   3.980   6.711 -0.1666  1.1384  1.5243
  188SLPC    C221658   6.327   4.189   6.660 -1.2337  0.5655  0.1409
  188SLPC    HS21659   6.357   4.259   6.579  0.3704  1.0590  1.1275
  188SLPC   O2121660   6.391   4.230   6.790 -0.2346 -0.8461  0.3663
  188SLPC   C2121661   6.367   4.351   6.827  0.2937  0.3102  0.1425
  188SLPC   O2221662   6.323   4.451   6.770  0.3294 -0.2618 -0.0770
  188SLPC   C2221663   6.461   4.365   6.950 -0.5696  0.0773  0.2410
  188SLPC   H2R21664   6.565   4.344   6.920 -0.5581 -2.1161  1.7131
  188SLPC   H2S21665   6.449   4.467   6.993  2.3395  0.0493  1.1766
  188SLPC    C321666   6.171   4.202   6.668  0.1519  0.3755  0.3074
  188SLPC    HX21667   6.148   4.167   6.565  2.4420 -0.1256 -0.0719
  188SLPC    HY21668   6.146   4.310   6.674 -0.0224  0.3374  0.2431
  188SLPC   O3121669   6.113   4.113   6.774 -0.4329  0.1519  0.5386
  188SLPC   C3121670   5.988   4.079   6.763  0.2669  0.6072  0.2974
  188SLPC   O3221671   5.910   4.110   6.672  0.4583 -0.8936  0.2057
  188SLPC   C3221672   5.952   3.968   6.864 -0.0889 -0.1047  0.0872
  188SLPC   H2X21673   6.018   3.880   6.847 -0.6245 -0.6494  0.8010
  188SLPC   H2Y21674   5.854   3.924   6.838  0.2995 -0.3981 -0.8990
  188SLPC   C2321675   6.430   4.258   7.056 -0.0920 -1.1579  0.2091
  188SLPC   H3R21676   6.489   4.277   7.148  1.0035 -0.4049 -0.6270
  188SLPC   H3S21677   6.463   4.156   7.025 -2.5724 -1.6107 -1.0815
  188SLPC   C2421678   6.283   4.262   7.098  0.5496 -0.2437 -0.1592
  188SLPC   H4R21679   6.241   4.161   7.082  0.3639 -0.2807  0.5284
  188SLPC   H4S21680   6.219   4.341   7.053 -0.2314 -0.1261  1.1341
  188SLPC   C2521681   6.267   4.275   7.248 -0.2257  0.6470  0.0506
  188SLPC   H5R21682   6.161   4.280   7.281  0.1965  0.3722  1.5127
  188SLPC   H5S21683   6.309   4.372   7.281 -0.0001  0.8533 -0.8479
  188SLPC   C2621684   6.337   4.158   7.327 -0.0263  0.4025  0.2458
  188SLPC   H6R21685   6.448   4.165   7.330  0.1918 -2.5828  0.9687
  188SLPC   H6S21686   6.290   4.066   7.286 -1.1857  0.4462  1.4412
  188SLPC   C2721687   6.316   4.170   7.481 -0.3050  0.1559  0.3707
  188SLPC   H7R21688   6.308   4.068   7.523 -1.2804  0.5095  1.0408
  188SLPC   H7S21689   6.213   4.203   7.504 -0.9302  0.0009 -2.0368
  188SLPC   C2821690   6.429   4.241   7.554  0.3164 -0.2978  0.2261
  188SLPC   H8R21691   6.393   4.257   7.657 -2.5006 -0.5160 -0.6730
  188SLPC   H8S21692   6.440   4.339   7.503 -3.3754 -0.0468 -0.1870
  188SLPC   C2921693   6.566   4.177   7.559  0.3475 -0.0261 -0.3269
  188SLPC   H9R21694   6.616   4.169   7.461  1.9765 -1.4862  0.5994
  188SLPC  C21021695   6.639   4.160   7.672 -0.1476  0.3362 -0.0732
  188SLPC  H10R21696   6.731   4.100   7.662 -0.6220 -0.5311  0.6744
  188SLPC  C21121697   6.602   4.192   7.812  0.0247  0.1829 -0.4365
  188SLPC  H11R21698   6.587   4.302   7.817  3.3106  0.7317 -1.0197
  188SLPC  H11S21699   6.697   4.179   7.869 -0.4583 -2.2478 -0.1331
  188SLPC  C21221700   6.500   4.116   7.898  0.0460 -1.1424  0.6865
  188SLPC  H12R21701   6.411   4.107   7.833  0.5426 -1.6898  0.0793
  188SLPC  C21321702   6.514   4.054   8.020  0.0975 -0.0365 -0.1583
  188SLPC  H13R21703   6.415   4.019   8.052 -0.4162 -1.7976 -3.4795
  188SLPC  C21421704   6.630   4.037   8.118  0.9191 -0.0234 -0.8473
  188SLPC  H14R21705   6.727   4.070   8.075  1.4597 -1.7570 -1.0058
  188SLPC  H14S21706   6.627   3.931   8.151 -0.5852  0.3344  0.2308
  188SLPC  C21521707   6.604   4.119   8.250  0.1123  0.3202  0.2041
  188SLPC  H15R21708   6.515   4.074   8.297 -1.6226  2.8474 -0.5824
  188SLPC  H15S21709   6.576   4.222   8.219 -1.9120 -0.1846  0.2984
  188SLPC  C21621710   6.718   4.129   8.351 -0.5002 -0.2406  0.3678
  188SLPC  H16R21711   6.699   4.226   8.404 -0.8629  0.5651 -1.1998
  188SLPC  H16S21712   6.818   4.132   8.303  0.5235  1.0560  2.4711
  188SLPC  C21721713   6.729   4.010   8.443 -0.1503  0.0958  0.3594
  188SLPC  H17R21714   6.834   3.997   8.476  0.7651 -2.2048 -3.1709
  188SLPC  H17S21715   6.716   3.924   8.374  2.5947  0.8226 -1.1712
  188SLPC  C21821716   6.635   4.000   8.565  0.2267 -0.0893 -0.3882
  188SLPC  H18R21717   6.642   3.899   8.609 -0.5670  0.5716  1.3130
  188SLPC  H18S21718   6.534   4.012   8.520  0.3465 -1.8762 -1.1666
  188SLPC  H18T21719   6.645   4.075   8.648  0.5652  0.3164 -0.7978
  188SLPC   C3321720   5.943   4.021   7.013  0.2375 -0.4230  0.3612
  188SLPC   H3X21721   6.047   4.053   7.036  0.3034 -0.5919  0.3057
  188SLPC   H3Y21722   5.926   3.942   7.089  0.7632 -0.1657  0.7505
  188SLPC   C3421723   5.834   4.128   7.012 -0.0269 -1.1376 -0.6899
  188SLPC   H4X21724   5.736   4.081   6.989  0.1592 -2.5249  1.2063
  188SLPC   H4Y21725   5.856   4.208   6.939 -0.5657 -0.7268 -0.4018
  188SLPC   C3521726   5.819   4.210   7.143 -0.4429  0.0420  0.1646
  188SLPC   H5X21727   5.752   4.296   7.122 -0.5436 -0.1759 -0.4109
  188SLPC   H5Y21728   5.919   4.242   7.178 -0.4201 -0.9846  1.0654
  188SLPC   C3621729   5.772   4.125   7.262 -0.2981  0.8967  0.5567
  188SLPC   H6X21730   5.816   4.024   7.247 -2.0678  0.3694 -1.3582
  188SLPC   H6Y21731   5.663   4.107   7.267 -0.1076 -0.2008  0.8473
  188SLPC   C3721732   5.803   4.185   7.399  0.8321 -0.5175  0.1188
  188SLPC   H7X21733   5.750   4.281   7.420 -1.2932 -1.3606 -1.1626
  188SLPC   H7Y21734   5.912   4.208   7.398  0.5039  1.1158 -0.9824
  188SLPC   C3821735   5.752   4.089   7.509 -0.7168 -0.0173  0.1796
  188SLPC   H8X21736   5.782   3.986   7.480 -1.0428 -0.0990  0.1364
  188SLPC   H8Y21737   5.642   4.099   7.516 -0.4915  3.2516 -0.0122
  188SLPC   C3921738   5.809   4.120   7.646  0.0340 -0.8413  0.1559
  188SLPC   H9X21739   5.787   4.229   7.648 -1.2139 -1.0634 -0.7291
  188SLPC   H9Y21740   5.919   4.106   7.635 -0.3097 -4.8573  1.1295
  188SLPC  C31021741   5.748   4.040   7.763  0.0112 -0.0626 -0.2783
  188SLPC  H10X21742   5.767   3.932   7.743  0.5486 -0.7587  3.6571
  188SLPC  H10Y21743   5.639   4.061   7.762 -0.0668 -0.1336  2.3302
  188SLPC  C31121744   5.791   4.084   7.902  0.5502  0.5214  0.2162
  188SLPC  H11X21745   5.805   4.192   7.922 -0.8161  0.7371  0.0668
  188SLPC  H11Y21746   5.895   4.046   7.912  0.5413  0.2361 -0.6929
  188SLPC  C31221747   5.719   4.017   8.015 -0.6866 -0.2081  0.3660
  188SLPC  H12X21748   5.722   3.911   7.984 -0.5965  0.3947 -1.7686
  188SLPC  H12Y21749   5.611   4.046   8.014 -0.1931  1.7929  1.1065
  188SLPC  C31321750   5.782   4.041   8.146 -0.4812 -0.3220  0.2236
  188SLPC  H13X21751   5.783   4.150   8.168  1.8294 -0.2572 -0.0207
  188SLPC  H13Y21752   5.888   4.010   8.137  0.2175  2.2816 -1.2298
  188SLPC  C31421753   5.718   3.972   8.259 -0.0575 -0.2784 -0.3989
  188SLPC  H14X21754   5.775   3.885   8.297 -2.5850 -1.5136  0.7066
  188SLPC  H14Y21755   5.618   3.938   8.226  0.2827  0.1607 -1.9242
  188SLPC  C31521756   5.698   4.048   8.393 -0.1801  0.5450  0.1185
  188SLPC  H15X21757   5.641   4.137   8.359  0.4240  1.0592  0.4625
  188SLPC  H15Y21758   5.797   4.077   8.432  0.3909 -0.2306 -0.7409
  188SLPC  C31621759   5.610   3.974   8.495 -0.4979 -0.1893 -0.0016
  188SLPC  H16X21760   5.670   3.884   8.519 -2.7760 -1.6432  0.4707
  188SLPC  H16Y21761   5.510   3.948   8.455 -0.3362 -0.1548 -0.4214
  188SLPC  C31721762   5.586   4.059   8.627  0.0800  0.0784  0.7801
  188SLPC  H17X21763   5.537   3.990   8.698  1.5115 -0.8992  0.8309
  188SLPC  H17Y21764   5.523   4.148   8.606  1.3976  0.7163 -0.5707
  188SLPC  C31821765   5.711   4.118   8.689  0.4609 -0.4674  0.0480
  188SLPC  H18X21766   5.765   4.182   8.616 -0.6299 -1.1654 -1.3943
  188SLPC  H18Y21767   5.774   4.035   8.729  1.0804  0.0623  0.1896
  188SLPC  H18Z21768   5.684   4.179   8.778  0.6022 -0.4605  0.0863
  189SLPC     N21769   0.920   5.539   6.374 -0.1532 -0.0765  0.0913
  189SLPC   C1321770   0.952   5.420   6.290 -0.8615  0.0978  0.3761
  189SLPC  H13A21771   0.862   5.386   6.242  0.7848 -4.0714 -0.0491
  189SLPC  H13B21772   1.040   5.440   6.231 -0.3410  1.7976  1.7067
  189SLPC  H13C21773   0.980   5.340   6.357  0.2100 -0.2591 -0.4731
  189SLPC   C1421774   0.806   5.490   6.462  0.6301  0.5217  0.5629
  189SLPC  H14A21775   0.808   5.551   6.551 -0.3422  0.5752  0.5526
  189SLPC  H14B21776   0.706   5.494   6.423  1.1941 -0.2231 -1.0098
  189SLPC  H14C21777   0.818   5.389   6.500 -1.6593  0.2521  0.6287
  189SLPC   C1521778   0.882   5.666   6.297 -0.5403 -0.6655 -0.1784
  189SLPC  H15A21779   0.834   5.741   6.358 -0.5813 -0.3908 -0.5454
  189SLPC  H15B21780   0.971   5.711   6.257 -1.2265  0.5946 -0.3017
  189SLPC  H15C21781   0.803   5.638   6.227  2.1338 -2.7458 -2.4891
  189SLPC   C1221782   1.032   5.576   6.473 -0.0955  0.2873 -0.5667
  189SLPC  H12A21783   1.029   5.495   6.545 -1.4327  1.4004  0.6574
  189SLPC  H12B21784   1.014   5.668   6.525  1.2497 -0.2007  0.7942
  189SLPC   C1121785   1.167   5.584   6.418 -0.2922 -0.2720  0.5193
  189SLPC  H11A21786   1.195   5.494   6.358 -1.9190 -0.5505  0.1407
  189SLPC  H11B21787   1.243   5.595   6.498  0.5941 -3.4301  0.1950
  189SLPC     P21788   1.217   5.839   6.385 -0.1026  0.6062  0.0809
  189SLPC   O1321789   1.340   5.830   6.464  0.1116  0.0479 -0.0348
  189SLPC   O1421790   1.209   5.932   6.272 -0.0886  0.0972  0.3994
  189SLPC   O1221791   1.181   5.696   6.328 -0.4929 -0.1689 -0.2602
  189SLPC   O1121792   1.095   5.876   6.482 -0.1132 -0.2217  0.3576
  189SLPC    C121793   1.089   5.982   6.580 -0.0187  0.1032  0.3722
  189SLPC    HA21794   1.190   5.993   6.625  0.2079  2.2314 -0.6094
  189SLPC    HB21795   1.065   6.085   6.546 -0.9764  0.2059  1.3519
  189SLPC    C221796   0.986   5.939   6.690  0.0595  0.0445  0.1016
  189SLPC    HS21797   0.981   6.014   6.772  1.1310  0.8826 -0.5844
  189SLPC   O2121798   1.019   5.805   6.736  0.6725 -0.2900 -0.2304
  189SLPC   C2121799   1.050   5.793   6.866 -0.2051 -0.6113 -1.0890
  189SLPC   O2221800   1.048   5.881   6.950  0.1471  0.5224  1.1922
  189SLPC   C2221801   1.100   5.655   6.890 -0.0341 -0.4804 -0.4953
  189SLPC   H2R21802   1.018   5.580   6.891  0.9776 -1.5983  0.4157
  189SLPC   H2S21803   1.179   5.624   6.819 -0.9160  0.0132 -1.7005
  189SLPC    C321804   0.850   5.924   6.634 -0.1435  1.0516 -0.2893
  189SLPC    HX21805   0.870   5.853   6.551  0.1386 -0.0162  0.6762
  189SLPC    HY21806   0.815   6.017   6.584  1.2678  2.2614  0.9520
  189SLPC   O3121807   0.750   5.886   6.727 -0.5924  0.5813  0.1940
  189SLPC   C3121808   0.729   5.758   6.739  0.1221  0.1041  0.0650
  189SLPC   O3221809   0.789   5.669   6.683 -0.4394 -0.2623  0.6577
  189SLPC   C3221810   0.630   5.737   6.851  0.4627 -0.4676  0.0905
  189SLPC   H2X21811   0.582   5.640   6.829 -0.7810  0.3573 -0.9493
  189SLPC   H2Y21812   0.549   5.813   6.836  1.1407 -0.1514 -2.2467
  189SLPC   C2321813   1.163   5.642   7.030  0.0171  0.1651 -0.9567
  189SLPC   H3R21814   1.233   5.726   7.048  1.1314 -0.4798 -2.2051
  189SLPC   H3S21815   1.235   5.558   7.038 -0.0479  0.2089  0.2415
  189SLPC   C2421816   1.065   5.642   7.146  0.1690  1.3085  0.6411
  189SLPC   H4R21817   0.964   5.602   7.119 -0.1446  1.9328  0.8775
  189SLPC   H4S21818   1.044   5.749   7.169  0.3102  1.4051  0.3319
  189SLPC   C2521819   1.126   5.568   7.262 -0.3430  0.2210 -0.7954
  189SLPC   H5R21820   1.233   5.598   7.268 -0.6353  1.3571 -1.2061
  189SLPC   H5S21821   1.123   5.457   7.251  1.2169  0.1712 -0.8451
  189SLPC   C2621822   1.045   5.598   7.390  0.4417 -0.3687  0.2487
  189SLPC   H6R21823   0.944   5.554   7.381  0.4688 -0.6869  1.3563
  189SLPC   H6S21824   1.027   5.707   7.400  0.3562 -0.4535  1.0434
  189SLPC   C2721825   1.105   5.535   7.514 -0.0067 -0.5591 -0.3315
  189SLPC   H7R21826   1.194   5.587   7.556 -0.7618 -0.2125  0.8586
  189SLPC   H7S21827   1.151   5.435   7.495  0.2513 -0.4951 -0.0555
  189SLPC   C2821828   1.004   5.513   7.628 -0.1554  0.0217 -0.0149
  189SLPC   H8R21829   1.027   5.416   7.678  0.5451  0.8254  1.2448
  189SLPC   H8S21830   0.904   5.502   7.581  0.4127 -2.3978 -0.6911
  189SLPC   C2921831   0.992   5.634   7.719  0.6136  0.3010  0.5555
  189SLPC   H9R21832   0.990   5.725   7.658  2.5935 -0.6200 -0.9387
  189SLPC  C21021833   1.009   5.645   7.853 -0.2934  0.9598 -0.4734
  189SLPC  H10R21834   1.007   5.746   7.897 -0.8921  1.0827 -0.7769
  189SLPC  C21121835   1.031   5.541   7.958  0.2289  0.5713  0.5462
  189SLPC  H11R21836   1.134   5.504   7.940 -0.7918 -1.4448 -1.2795
  189SLPC  H11S21837   0.970   5.452   7.932 -1.2013  1.6033  0.2869
  189SLPC  C21221838   0.994   5.562   8.102  0.0832 -0.4845  0.5246
  189SLPC  H12R21839   0.988   5.668   8.133  4.4481 -0.4725  1.6784
  189SLPC  C21321840   0.965   5.474   8.199  0.3550  0.4315  0.1582
  189SLPC  H13R21841   0.923   5.506   8.296 -1.5959 -1.2685 -0.1082
  189SLPC  C21421842   0.970   5.325   8.184 -0.3096  0.0037  0.0022
  189SLPC  H14R21843   1.037   5.299   8.099 -0.5392 -0.0406 -0.1687
  189SLPC  H14S21844   0.869   5.286   8.159 -0.9136  1.7706 -0.3081
  189SLPC  C21521845   1.037   5.254   8.306 -0.6500  0.3216  0.0144
  189SLPC  H15R21846   1.140   5.288   8.330 -0.7622  0.8204 -0.2158
  189SLPC  H15S21847   1.057   5.148   8.278 -3.1293 -0.5359  1.2742
  189SLPC  C21621848   0.957   5.265   8.437 -0.1132 -0.0385 -0.2186
  189SLPC  H16R21849   0.851   5.285   8.408  0.2248 -1.4484 -2.5451
  189SLPC  H16S21850   0.998   5.351   8.494  1.4724 -0.4263 -0.7697
  189SLPC  C21721851   0.957   5.139   8.523  0.0745 -0.2680  0.4804
  189SLPC  H17R21852   1.059   5.121   8.563  1.0663 -0.6701 -2.1406
  189SLPC  H17S21853   0.926   5.060   8.451 -0.7076  2.0568 -1.8158
  189SLPC  C21821854   0.869   5.165   8.644 -0.8273 -0.2002 -1.0623
  189SLPC  H18R21855   0.895   5.267   8.680  1.2855 -0.8700 -0.5869
  189SLPC  H18S21856   0.881   5.085   8.721 -2.1934  0.5098 -0.0889
  189SLPC  H18T21857   0.764   5.170   8.610 -0.5288  1.1227 -1.8472
  189SLPC   C3321858   0.701   5.733   6.987 -0.5741 -0.1112  0.4132
  189SLPC   H3X21859   0.758   5.825   7.007 -1.3817  0.6443 -0.7304
  189SLPC   H3Y21860   0.776   5.652   6.972  0.0329  0.9407 -2.4633
  189SLPC   C3421861   0.600   5.688   7.092  0.2782  0.1012  0.2975
  189SLPC   H4X21862   0.563   5.584   7.082  1.0268 -0.1332 -0.0838
  189SLPC   H4Y21863   0.519   5.762   7.111  0.2451  0.6672 -1.8929
  189SLPC   C3521864   0.675   5.691   7.223 -0.4054 -0.5855 -1.2398
  189SLPC   H5X21865   0.701   5.798   7.238 -2.2051 -0.2024 -0.7148
  189SLPC   H5Y21866   0.771   5.637   7.209  0.2871  0.5453 -0.8913
  189SLPC   C3621867   0.583   5.635   7.331 -0.2674 -0.6000  0.4819
  189SLPC   H6X21868   0.560   5.527   7.317 -0.9154 -0.3131 -0.7441
  189SLPC   H6Y21869   0.484   5.686   7.332  0.0186 -0.0061 -0.3658
  189SLPC   C3721870   0.636   5.648   7.470 -0.3311  0.3971 -0.6558
  189SLPC   H7X21871   0.641   5.753   7.507  3.7672 -0.5488  1.8691
  189SLPC   H7Y21872   0.742   5.615   7.475 -0.2784  0.6530  0.0571
  189SLPC   C3821873   0.548   5.554   7.563  0.2715 -0.3001  0.4471
  189SLPC   H8X21874   0.560   5.454   7.516 -3.6380  0.6752 -2.9671
  189SLPC   H8Y21875   0.443   5.585   7.543  0.6977  1.6756  1.1620
  189SLPC   C3921876   0.582   5.571   7.716 -0.3134  0.1065  0.2715
  189SLPC   H9X21877   0.572   5.677   7.748 -3.2609 -1.1107  3.6068
  189SLPC   H9Y21878   0.680   5.529   7.744 -0.0768 -1.1488 -2.3056
  189SLPC  C31021879   0.483   5.512   7.811  0.1406  0.4145 -0.2233
  189SLPC  H10X21880   0.473   5.404   7.786  2.0233  0.3292 -0.6299
  189SLPC  H10Y21881   0.389   5.564   7.783 -1.2830 -1.7353  0.4725
  189SLPC  C31121882   0.527   5.536   7.958 -0.4273  0.6448  0.0931
  189SLPC  H11X21883   0.442   5.519   8.028 -0.5310  3.5968  0.7458
  189SLPC  H11Y21884   0.571   5.636   7.978  2.5638 -1.2846  4.0052
  189SLPC  C31221885   0.637   5.437   7.998 -0.2967  0.6096  0.3008
  189SLPC  H12X21886   0.666   5.467   8.101  0.3772  1.0766 -0.0214
  189SLPC  H12Y21887   0.734   5.452   7.945  0.9845 -1.3858  2.0018
  189SLPC  C31321888   0.606   5.282   7.993  0.0682 -0.5460  0.8489
  189SLPC  H13X21889   0.678   5.222   8.051  0.3423 -1.7492 -0.6944
  189SLPC  H13Y21890   0.604   5.244   7.889 -2.4246 -0.7046  0.9204
  189SLPC  C31421891   0.475   5.235   8.061 -0.3732  0.5815 -0.1087
  189SLPC  H14X21892   0.477   5.124   8.062  2.0428  0.5922  2.1868
  189SLPC  H14Y21893   0.396   5.271   7.992 -1.3154 -1.9393 -0.4113
  189SLPC  C31521894   0.446   5.285   8.205 -0.2552  0.0282  0.2330
  189SLPC  H15X21895   0.336   5.276   8.210 -0.3025  1.0769  1.5751
  189SLPC  H15Y21896   0.482   5.390   8.210 -0.5949  0.1019  1.3331
  189SLPC  C31621897   0.505   5.208   8.324 -0.7711  0.0497  0.1322
  189SLPC  H16X21898   0.461   5.259   8.413 -1.5767 -0.7941  0.2155
  189SLPC  H16Y21899   0.616   5.222   8.325 -0.8269  0.6669  2.7291
  189SLPC  C31721900   0.445   5.067   8.337  0.5708 -0.2130 -0.0293
  189SLPC  H17X21901   0.489   5.004   8.257  2.9201  0.8946  0.3455
  189SLPC  H17Y21902   0.337   5.082   8.316  0.6393 -1.3233 -1.2636
  189SLPC  C31821903   0.453   4.997   8.466  0.0162 -0.2603  0.8433
  189SLPC  H18X21904   0.406   4.897   8.448  1.4408 -0.8089  0.0780
  189SLPC  H18Y21905   0.394   5.048   8.545 -0.0711  1.7518 -0.4978
  189SLPC  H18Z21906   0.554   4.995   8.513  0.3071 -0.7315  0.2128
  190SLPC     N21907   1.938   4.816   6.201  0.3464  0.2146  0.3076
  190SLPC   C1321908   1.887   4.798   6.342  0.2382  0.6981  0.6194
  190SLPC  H13A21909   1.871   4.891   6.394 -1.0811  0.0198  1.4673
  190SLPC  H13B21910   1.790   4.750   6.342  0.1057  0.9674  1.8950
  190SLPC  H13C21911   1.965   4.742   6.391  0.4043  0.2681 -0.1236
  190SLPC   C1421912   1.857   4.920   6.142 -0.6385 -0.1692  0.5916
  190SLPC  H14A21913   1.853   5.007   6.205  1.7442  0.2528  0.2276
  190SLPC  H14B21914   1.886   4.949   6.042  0.4175  0.0144  0.9485
  190SLPC  H14C21915   1.756   4.883   6.131 -1.8258  2.4411  2.3435
  190SLPC   C1521916   1.936   4.687   6.122 -0.1984 -0.3752 -0.3638
  190SLPC  H15A21917   2.003   4.615   6.166  0.6516  1.2311  1.0266
  190SLPC  H15B21918   1.839   4.640   6.131 -0.0501 -0.7522 -0.7422
  190SLPC  H15C21919   1.954   4.702   6.016  0.1626  1.2872 -0.0953
  190SLPC   C1221920   2.081   4.867   6.201 -0.2862 -0.0750 -0.5975
  190SLPC  H12A21921   2.095   4.947   6.273  1.7628 -0.8822 -0.0655
  190SLPC  H12B21922   2.104   4.911   6.105  1.4599 -0.8218 -0.5434
  190SLPC   C1121923   2.186   4.759   6.231 -0.3102 -1.0890 -0.0193
  190SLPC  H11A21924   2.286   4.807   6.236 -0.7198 -0.4507  3.4904
  190SLPC  H11B21925   2.197   4.695   6.141 -2.7707  0.4300 -1.4814
  190SLPC     P21926   2.257   4.712   6.487  0.3796  0.0004  0.0240
  190SLPC   O1321927   2.397   4.660   6.474 -0.3848  0.0241 -0.4791
  190SLPC   O1421928   2.242   4.860   6.514  0.0238  0.2049  0.0098
  190SLPC   O1221929   2.169   4.686   6.353 -0.4721 -0.0186 -0.5153
  190SLPC   O1121930   2.174   4.637   6.599  0.0127  0.2066  0.9522
  190SLPC    C121931   2.104   4.519   6.575  0.6929  0.0587 -0.1222
  190SLPC    HA21932   2.094   4.486   6.469 -1.4231 -3.4277  1.0960
  190SLPC    HB21933   2.155   4.437   6.630 -1.0926 -0.6970  0.4189
  190SLPC    C221934   1.948   4.532   6.618  0.0261  0.1518 -0.1658
  190SLPC    HS21935   1.908   4.617   6.558  0.7230  0.8083  0.2716
  190SLPC   O2121936   1.942   4.548   6.765  0.0764  0.3177 -0.5946
  190SLPC   C2121937   1.907   4.664   6.810  0.2358  0.1356 -0.1258
  190SLPC   O2221938   1.892   4.767   6.743 -0.5399  0.8641 -0.1846
  190SLPC   C2221939   1.896   4.652   6.963  0.8635  0.2798  0.4152
  190SLPC   H2R21940   1.975   4.580   6.993 -0.3539 -0.5985  1.5576
  190SLPC   H2S21941   1.928   4.750   7.005  0.3867  0.1902  0.9712
  190SLPC    C321942   1.876   4.404   6.570 -0.2425  0.0161  0.1613
  190SLPC    HX21943   1.932   4.309   6.587 -2.0013 -0.8985  1.0458
  190SLPC    HY21944   1.869   4.397   6.460 -2.4446  0.9028  0.2326
  190SLPC   O3121945   1.740   4.395   6.624 -0.3494  0.3335  0.0453
  190SLPC   C3121946   1.708   4.286   6.680  0.4366  1.0004 -0.3954
  190SLPC   O3221947   1.777   4.183   6.691 -0.0468 -0.3482 -0.2774
  190SLPC   C3221948   1.572   4.306   6.752 -0.0013 -0.2573  0.1717
  190SLPC   H2X21949   1.493   4.304   6.673  2.4643 -0.6581 -2.3778
  190SLPC   H2Y21950   1.575   4.399   6.813  1.2094  1.6464 -2.6771
  190SLPC   C2321951   1.753   4.623   7.025 -0.1718 -0.4270  0.0684
  190SLPC   H3R21952   1.712   4.532   6.975 -0.5468  0.6667 -1.6371
  190SLPC   H3S21953   1.691   4.714   7.010  1.5685  0.6411 -0.7436
  190SLPC   C2421954   1.760   4.588   7.180 -0.5564 -0.0757 -0.0130
  190SLPC   H4R21955   1.812   4.667   7.238 -2.1434  1.3455 -0.4641
  190SLPC   H4S21956   1.814   4.491   7.185  0.1624  0.2693 -0.8617
  190SLPC   C2521957   1.624   4.552   7.238  0.6124  0.2583  0.2786
  190SLPC   H5R21958   1.565   4.475   7.184 -0.3618  1.3281 -0.1951
  190SLPC   H5S21959   1.559   4.636   7.205 -1.0509 -0.8550  0.6523
  190SLPC   C2621960   1.624   4.536   7.391 -0.2741 -0.0547  0.4346
  190SLPC   H6R21961   1.519   4.536   7.426  0.0191  3.8085  1.5509
  190SLPC   H6S21962   1.656   4.628   7.445 -2.0954  0.9485 -0.1533
  190SLPC   C2721963   1.698   4.412   7.442 -0.0596 -0.5917  0.5967
  190SLPC   H7R21964   1.802   4.428   7.408 -0.0687 -0.9227  0.4105
  190SLPC   H7S21965   1.656   4.324   7.390 -0.4262  0.4612 -0.9337
  190SLPC   C2821966   1.692   4.400   7.591 -0.2822  0.7671 -0.6507
  190SLPC   H8R21967   1.743   4.306   7.624  2.0053  2.3160  0.4126
  190SLPC   H8S21968   1.589   4.397   7.632 -0.2315 -0.2591 -0.5811
  190SLPC   C2921969   1.762   4.505   7.672  0.8676  0.1732  0.1404
  190SLPC   H9R21970   1.854   4.533   7.618  0.9568  0.2518  0.3361
  190SLPC  C21021971   1.722   4.567   7.783  0.8181 -0.1564 -0.1570
  190SLPC  H10R21972   1.805   4.625   7.826  0.9322 -0.8355  0.5569
  190SLPC  C21121973   1.587   4.548   7.848  0.2567 -0.1083  0.3647
  190SLPC  H11R21974   1.535   4.459   7.806  1.9014 -1.9281  2.0783
  190SLPC  H11S21975   1.531   4.638   7.816  0.4594  0.1301  0.6716
  190SLPC  C21221976   1.589   4.538   8.000 -0.1061 -0.2338 -0.0677
  190SLPC  H12R21977   1.632   4.442   8.031  0.8000 -0.1864 -1.1667
  190SLPC  C21321978   1.517   4.606   8.094 -0.1026  0.1567 -0.0914
  190SLPC  H13R21979   1.535   4.601   8.202  0.6892 -1.0824 -0.2676
  190SLPC  C21421980   1.415   4.707   8.056  0.1942  0.5180 -0.5216
  190SLPC  H14R21981   1.324   4.663   8.008 -0.0508  1.5359 -1.0206
  190SLPC  H14S21982   1.456   4.782   7.984  2.1453 -0.7033 -0.7111
  190SLPC  C21521983   1.359   4.797   8.167  0.1056 -0.5216  0.4531
  190SLPC  H15R21984   1.301   4.734   8.238 -2.0027  0.3820 -0.4082
  190SLPC  H15S21985   1.287   4.869   8.122  0.8384 -0.6841 -1.0071
  190SLPC  C21621986   1.457   4.882   8.247 -0.2376 -0.0593 -0.6968
  190SLPC  H16R21987   1.525   4.925   8.172  1.7341 -0.9662  0.5130
  190SLPC  H16S21988   1.509   4.828   8.329  1.6966 -0.2123 -1.9916
  190SLPC  C21721989   1.385   4.990   8.324  0.1555  0.8000 -0.5266
  190SLPC  H17R21990   1.329   5.050   8.249  0.5391  0.8160 -0.8042
  190SLPC  H17S21991   1.450   5.069   8.369  0.8457 -0.4899  0.7646
  190SLPC  C21821992   1.289   4.935   8.426 -0.3286  0.5153  0.5833
  190SLPC  H18R21993   1.345   4.888   8.510  1.8540  0.2938 -0.9731
  190SLPC  H18S21994   1.212   4.877   8.372  1.8267 -1.1533 -0.7605
  190SLPC  H18T21995   1.236   5.019   8.477 -0.2813 -0.0833  1.6292
  190SLPC   C3321996   1.558   4.189   6.849  0.9746 -0.3621 -0.0060
  190SLPC   H3X21997   1.650   4.174   6.909  0.3616  2.7259  1.8444
  190SLPC   H3Y21998   1.559   4.100   6.783  1.2763 -1.4512  1.4541
  190SLPC   C3421999   1.432   4.184   6.929  0.2845 -0.4540 -0.1084
  190SLPC   H4X22000   1.432   4.097   6.998 -0.6085 -1.4108 -1.3105
  190SLPC   H4Y22001   1.347   4.158   6.863 -0.4898 -1.7146  1.3464
  190SLPC   C3522002   1.388   4.312   6.998 -0.2010  0.3950  0.0985
  190SLPC   H5X22003   1.361   4.384   6.918  2.4067 -1.1476 -2.2597
  190SLPC   H5Y22004   1.480   4.359   7.038  1.4830 -2.1679 -0.6366
  190SLPC   C3622005   1.273   4.293   7.104  0.6547 -0.0150  0.0201
  190SLPC   H6X22006   1.193   4.229   7.059  0.5916  0.8290 -1.0901
  190SLPC   H6Y22007   1.230   4.390   7.137  2.1974  1.1157 -1.2105
  190SLPC   C3722008   1.324   4.234   7.228 -0.4037  0.6148 -0.1741
  190SLPC   H7X22009   1.414   4.283   7.272  1.3880 -1.9837 -0.8150
  190SLPC   H7Y22010   1.362   4.131   7.213  1.0198  0.9744  0.7759
  190SLPC   C3822011   1.212   4.228   7.333  0.5568 -0.3620  0.0691
  190SLPC   H8X22012   1.143   4.142   7.323 -0.3987  0.3185  0.6962
  190SLPC   H8Y22013   1.159   4.326   7.331 -0.7064 -1.0438 -4.1324
  190SLPC   C3922014   1.274   4.195   7.474  0.3170 -0.2942  0.5092
  190SLPC   H9X22015   1.349   4.274   7.494 -0.7448  0.1315  2.9884
  190SLPC   H9Y22016   1.317   4.093   7.470  0.3648 -0.2699  0.4111
  190SLPC  C31022017   1.170   4.193   7.593  0.2392  0.3968 -0.4184
  190SLPC  H10X22018   1.106   4.103   7.583 -0.3269  0.5827  1.4055
  190SLPC  H10Y22019   1.107   4.284   7.601  1.5452  1.4583 -1.6749
  190SLPC  C31122020   1.252   4.175   7.724  0.0088  0.5167 -0.7164
  190SLPC  H11X22021   1.340   4.242   7.732  0.5109  0.3612 -4.1420
  190SLPC  H11Y22022   1.295   4.072   7.723 -5.1244 -1.8003 -1.0357
  190SLPC  C31222023   1.167   4.187   7.852 -1.1061 -0.2131 -0.0101
  190SLPC  H12X22024   1.225   4.164   7.944 -1.2564  1.2882  0.4704
  190SLPC  H12Y22025   1.093   4.104   7.844 -0.6152 -0.8085  1.3852
  190SLPC  C31322026   1.096   4.326   7.876  1.1553  0.5048  0.3650
  190SLPC  H13X22027   1.017   4.339   7.799  1.2293  2.4951  0.5952
  190SLPC  H13Y22028   1.170   4.401   7.841  0.5716 -0.3239 -2.8030
  190SLPC  C31422029   1.045   4.361   8.009  0.2632  0.0078  0.2809
  190SLPC  H14X22030   0.958   4.298   8.038 -0.9820  1.7031  0.2988
  190SLPC  H14Y22031   1.012   4.467   8.009 -0.9861 -0.3342 -1.9283
  190SLPC  C31522032   1.146   4.360   8.122  0.2292  0.2194  0.1633
  190SLPC  H15X22033   1.236   4.417   8.089  1.3386 -1.1441  0.7802
  190SLPC  H15Y22034   1.175   4.257   8.152  0.0114 -0.3096 -1.4102
  190SLPC  C31622035   1.103   4.431   8.252 -0.4425 -0.6783 -0.2551
  190SLPC  H16X22036   1.073   4.530   8.213  0.2379 -0.3033  0.1652
  190SLPC  H16Y22037   1.185   4.448   8.325  0.8698 -0.2353 -1.7973
  190SLPC  C31722038   0.992   4.365   8.320 -0.3446 -0.1463 -0.4236
  190SLPC  H17X22039   0.927   4.323   8.241 -0.4694 -1.3891  0.3300
  190SLPC  H17Y22040   0.941   4.446   8.378 -1.1494 -1.5972  0.9288
  190SLPC  C31822041   1.043   4.262   8.423 -0.4630 -0.1047  1.2078
  190SLPC  H18X22042   1.105   4.309   8.503  1.3054 -0.4217  0.0627
  190SLPC  H18Y22043   1.088   4.179   8.364 -2.1799 -1.4701  1.7851
  190SLPC  H18Z22044   0.960   4.206   8.472 -0.2253 -0.6309  1.0185
  191SLPC     N22045   1.100   0.853   5.811  0.4750 -0.4318 -0.2236
  191SLPC   C1322046   0.952   0.863   5.795 -0.2995 -0.1348  0.3475
  191SLPC  H13A22047   0.917   0.956   5.837  2.3061  0.2012  1.9161
  191SLPC  H13B22048   0.925   0.861   5.690  2.1664 -2.0401 -0.3082
  191SLPC  H13C22049   0.910   0.777   5.845  0.4607 -0.1903  0.8966
  191SLPC   C1422050   1.169   0.969   5.758  0.3386 -0.6978 -0.0257
  191SLPC  H14A22051   1.133   1.001   5.661 -0.3457 -1.9933 -0.2147
  191SLPC  H14B22052   1.158   1.061   5.813 -0.5125  0.7586 -2.5197
  191SLPC  H14C22053   1.274   0.946   5.750 -0.0533 -1.7917 -2.5286
  191SLPC   C1522054   1.131   0.734   5.719 -0.3788  0.4517 -0.3667
  191SLPC  H15A22055   1.127   0.767   5.617 -0.3624 -0.7726 -0.7692
  191SLPC  H15B22056   1.233   0.704   5.744 -0.8457 -1.6271 -0.8209
  191SLPC  H15C22057   1.067   0.651   5.745  1.2528 -1.0336 -0.9932
  191SLPC   C1222058   1.136   0.829   5.956  0.9179 -0.1953 -0.4711
  191SLPC  H12A22059   1.105   0.730   5.988 -1.9641 -0.0003 -2.4056
  191SLPC  H12B22060   1.089   0.906   6.016 -2.2302 -2.2690 -0.1418
  191SLPC   C1122061   1.288   0.846   5.995  0.3479 -0.4590  0.7065
  191SLPC  H11A22062   1.289   0.828   6.105 -0.6305 -2.9822  0.3482
  191SLPC  H11B22063   1.318   0.952   5.987  0.3853 -0.6291 -1.5136
  191SLPC     P22064   1.386   0.600   5.947  0.0798  0.0876 -0.1768
  191SLPC   O1322065   1.434   0.545   5.821 -0.6806 -0.3024 -0.3280
  191SLPC   O1422066   1.466   0.549   6.064  0.5412 -0.0215 -0.4945
  191SLPC   O1222067   1.383   0.757   5.928  0.3700  0.0152 -0.2876
  191SLPC   O1122068   1.234   0.560   5.970 -0.7539  0.5678  0.8730
  191SLPC    C122069   1.212   0.428   6.018  0.2292 -0.1386  0.9955
  191SLPC    HA22070   1.146   0.377   5.944 -0.7861  1.1098  1.0180
  191SLPC    HB22071   1.302   0.366   6.038 -1.4599 -2.8165  0.5478
  191SLPC    C222072   1.117   0.430   6.147  0.0176 -0.0309 -0.2770
  191SLPC    HS22073   1.031   0.496   6.119 -0.3654 -0.3703  0.0899
  191SLPC   O2122074   1.199   0.473   6.261 -0.0994 -0.4803  0.5639
  191SLPC   C2122075   1.122   0.538   6.350 -0.4023  0.4210  0.3330
  191SLPC   O2222076   1.004   0.563   6.338 -0.0280  0.7088  0.3184
  191SLPC   C2222077   1.211   0.586   6.462  0.5077 -0.3750 -0.2294
  191SLPC   H2R22078   1.310   0.583   6.413  0.7501 -0.4751  0.2648
  191SLPC   H2S22079   1.195   0.696   6.466  1.1718 -0.1833 -2.2070
  191SLPC    C322080   1.056   0.283   6.171 -0.1924 -0.5928  0.1193
  191SLPC    HX22081   1.148   0.226   6.197 -1.1554 -1.2932  2.1128
  191SLPC    HY22082   1.008   0.240   6.080  0.8153 -1.7686  0.1280
  191SLPC   O3122083   0.975   0.281   6.290  0.0055  0.2553  0.3324
  191SLPC   C3122084   0.847   0.315   6.266  0.3866  0.4955 -0.3242
  191SLPC   O3222085   0.794   0.339   6.161 -0.2572 -0.3331 -0.3894
  191SLPC   C3222086   0.771   0.312   6.396  0.5244 -0.1786  0.4737
  191SLPC   H2X22087   0.667   0.348   6.382  1.1284  1.9180  1.2186
  191SLPC   H2Y22088   0.823   0.381   6.466 -2.3126  2.6384 -0.0873
  191SLPC   C2322089   1.197   0.522   6.606  0.4006 -0.3976  0.1179
  191SLPC   H3R22090   1.277   0.553   6.677  0.6117  1.2718 -0.8189
  191SLPC   H3S22091   1.198   0.411   6.597  0.3649 -0.3687 -0.2492
  191SLPC   C2422092   1.061   0.557   6.676  0.7289  0.3300 -0.1602
  191SLPC   H4R22093   0.985   0.558   6.596  1.4757 -0.2589 -0.8830
  191SLPC   H4S22094   1.083   0.663   6.701  0.6662 -0.1203  1.8667
  191SLPC   C2522095   1.021   0.466   6.790  0.1411 -0.6253  0.0393
  191SLPC   H5R22096   1.105   0.462   6.862 -0.6491 -1.2544  0.9250
  191SLPC   H5S22097   1.000   0.363   6.754  0.6463 -0.3363 -1.1126
  191SLPC   C2622098   0.885   0.515   6.851  0.3638  0.0527  0.5779
  191SLPC   H6R22099   0.806   0.534   6.776 -1.1132  0.1553  2.1152
  191SLPC   H6S22100   0.909   0.615   6.892  1.8681 -0.7732  1.7875
  191SLPC   C2722101   0.817   0.424   6.951 -0.2031  0.3692 -0.7781
  191SLPC   H7R22102   0.790   0.334   6.892  1.3545 -0.6612  0.0624
  191SLPC   H7S22103   0.717   0.459   6.985  0.4665  0.8047  0.7585
  191SLPC   C2822104   0.892   0.387   7.084 -0.1821  0.0683 -0.3825
  191SLPC   H8R22105   0.901   0.473   7.153  1.8584 -0.9626  0.6617
  191SLPC   H8S22106   0.999   0.366   7.062 -0.3820 -1.4267  0.0027
  191SLPC   C2922107   0.817   0.278   7.161  0.4503  0.0681  0.3476
  191SLPC   H9R22108   0.715   0.270   7.121  0.3606  1.3290  0.3143
  191SLPC  C21022109   0.865   0.211   7.268 -0.6597 -0.1474  0.0118
  191SLPC  H10R22110   0.798   0.140   7.317  0.8760 -0.3939  1.8037
  191SLPC  C21122111   0.994   0.235   7.336 -0.3983 -0.0795 -0.1531
  191SLPC  H11R22112   1.043   0.329   7.303  1.5679 -0.9409  0.2356
  191SLPC  H11S22113   1.072   0.167   7.296 -1.0986 -1.0787  0.1557
  191SLPC  C21222114   0.998   0.238   7.482 -0.0693  0.9884  0.8051
  191SLPC  H12R22115   0.904   0.221   7.537 -1.7878  1.3185 -1.9127
  191SLPC  C21322116   1.108   0.255   7.552 -0.4980 -0.8844  0.6106
  191SLPC  H13R22117   1.108   0.243   7.661  0.6750 -0.7066  0.6324
  191SLPC  C21422118   1.249   0.271   7.491 -0.0025  0.0391 -0.2103
  191SLPC  H14R22119   1.268   0.377   7.464  1.7263 -0.2832 -0.3128
  191SLPC  H14S22120   1.269   0.206   7.403  2.1942 -0.0961  0.3646
  191SLPC  C21522121   1.349   0.226   7.599  0.0166 -0.7036  0.0445
  191SLPC  H15R22122   1.446   0.219   7.545 -0.0066  0.1280 -0.1122
  191SLPC  H15S22123   1.342   0.122   7.638  1.6200 -1.1815 -0.8676
  191SLPC  C21622124   1.353   0.308   7.722 -0.4991 -0.1243  0.0567
  191SLPC  H16R22125   1.264   0.306   7.788 -0.1682  1.5695  0.5775
  191SLPC  H16S22126   1.362   0.412   7.686 -2.2528 -0.5167 -1.6014
  191SLPC  C21722127   1.462   0.275   7.827 -0.3212  0.5212  0.4857
  191SLPC  H17R22128   1.454   0.171   7.864  0.4136 -0.6990 -2.6725
  191SLPC  H17S22129   1.450   0.345   7.913  1.2223  0.7960  0.4894
  191SLPC  C21822130   1.606   0.306   7.778  0.6362  0.1340  0.2090
  191SLPC  H18R22131   1.671   0.322   7.866  0.8257 -1.6177  0.3965
  191SLPC  H18S22132   1.612   0.397   7.714 -0.6420 -0.5277 -0.8829
  191SLPC  H18T22133   1.648   0.220   7.723 -0.9498 -0.2239 -0.4977
  191SLPC   C3322134   0.777   0.182   6.477 -0.5058 -0.1919  0.1415
  191SLPC   H3X22135   0.860   0.122   6.435 -0.3451  1.9217 -2.6911
  191SLPC   H3Y22136   0.691   0.119   6.444 -2.1917  1.3666  1.3956
  191SLPC   C3422137   0.800   0.200   6.626  0.6948  0.3530 -0.5698
  191SLPC   H4X22138   0.724   0.275   6.658  1.4273  0.2684  1.4432
  191SLPC   H4Y22139   0.901   0.243   6.643  1.7493 -0.3494 -4.4782
  191SLPC   C3522140   0.793   0.069   6.701  0.0972  0.6289 -0.2516
  191SLPC   H5X22141   0.878   0.067   6.773 -0.5281 -0.6424  0.4883
  191SLPC   H5Y22142   0.803  -0.005   6.619 -0.2033  1.2467 -0.8423
  191SLPC   C3622143   0.658   0.034   6.770  0.1825 -0.1658 -0.0922
  191SLPC   H6X22144   0.569   0.044   6.704  0.0800  0.5468  0.1517
  191SLPC   H6Y22145   0.654   0.103   6.857  1.5411 -1.7534  1.2595
  191SLPC   C3722146   0.663  -0.103   6.843  0.3418  0.9714  0.4339
  191SLPC   H7X22147   0.657  -0.176   6.760 -3.0877  1.5141  0.1344
  191SLPC   H7Y22148   0.569  -0.113   6.901 -0.8038  1.5952 -1.2788
  191SLPC   C3822149   0.774  -0.097   6.949  0.0164  0.2963  0.2112
  191SLPC   H8X22150   0.795   0.010   6.968 -0.4058  0.0930  1.8937
  191SLPC   H8Y22151   0.873  -0.127   6.908  0.1146 -1.5153  1.7120
  191SLPC   C3922152   0.733  -0.181   7.074  0.5209  0.0383  0.0436
  191SLPC   H9X22153   0.734  -0.289   7.047  0.6939  0.0455  0.0202
  191SLPC   H9Y22154   0.633  -0.153   7.114  0.3283 -1.4654  0.6529
  191SLPC  C31022155   0.830  -0.167   7.197 -0.2241 -0.9228 -0.2647
  191SLPC  H10X22156   0.876  -0.067   7.211  1.0116 -1.1443 -2.4370
  191SLPC  H10Y22157   0.915  -0.233   7.167  1.2082  0.8151 -0.1640
  191SLPC  C31122158   0.774  -0.222   7.325  0.4973 -0.1077  0.0574
  191SLPC  H11X22159   0.853  -0.267   7.390 -0.9561 -1.5316  0.8624
  191SLPC  H11Y22160   0.725  -0.319   7.302 -0.1927 -0.3902  2.5565
  191SLPC  C31222161   0.679  -0.134   7.404 -0.0878  0.5624  0.3041
  191SLPC  H12X22162   0.599  -0.104   7.333  1.6358 -0.5391 -2.1529
  191SLPC  H12Y22163   0.739  -0.042   7.420 -0.3490  0.9829 -1.1612
  191SLPC  C31322164   0.620  -0.193   7.536  0.6651  0.3394 -0.8582
  191SLPC  H13X22165   0.572  -0.290   7.511 -0.9019  0.7379  0.5106
  191SLPC  H13Y22166   0.541  -0.131   7.584  0.8408  0.7670 -1.1149
  191SLPC  C31422167   0.723  -0.212   7.644  0.4549  0.0523  0.1181
  191SLPC  H14X22168   0.757  -0.107   7.658  2.0078 -0.2513 -1.2446
  191SLPC  H14Y22169   0.812  -0.264   7.602  1.4628  1.3316  0.6409
  191SLPC  C31522170   0.678  -0.288   7.766 -0.1696 -0.0305 -0.8028
  191SLPC  H15X22171   0.643  -0.386   7.726 -0.4661  0.5828 -2.0844
  191SLPC  H15Y22172   0.596  -0.231   7.814 -1.6487 -1.5305 -1.4587
  191SLPC  C31622173   0.792  -0.283   7.870  0.1590  0.7470 -0.0822
  191SLPC  H16X22174   0.843  -0.185   7.852  0.3861  0.1943 -2.6326
  191SLPC  H16Y22175   0.868  -0.356   7.834 -2.0166 -1.4557 -0.2841
  191SLPC  C31722176   0.754  -0.313   8.010  0.0584  0.0434 -0.5911
  191SLPC  H17X22177   0.675  -0.241   8.042  0.4841 -0.5473  1.9049
  191SLPC  H17Y22178   0.837  -0.301   8.083  0.8140 -0.2677 -1.3936
  191SLPC  C31822179   0.696  -0.454   8.038  0.1857 -0.6118 -0.3551
  191SLPC  H18X22180   0.763  -0.531   7.995  0.1908 -0.5349 -0.4844
  191SLPC  H18Y22181   0.599  -0.459   7.984 -0.2634  0.1632  0.3616
  191SLPC  H18Z22182   0.672  -0.467   8.146  0.8607 -0.2162 -0.1584
  192SLPC     N22183   1.374   1.327   6.568  0.2252  0.2384  0.8190
  192SLPC   C1322184   1.383   1.394   6.706 -0.7233  0.7125  0.4171
  192SLPC  H13A22185   1.392   1.317   6.782  0.7695 -0.5580 -1.0068
  192SLPC  H13B22186   1.477   1.446   6.717 -1.0626  2.2638 -3.3767
  192SLPC  H13C22187   1.300   1.462   6.724  0.9631  2.5373  1.5001
  192SLPC   C1422188   1.363   1.433   6.464 -0.1278 -0.5150 -0.0060
  192SLPC  H14A22189   1.311   1.514   6.512 -0.9230 -0.6890 -0.5555
  192SLPC  H14B22190   1.449   1.479   6.418 -0.0485 -0.2221  0.4354
  192SLPC  H14C22191   1.308   1.397   6.378  1.8917 -0.3977 -1.3656
  192SLPC   C1522192   1.261   1.230   6.562  0.0795  0.0303 -0.6238
  192SLPC  H15A22193   1.267   1.183   6.465  3.1332  1.7740 -1.3641
  192SLPC  H15B22194   1.263   1.154   6.639 -2.4106 -0.2645 -0.8280
  192SLPC  H15C22195   1.167   1.282   6.553 -0.7658 -1.5543 -1.1721
  192SLPC   C1222196   1.500   1.250   6.545 -0.5059  0.3138  0.2023
  192SLPC  H12A22197   1.521   1.171   6.615  3.9313 -0.7848 -2.2169
  192SLPC  H12B22198   1.587   1.313   6.555 -0.6483  0.5765 -0.2062
  192SLPC   C1122199   1.521   1.186   6.402  0.8692 -0.2214 -0.3106
  192SLPC  H11A22200   1.625   1.146   6.406  1.2936  0.6495 -1.9175
  192SLPC  H11B22201   1.520   1.265   6.324  2.0891 -1.0714 -1.2071
  192SLPC     P22202   1.443   0.946   6.447 -0.2403  0.5284 -0.4158
  192SLPC   O1322203   1.314   0.933   6.509  0.5252 -0.2016  0.1953
  192SLPC   O1422204   1.484   0.835   6.361 -0.5871  0.3529 -0.1042
  192SLPC   O1222205   1.432   1.087   6.374  0.2180  0.1575 -0.3044
  192SLPC   O1122206   1.547   0.966   6.565 -0.9444  0.1342 -0.1298
  192SLPC    C122207   1.622   0.855   6.625 -0.1893 -0.3022  0.5039
  192SLPC    HA22208   1.563   0.762   6.611 -0.3717  0.1274 -1.8667
  192SLPC    HB22209   1.715   0.851   6.564 -0.7162  0.9358 -0.4018
  192SLPC    C222210   1.648   0.883   6.769  0.0363 -0.0025  0.2587
  192SLPC    HS22211   1.689   0.791   6.816 -1.3663 -0.7140  0.1158
  192SLPC   O2122212   1.527   0.919   6.837  0.4607  0.0457  0.3765
  192SLPC   C2122213   1.447   0.810   6.853 -1.0159  0.1696 -0.0224
  192SLPC   O2222214   1.480   0.697   6.833  0.0498  0.4216  0.6311
  192SLPC   C2222215   1.322   0.857   6.926 -0.9938  0.1050  0.7272
  192SLPC   H2R22216   1.252   0.896   6.848  0.7223  3.4076  0.7991
  192SLPC   H2S22217   1.287   0.772   6.989  0.8749  0.5502  2.4062
  192SLPC    C322218   1.748   1.004   6.780  0.2354 -0.1877 -0.6172
  192SLPC    HX22219   1.679   1.090   6.767 -1.7390 -1.6015  0.1461
  192SLPC    HY22220   1.826   0.995   6.701  0.6322  0.7438 -0.3256
  192SLPC   O3122221   1.803   1.004   6.913 -0.3740  0.2136 -0.3994
  192SLPC   C3122222   1.895   1.102   6.932  0.2281  0.9452  0.9366
  192SLPC   O3222223   1.930   1.172   6.840 -0.4739 -0.1344  0.0425
  192SLPC   C3222224   1.940   1.103   7.070  0.3368  0.1426 -0.8559
  192SLPC   H2X22225   1.996   1.010   7.091  0.7925 -0.1577 -3.2487
  192SLPC   H2Y22226   1.851   1.101   7.137  0.6917  1.0266 -0.3415
  192SLPC   C2322227   1.350   0.961   7.032 -0.0280 -0.5763 -0.5975
  192SLPC   H3R22228   1.389   1.052   6.982 -0.4578 -0.3903 -0.5937
  192SLPC   H3S22229   1.428   0.928   7.104  1.9169 -1.3523 -2.9647
  192SLPC   C2422230   1.227   1.013   7.110  0.8536  0.5283 -0.0165
  192SLPC   H4R22231   1.253   1.077   7.197 -0.1978  0.4916  0.3301
  192SLPC   H4S22232   1.187   0.925   7.166  0.2791 -0.6299 -2.1819
  192SLPC   C2522233   1.116   1.075   7.016 -0.0684  0.5322 -0.6890
  192SLPC   H5R22234   1.048   1.001   6.967  0.7134  0.8924 -2.3448
  192SLPC   H5S22235   1.169   1.136   6.941  3.1911 -1.1786  0.1002
  192SLPC   C2622236   1.019   1.164   7.094  0.3245 -0.0204 -0.2371
  192SLPC   H6R22237   1.063   1.264   7.116  0.7212 -0.2286 -0.0755
  192SLPC   H6S22238   1.002   1.115   7.192  0.2432  1.3830  0.4518
  192SLPC   C2722239   0.894   1.210   7.021  0.4736 -1.0159 -0.1736
  192SLPC   H7R22240   0.866   1.111   6.978 -0.0652 -0.4894 -1.0620
  192SLPC   H7S22241   0.919   1.276   6.935 -1.7590 -1.4576 -1.2277
  192SLPC   C2822242   0.778   1.257   7.110 -0.5364 -0.2030 -0.7231
  192SLPC   H8R22243   0.775   1.190   7.199 -0.5868 -2.5208 -2.4155
  192SLPC   H8S22244   0.679   1.245   7.060  0.1268 -1.5877 -1.7543
  192SLPC   C2922245   0.807   1.403   7.139  0.6285  0.8225  0.7269
  192SLPC   H9R22246   0.769   1.464   7.056  0.0953 -1.6437 -0.9268
  192SLPC  C21022247   0.858   1.451   7.244 -0.2135 -0.3465 -0.2969
  192SLPC  H10R22248   0.873   1.560   7.241 -0.8328 -0.2597 -0.2481
  192SLPC  C21122249   0.912   1.378   7.371  0.1329  0.1675  0.5316
  192SLPC  H11R22250   0.965   1.285   7.341 -1.6945 -0.7236  0.0401
  192SLPC  H11S22251   0.830   1.344   7.437 -1.4953  1.6153 -0.6864
  192SLPC  C21222252   1.010   1.463   7.450  0.0131  0.9737 -0.0571
  192SLPC  H12R22253   0.962   1.538   7.514 -0.8166  0.8603 -0.5467
  192SLPC  C21322254   1.147   1.465   7.450  0.3333  0.3765 -0.1052
  192SLPC  H13R22255   1.189   1.537   7.523  0.1297  2.2985 -1.8353
  192SLPC  C21422256   1.240   1.372   7.366 -0.1552  0.0699 -0.7703
  192SLPC  H14R22257   1.184   1.280   7.335  0.8958 -0.9126  0.1735
  192SLPC  H14S22258   1.335   1.349   7.418 -0.0535 -0.7052 -1.2870
  192SLPC  C21522259   1.284   1.447   7.233  0.9044  0.8996 -0.3609
  192SLPC  H15R22260   1.327   1.545   7.265 -0.5024  1.3635  0.1516
  192SLPC  H15S22261   1.198   1.463   7.164  2.1425 -0.9635 -2.3976
  192SLPC  C21622262   1.396   1.380   7.154  0.2065  0.3381  0.8675
  192SLPC  H16R22263   1.428   1.449   7.073 -1.8819 -0.5714 -0.7861
  192SLPC  H16S22264   1.362   1.287   7.103  0.3974  0.1073  1.1536
  192SLPC  C21722265   1.526   1.344   7.232  0.0734  0.0119 -0.4904
  192SLPC  H17R22266   1.569   1.432   7.285 -0.3705  0.5197 -0.9671
  192SLPC  H17S22267   1.501   1.263   7.303 -0.8513 -0.3576 -1.2249
  192SLPC  C21822268   1.623   1.285   7.127 -0.3873  0.1590  0.2934
  192SLPC  H18R22269   1.590   1.202   7.062 -2.4129  0.5799  0.7673
  192SLPC  H18S22270   1.718   1.258   7.179  0.0005  1.3385  0.2252
  192SLPC  H18T22271   1.649   1.368   7.058  0.5713 -0.8532 -0.5873
  192SLPC   C3322272   2.018   1.233   7.104  0.1317 -0.2012 -0.3369
  192SLPC   H3X22273   1.965   1.328   7.083  0.4965  0.3625  1.2142
  192SLPC   H3Y22274   2.111   1.222   7.044  0.7377 -0.0854  0.5706
  192SLPC   C3422275   2.071   1.230   7.251  0.7235  0.0601  0.5222
  192SLPC   H4X22276   2.151   1.306   7.266  1.0403 -0.2198  0.2559
  192SLPC   H4Y22277   2.116   1.131   7.274  0.8277  0.3687  1.6645
  192SLPC   C3522278   1.962   1.266   7.354  0.0109 -0.6816  0.5329
  192SLPC   H5X22279   1.888   1.186   7.330  0.0871  0.0363 -2.3280
  192SLPC   H5Y22280   1.914   1.363   7.328 -2.0411 -1.4127  1.5067
  192SLPC   C3622281   2.000   1.260   7.503 -0.0696  0.3597 -0.9365
  192SLPC   H6X22282   2.056   1.354   7.524 -0.9189  0.7449 -0.3201
  192SLPC   H6Y22283   2.069   1.175   7.518 -0.3992  0.5143  1.7553
  192SLPC   C3722284   1.882   1.253   7.596  0.9076  0.2556  0.1814
  192SLPC   H7X22285   1.822   1.161   7.578 -0.1151  0.3628  2.7672
  192SLPC   H7Y22286   1.803   1.327   7.572  0.2634 -0.8425 -1.1415
  192SLPC   C3822287   1.907   1.275   7.747  0.0955 -0.2955 -0.3836
  192SLPC   H8X22288   1.968   1.368   7.761  0.3933 -0.1630 -2.3720
  192SLPC   H8Y22289   1.960   1.185   7.782  2.1985  1.5571  1.3640
  192SLPC   C3922290   1.787   1.298   7.844  0.0086  0.1043 -0.0188
  192SLPC   H9X22291   1.724   1.375   7.794  0.2660  0.0763 -0.3828
  192SLPC   H9Y22292   1.826   1.342   7.939  0.0213 -0.4461  0.2304
  192SLPC  C31022293   1.698   1.173   7.875 -0.3448 -0.0217 -0.1414
  192SLPC  H10X22294   1.609   1.165   7.810 -0.2193  0.1139 -0.3296
  192SLPC  H10Y22295   1.653   1.185   7.976 -0.6667  0.1486 -0.3063
  192SLPC  C31122296   1.767   1.037   7.867 -0.5568 -0.3858 -0.4663
  192SLPC  H11X22297   1.859   1.041   7.929  0.5011 -0.0826 -2.0139
  192SLPC  H11Y22298   1.800   1.030   7.761 -2.2436  0.4761 -1.0557
  192SLPC  C31222299   1.675   0.917   7.890 -0.1589 -0.1306 -0.3623
  192SLPC  H12X22300   1.572   0.936   7.851 -0.1986  3.2950  1.2601
  192SLPC  H12Y22301   1.657   0.915   7.999  2.4134 -1.1626  0.0820
  192SLPC  C31322302   1.728   0.778   7.846 -0.0207 -0.4983  0.0756
  192SLPC  H13X22303   1.652   0.698   7.857 -0.9616  0.6189  1.7288
  192SLPC  H13Y22304   1.814   0.755   7.913  0.5932 -0.1452 -0.5821
  192SLPC  C31422305   1.775   0.754   7.702 -0.0562 -0.9257 -0.1015
  192SLPC  H14X22306   1.850   0.829   7.667 -1.3688  0.6047  0.2869
  192SLPC  H14Y22307   1.690   0.769   7.632  0.8293 -1.3117 -1.2804
  192SLPC  C31522308   1.842   0.619   7.693 -0.1444 -0.5311 -0.0657
  192SLPC  H15X22309   1.778   0.549   7.752 -1.8799  0.1040 -1.1461
  192SLPC  H15Y22310   1.945   0.633   7.730  0.6450  0.0147 -2.4004
  192SLPC  C31622311   1.849   0.547   7.562  0.5607  0.0834  0.3398
  192SLPC  H16X22312   1.909   0.606   7.490  1.0954 -1.3871 -0.4395
  192SLPC  H16Y22313   1.746   0.540   7.520 -0.8739 -2.0951  3.9974
  192SLPC  C31722314   1.911   0.412   7.568 -0.3887  0.1784 -0.3080
  192SLPC  H17X22315   1.880   0.351   7.655 -2.1113  2.1913  0.5101
  192SLPC  H17Y22316   2.017   0.412   7.600 -0.9442  0.5784  1.5419
  192SLPC  C31822317   1.903   0.335   7.428  0.1498 -0.5145 -0.2423
  192SLPC  H18X22318   1.943   0.392   7.341  0.4492  2.1083  1.5477
  192SLPC  H18Y22319   1.801   0.295   7.412 -0.6881  0.2101  2.8721
  192SLPC  H18Z22320   1.969   0.246   7.434 -0.1263 -0.8877 -2.3325
  193SOD    SOD22321   6.534   6.668  11.982 -1.0787 -0.2063 -0.1346
  194SOD    SOD22322   1.418   3.941   2.253  0.7883  0.0132 -0.5552
  195SOD    SOD22323   2.186   6.298  15.745 -0.3365 -0.0979  0.6149
  196SOD    SOD22324   6.051   1.389   1.310  0.0690  1.0051 -0.8402
  197SOD    SOD22325   3.706   3.594  14.729  0.2701  0.2553 -0.2071
  198SOD    SOD22326   4.881   5.686  16.517  0.5183 -0.0394  0.8413
  199SOD    SOD22327   4.338   0.656   4.694  0.0896 -0.3471  0.4415
  200SOD    SOD22328   5.120   5.432   5.028 -0.2360  0.1412 -0.3326
  201SOD    SOD22329   0.447   4.052   2.768  0.2389 -0.0392  0.1119
  202SOD    SOD22330   2.563   1.196   2.676  0.1733  0.4837  0.3132
  203SOD    SOD22331   3.629   3.653   4.606  0.1270 -0.1905 -0.0016
  204SOD    SOD22332   2.275   5.673   0.581  0.2264 -0.1477  0.3043
  205SOD    SOD22333   5.262   0.946   1.063  0.2030 -0.0440  0.2218
  206SOD    SOD22334   1.240   1.529  17.056  0.6568 -0.0098 -0.2919
  207SOD    SOD22335   4.651   6.492  16.194  0.3776  0.2294 -0.0799
  208SOD    SOD22336   5.139   1.227   4.302  0.3730 -0.0776  0.2687
  209SOD    SOD22337   2.896   1.729   0.249  0.0852 -0.6938  0.1949
  210SOD    SOD22338   1.622   0.978   2.954 -0.0405 -0.1280  0.0598
  211SOD    SOD22339   4.245   0.785  16.987 -0.0412  0.0743 -0.3615
  212SOD    SOD22340   3.995   5.188   5.766  0.0931 -0.2858  0.0310
  213SOD    SOD22341   1.644   2.918  12.884  0.0326  0.4880  0.2679
  214SOD    SOD22342   4.109   3.531   6.796 -0.1642  0.3400  0.0445
  215SOD    SOD22343   5.844   3.611   5.245  0.0717 -0.2859 -0.1892
  216SOD    SOD22344   3.610   4.077  10.800 -0.1873  0.1765  0.0312
  217SOD    SOD22345   6.705   0.570  11.063  0.5297 -0.0270 -0.7860
  218SOD    SOD22346   1.006   2.257  15.620  0.2533 -0.3185  0.2282
  219SOD    SOD22347   0.022   6.420   6.301 -0.1161  0.6909 -0.2261
  220SOD    SOD22348   1.716   6.546  14.624 -0.0941  0.1302 -0.0909
  221SOD    SOD22349   0.852   4.408  12.928  0.3854 -0.2672  0.1865
  222SOD    SOD22350   5.792   4.834  14.152 -0.5161 -0.4055 -0.0603
  223SOD    SOD22351   0.480   2.220   4.948 -0.4207 -0.5152 -0.1643
  224SOD    SOD22352   1.449   4.129  12.926  0.1045  0.1135 -0.0615
  225SOD    SOD22353   1.078   5.420  15.561 -0.1088 -0.4184 -0.1629
  226SOD    SOD22354   0.113   2.325  13.475  0.3096 -0.2817 -0.0588
  227SOD    SOD22355   4.862   6.728  12.007 -0.1813  0.1419  0.0901
  228SOD    SOD22356   0.587   2.812  17.224  0.1912 -0.0033  0.2827
  229SOD    SOD22357   2.378   6.687  13.258  0.1305 -0.0539 -0.2120
  230SOD    SOD22358   5.042   4.115  10.568  0.0418 -0.5518 -0.3098
  231SOD    SOD22359   5.664   2.647   5.013 -0.0588  0.0544  0.3369
  232SOD    SOD22360   5.851   0.815   6.219 -0.2206 -0.0702 -0.9482
  233SOD    SOD22361   2.441   1.047  15.511  0.0408 -0.1989 -0.1474
  234SOD    SOD22362   2.664   5.903  11.340 -0.3679 -0.2828 -0.1384
  235SOD    SOD22363   5.518   2.428  14.488 -0.0321 -0.0182 -0.3691
  236SOD    SOD22364   4.398   5.244   3.568 -0.2504  0.3814 -0.0064
  237SOD    SOD22365   3.287   4.615  13.902 -0.4074 -0.7034 -0.0115
  238SOD    SOD22366   2.693   4.694  16.468 -0.3546 -0.0232 -0.1185
  239SOD    SOD22367   6.307   5.866   3.217 -0.2965 -0.3515  0.2951
  240SOD    SOD22368   4.141   1.491   0.992 -0.3359 -0.2884  0.0904
  241SOD    SOD22369   3.505   2.716   3.136 -0.0364 -0.4257  0.4869
  242SOD    SOD22370   5.344   5.694  10.747 -0.1049  0.4299  0.4513
  243SOD    SOD22371   1.408   0.861  13.310 -0.2996 -0.2962 -0.2727
  244SOD    SOD22372   2.214   1.371  16.100 -0.3151  0.3520 -0.0637
  245SOD    SOD22373   0.112   3.459  11.351 -0.5439 -0.2328 -0.1732
  246SOD    SOD22374   5.598   2.062  15.920 -0.1531 -0.5516 -0.4599
  247SOD    SOD22375   3.740   4.035  12.313 -0.0207  0.2841  0.1734
  248SOD    SOD22376   1.452   2.703   0.309  0.4723  0.7855 -0.4274
  249SOD    SOD22377   1.575   3.424   5.702  0.0191 -0.0629 -0.1384
  250SOD    SOD22378   3.803   0.700   4.885  0.1754  0.3309 -0.2827
  251SOD    SOD22379   3.193   3.711   6.327 -0.3288  0.0081  0.2024
  252SOD    SOD22380   2.189   1.590  11.925  0.0348  0.3123  0.1353
  253SOD    SOD22381   0.904   4.953   0.915 -0.2024  0.2195 -0.4214
  254SOD    SOD22382   0.766   6.129   1.618 -0.2028 -0.2939 -0.1191
  255SOD    SOD22383   6.678   2.733   2.308 -0.1645 -0.0634 -0.0404
  256SOD    SOD22384   3.644   5.392  12.481  0.1622  0.0242 -0.2081
  257SOD    SOD22385   4.192   3.330   0.927 -0.0287  0.1655  0.0108
  258SOD    SOD22386   4.998   6.357   3.196  0.2536  0.3111 -0.7960
  259SOD    SOD22387   2.772   1.349  13.179 -0.0814 -0.3945  0.5022
  260SOD    SOD22388   2.236   3.816   6.506 -0.0079  0.0358  0.0609
  261SOD    SOD22389   0.860   3.017  14.596 -0.0134  0.2978 -0.1108
  262SOD    SOD22390   5.120   3.554  13.619  0.1242  0.0775 -0.0952
  263SOD    SOD22391   6.402   3.164   1.305 -0.1462 -0.1915  0.4504
  264SOD    SOD22392   3.029   6.012   1.238  0.2267  0.0581  0.1195
  265SOD    SOD22393   2.320   6.027   4.896 -0.4653 -0.3224  0.1987
  266CLA    CLA22394   5.735   0.406   0.789 -0.1017  0.0354  0.4113
  267CLA    CLA22395   0.928   5.377  16.520  0.3005 -0.0885 -0.5203
  268CLA    CLA22396   2.062   6.798  15.694 -0.1865 -0.0306 -0.1704
  269CLA    CLA22397   4.263   0.245   3.825 -0.0321 -0.1764  0.0643
  270CLA    CLA22398   3.377   2.112  13.219  0.5591  0.2577  0.2181
  271CLA    CLA22399   0.783   3.943  16.958  0.0331  0.1623 -0.0216
  272CLA    CLA22400   3.152   4.749  16.281 -0.0428 -0.3947  0.0666
  273CLA    CLA22401   4.090   6.198   1.262 -0.4213  0.4044  0.3560
  274CLA    CLA22402   6.590   5.267   3.350  0.3772 -0.0747  0.3730
  275CLA    CLA22403   1.523   6.007  15.191  0.2647  0.3340  0.2939
  276CLA    CLA22404   0.867   0.808   4.324 -0.3912  0.0308  0.1469
  277CLA    CLA22405   5.381   3.246   5.187  0.1544 -0.1214 -0.1989
  278CLA    CLA22406   1.275   0.257  16.398 -0.0716 -0.1123 -0.1460
  279CLA    CLA22407   1.413   3.151  14.860 -0.0427  0.2101  0.0840
  280CLA    CLA22408   0.826   5.923  16.326  0.5001 -0.4353 -0.2593
  281CLA    CLA22409   6.201   2.191  15.230  0.4678  0.6294 -0.0249
  282CLA    CLA22410   1.838   0.933   3.416 -0.5294 -0.1504 -0.1660
  283CLA    CLA22411   4.603   2.777   0.653  0.3478  0.2719 -0.2406
  284CLA    CLA22412   0.640   2.046   3.828 -0.2436  0.0154 -0.0366
  285CLA    CLA22413   3.720   4.610   3.945 -0.0578  0.0405  0.0287
  286CLA    CLA22414   3.955   0.470  13.800  0.0798  0.2791 -0.0944
  287CLA    CLA22415   1.962   6.765  13.669 -0.4416  0.4570  0.0865
  288CLA    CLA22416   0.194   4.149   1.574 -0.1864 -0.4370 -0.1758
  289CLA    CLA22417   3.623   3.910  14.253 -0.2509  0.1040 -0.0649
  290CLA    CLA22418   3.727   1.840  13.635  0.0704 -0.1843  0.0143
  291CLA    CLA22419   4.557   1.369  16.786  0.1401  0.5990 -0.0214
  292CLA    CLA22420   6.496   0.455  13.543  0.1664  0.3386  0.0510
  293CLA    CLA22421   4.738   5.302  14.455  0.4346  0.0673 -0.5357
  294CLA    CLA22422   6.579   3.685  13.356  0.2395 -0.0293 -0.5079
  295CLA    CLA22423   0.263   3.205  12.082  0.0852 -0.1982  0.0560
  296CLA    CLA22424   5.584   2.324   3.883  0.1319 -0.1161 -0.3954
  297CLA    CLA22425   4.990   1.892  15.480  0.0062  0.0220 -0.1269
  298CLA    CLA22426   5.094   6.386   3.482 -0.0778 -0.2064 -0.6668
  299CLA    CLA22427   5.755   3.434  14.933 -0.0617  0.3782 -0.0681
  300CLA    CLA22428   5.940   3.361  12.860  0.1297  0.2999  0.2056
  301CLA    CLA22429   1.898   0.832  13.472 -0.1791 -0.2564  0.1841
  302CLA    CLA22430   1.271   6.559   1.335 -0.0380 -0.0018 -0.1368
  303CLA    CLA22431   6.565   1.100  13.748 -0.5821  0.0290 -0.2512
  304CLA    CLA22432   0.131   3.392   1.848 -0.0580  0.0644 -0.4017
  305CLA    CLA22433   3.060   3.848   2.689  0.1377 -0.2287 -0.2078
  306CLA    CLA22434   3.845   1.359   4.772 -0.2756 -0.1261  0.4680
  307CLA    CLA22435   5.532   1.042   4.931  0.0947 -0.2654  0.2044
  308CLA    CLA22436   5.567   3.954   0.564  0.3470  0.2462 -0.1313
  309CLA    CLA22437   5.762   1.865  16.064  0.3540 -0.0773  0.3271
  310CLA    CLA22438   3.350   6.646   1.454 -0.2472 -0.0006 -0.3003
  311CLA    CLA22439   3.285   1.836   2.882  0.3448  0.0823 -0.3862
  312CLA    CLA22440   5.671   3.890   1.025  0.1911  0.4026 -0.2648
  313CLA    CLA22441   2.559   6.339   1.100 -0.2115  0.1755  0.1930
  314CLA    CLA22442   2.201   2.210  15.309  0.5436  0.0891 -0.2918
  315CLA    CLA22443   1.281   4.051   2.043  0.2909 -0.0590  0.1865
  316CLA    CLA22444   0.350   1.948   2.614  0.2081 -0.0969  0.0376
  317CLA    CLA22445   4.877   3.517  12.934 -0.0035 -0.2891 -0.2960
  318CLA    CLA22446   0.557   0.510  16.558  0.1938  0.3462  0.0283
  319TIP3   OH222447   3.910   2.312  11.763  0.2065  0.8251 -0.4545
  319TIP3    H122448   3.943   2.238  11.814 -0.4341  0.9210  0.1191
  319TIP3    H222449   3.955   2.388  11.799 -1.6394  1.1368  1.2914
  320TIP3   OH222450   4.347   3.991  11.650 -0.3998  0.7907  0.2374
  320TIP3    H122451   4.269   3.942  11.625 -0.8836  1.0116  1.2674
  320TIP3    H222452   4.394   4.007  11.568  0.1914 -2.0726 -0.0095
  321TIP3   OH222453   2.044   4.316  15.534  0.3735  0.9618  0.5060
  321TIP3    H122454   2.050   4.363  15.617 -0.0169 -0.2140  1.2109
  321TIP3    H222455   2.019   4.383  15.470 -1.2732  1.5118  1.7031
  322TIP3   OH222456   6.658   0.815  14.911 -0.2437 -0.1011  0.4342
  322TIP3    H122457   6.636   0.792  14.821 -0.3220 -1.7670  0.8603
  322TIP3    H222458   6.753   0.809  14.916 -0.3446 -1.5413  0.8479
  323TIP3   OH222459   3.744   5.251   1.000 -0.2887 -0.4537 -0.4300
  323TIP3    H122460   3.787   5.334   0.979  0.2232 -0.7967 -0.7292
  323TIP3    H222461   3.651   5.274   1.006  0.0454  0.4926  1.3230
  324TIP3   OH222462   5.412   5.442   4.238 -0.6443  0.0609  1.1745
  324TIP3    H122463   5.405   5.454   4.333 -1.5174 -0.4307  1.1796
  324TIP3    H222464   5.322   5.452   4.206 -0.5535 -0.9956  0.5506
  325TIP3   OH222465   6.398   2.211  16.927  0.4445 -0.4361  0.3343
  325TIP3    H122466   6.459   2.176  16.863  0.0392 -0.9674  0.2399
  325TIP3    H222467   6.326   2.245  16.875 -0.0145 -1.1152  0.5204
  326TIP3   OH222468   0.853   3.837   3.705  0.3178 -0.2351  0.0382
  326TIP3    H122469   0.908   3.874   3.774 -1.3544  2.1381  0.1781
  326TIP3    H222470   0.781   3.796   3.753 -1.3348  2.2159 -0.2339
  327TIP3   OH222471   3.331   0.222   0.979 -0.6805  0.1442 -0.4706
  327TIP3    H122472   3.362   0.132   0.972 -1.1090  0.0172 -0.7097
  327TIP3    H222473   3.243   0.216   1.016 -0.4051  0.5155  0.2730
  328TIP3   OH222474   6.692   2.440  12.942  0.3943  0.0584  0.2374
  328TIP3    H122475   6.667   2.414  12.853 -1.3808 -0.3674  0.8365
  328TIP3    H222476   6.685   2.360  12.993  0.6518  0.4661  0.9117
  329TIP3   OH222477   3.613   4.169  15.001 -0.2518 -0.5162  0.3420
  329TIP3    H122478   3.520   4.179  14.982 -0.4515 -0.5082  1.3340
  329TIP3    H222479   3.649   4.257  14.992  0.1623 -0.9212 -2.6341
  330TIP3   OH222480   5.692   2.065   0.325 -0.2327 -0.6568  0.5254
  330TIP3    H122481   5.676   2.065   0.231  1.2124 -0.1829  0.2664
  330TIP3    H222482   5.657   2.149   0.355  1.2842  0.1752  0.0355
  331TIP3   OH222483   1.441   2.536  11.528 -0.3745 -0.4557  0.1873
  331TIP3    H122484   1.392   2.597  11.584  0.7130 -0.2205  0.8856
  331TIP3    H222485   1.481   2.474  11.589 -0.7272 -1.3308 -0.4642
  332TIP3   OH222486   3.944   1.320   2.278  0.1740 -0.0857 -0.2317
  332TIP3    H122487   3.874   1.262   2.310  0.9626 -0.7279  0.3537
  332TIP3    H222488   3.954   1.296   2.186  0.6933 -1.1030  0.0764
  333TIP3   OH222489   3.223   1.805  16.191 -0.3078 -0.0377  0.6106
  333TIP3    H122490   3.212   1.747  16.115 -0.7334  1.5076 -0.5225
  333TIP3    H222491   3.195   1.891  16.160 -1.2473  0.4617  2.7676
  334TIP3   OH222492   4.670   0.073  16.875  0.1495 -0.4417 -0.0560
  334TIP3    H122493   4.669   0.156  16.827 -0.1255 -1.1909 -1.3579
  334TIP3    H222494   4.581   0.065  16.911  0.0130 -0.4335 -0.3875
  335TIP3   OH222495   3.140   5.049   1.290  0.2664  0.6556  0.4851
  335TIP3    H122496   3.204   5.013   1.228 -0.3594 -2.6472  1.6160
  335TIP3    H222497   3.055   5.026   1.253 -0.1208 -1.1405  2.3597
  336TIP3   OH222498   4.710   4.941   4.327  0.5402 -0.0851  0.6349
  336TIP3    H122499   4.672   4.875   4.386  0.2151  0.0061  0.5303
  336TIP3    H222500   4.719   4.895   4.244 -2.4431  0.8252 -0.2544
  337TIP3   OH222501   0.442   2.095   5.150  0.6840  0.4211  0.2373
  337TIP3    H122502   0.469   2.017   5.198 -1.4825 -0.4092  0.1544
  337TIP3    H222503   0.398   2.150   5.215 -2.4514 -0.8059 -0.7289
  338TIP3   OH222504   4.183   0.604  16.575 -0.0408 -0.0668  0.4074
  338TIP3    H122505   4.262   0.631  16.527 -0.4858 -0.3267 -0.4769
  338TIP3    H222506   4.116   0.593  16.508 -0.8366  0.1276  1.1544
  339TIP3   OH222507   1.643   6.197  12.037 -0.2073  0.1464 -0.0620
  339TIP3    H122508   1.572   6.132  12.034 -0.4045  0.4274 -1.6060
  339TIP3    H222509   1.627   6.245  12.118 -0.5507 -1.1654  0.6728
  340TIP3   OH222510   4.763   2.874   5.192  0.4497 -0.2238  0.0245
  340TIP3    H122511   4.705   2.933   5.143  0.3566 -0.4456 -0.1302
  340TIP3    H222512   4.706   2.829   5.253  0.4888 -0.3046  0.0017
  341TIP3   OH222513   6.679   2.897   1.217 -0.0486  0.1486  0.0934
  341TIP3    H122514   6.674   2.979   1.265  1.2256 -0.8238  1.9435
  341TIP3    H222515   6.758   2.854   1.250 -0.3497 -1.5463 -1.2921
  342TIP3   OH222516   1.961   6.506  14.564 -0.1171 -0.2973  0.1871
  342TIP3    H122517   1.996   6.425  14.527 -0.1445 -0.0094 -0.4858
  342TIP3    H222518   1.985   6.573  14.500 -1.9160 -0.0982 -0.2806
  343TIP3   OH222519   5.736   5.722  11.786 -0.3380 -0.0853 -0.0952
  343TIP3    H122520   5.739   5.725  11.882  0.7713 -1.4299 -0.0674
  343TIP3    H222521   5.772   5.806  11.758 -0.6534  0.3103  0.6698
  344TIP3   OH222522   6.553   5.186   3.942  0.1992  0.0345 -0.2899
  344TIP3    H122523   6.472   5.179   3.892  0.8763 -0.8673 -1.2985
  344TIP3    H222524   6.619   5.211   3.876  1.0979 -1.1603  0.1414
  345TIP3   OH222525   2.157   0.217   0.299  0.9385 -0.2132 -0.4317
  345TIP3    H122526   2.071   0.191   0.332  0.5922  0.6875 -0.6056
  345TIP3    H222527   2.198   0.135   0.271 -1.0779 -0.3045 -3.2686
  346TIP3   OH222528   6.804   2.178  17.167 -0.2438 -0.4113 -0.1410
  346TIP3    H122529   6.795   2.096  17.119 -0.8369 -0.0274 -0.7077
  346TIP3    H222530   6.756   2.242  17.114  0.7453  0.4395 -0.0458
  347TIP3   OH222531   1.186   2.587  12.036 -0.5148 -0.9893 -0.0736
  347TIP3    H122532   1.248   2.577  11.964  1.2621  1.3235  1.0781
  347TIP3    H222533   1.239   2.582  12.115 -1.0385  4.7038  0.8958
  348TIP3   OH222534   4.783   3.480   0.863  0.6437  0.2886 -0.8811
  348TIP3    H122535   4.819   3.411   0.919 -0.0257 -0.4376 -1.3354
  348TIP3    H222536   4.716   3.522   0.916  1.4983  1.0384 -0.3662
  349TIP3   OH222537   4.987   3.952  11.209  0.6923 -0.0504 -0.7284
  349TIP3    H122538   4.908   3.921  11.253 -1.2991  1.8585 -2.8343
  349TIP3    H222539   4.981   3.915  11.121  1.1052  1.7638 -1.5286
  350TIP3   OH222540   4.881   1.367   1.734 -0.2900  0.0751 -0.4838
  350TIP3    H122541   4.956   1.334   1.685 -0.3940 -0.8907  0.0007
  350TIP3    H222542   4.850   1.292   1.784 -1.0173  0.7078  0.0242
  351TIP3   OH222543   1.442   0.552  15.263 -0.2489 -1.0191 -0.0050
  351TIP3    H122544   1.484   0.475  15.226 -0.2118  0.1288 -2.4689
  351TIP3    H222545   1.503   0.583  15.331  1.2281 -1.3589 -1.1563
  352TIP3   OH222546   4.710   5.822  12.023 -0.2717 -0.4402  0.0643
  352TIP3    H122547   4.793   5.868  12.018  0.4261 -1.6550  0.3577
  352TIP3    H222548   4.666   5.844  11.941 -0.4360  1.6331  0.6826
  353TIP3   OH222549   5.381   1.188   2.092 -0.4662  0.0594  0.2149
  353TIP3    H122550   5.338   1.269   2.121 -1.2652 -0.0358 -0.6660
  353TIP3    H222551   5.364   1.185   1.998  0.0553 -0.8455  0.1502
  354TIP3   OH222552   5.677   3.065   5.138  0.1747 -0.1441  0.4538
  354TIP3    H122553   5.631   3.148   5.125 -0.6180 -0.5107  0.9056
  354TIP3    H222554   5.610   2.998   5.125  0.8779 -0.7258 -0.1909
  355TIP3   OH222555   4.597   5.497  12.437  0.8417  0.1925  0.6516
  355TIP3    H122556   4.685   5.503  12.473  1.8598 -2.5838 -1.2195
  355TIP3    H222557   4.598   5.556  12.361  0.2948  2.0192  2.0230
  356TIP3   OH222558   0.403   4.116  17.237  0.5595 -0.0077 -0.4815
  356TIP3    H122559   0.358   4.057  17.297 -0.5441  0.5888 -0.7073
  356TIP3    H222560   0.408   4.068  17.154  1.8408 -0.7245 -0.0077
  357TIP3   OH222561   4.895   3.747  12.580  0.4610 -0.0089 -0.8710
  357TIP3    H122562   4.977   3.702  12.599  1.5440  1.3043 -2.2809
  357TIP3    H222563   4.874   3.794  12.661  1.1349 -0.2926 -0.5288
  358TIP3   OH222564   5.489   5.142   4.586  0.0753  0.0752 -0.1004
  358TIP3    H122565   5.462   5.205   4.652  0.1903  2.5531 -2.3640
  358TIP3    H222566   5.576   5.113   4.616 -0.0855  0.7602  1.0870
  359TIP3   OH222567   3.048   3.007  12.648  0.1055 -0.5513  0.9041
  359TIP3    H122568   3.031   3.084  12.703  0.3245  0.1023  0.0497
  359TIP3    H222569   3.123   3.031  12.595 -0.8750 -0.7131 -0.5915
  360TIP3   OH222570   6.075   2.328  15.487 -0.0508  0.0658 -0.0802
  360TIP3    H122571   6.121   2.411  15.475 -0.1147  0.2418  0.8117
  360TIP3    H222572   6.105   2.273  15.415 -0.7456  1.1847 -1.2430
  361TIP3   OH222573   3.863   0.095  15.804  0.7089 -0.4626  0.6478
  361TIP3    H122574   3.934   0.079  15.741  0.3024 -0.5929  0.2210
  361TIP3    H222575   3.822   0.175  15.773 -1.2012 -1.9603 -0.8370
  362TIP3   OH222576   5.225   1.983   3.947  0.6639  0.2869 -0.0307
  362TIP3    H122577   5.247   2.023   3.863 -0.7056 -1.0195 -1.0390
  362TIP3    H222578   5.138   1.946   3.934 -0.0789  1.0946  2.3492
  363TIP3   OH222579   6.427   2.661   4.493  0.2332 -0.0704 -0.2620
  363TIP3    H122580   6.359   2.624   4.550 -0.7089 -1.2952 -2.1023
  363TIP3    H222581   6.386   2.738   4.454  0.0269 -0.5581 -1.0323
  364TIP3   OH222582   0.997   4.762  14.054  0.3905 -0.3708 -0.0721
  364TIP3    H122583   1.021   4.669  14.059 -1.4567 -0.8538  0.2853
  364TIP3    H222584   0.997   4.792  14.144 -4.3644 -1.4977  0.4367
  365TIP3   OH222585   5.629   5.816  15.823  0.2954 -0.0622  0.3221
  365TIP3    H122586   5.704   5.871  15.803  0.9126 -1.0768 -0.2034
  365TIP3    H222587   5.667   5.732  15.850 -0.6658 -1.2538 -1.9225
  366TIP3   OH222588   6.025   6.382   3.343  0.4578  0.0054 -0.6555
  366TIP3    H122589   5.984   6.296   3.354  1.7173 -0.6560 -1.0418
  366TIP3    H222590   5.983   6.437   3.409  0.8770 -1.3680  0.8075
  367TIP3   OH222591   4.274   3.167   3.888  0.2316 -0.3061 -0.5510
  367TIP3    H122592   4.241   3.112   3.816  0.2798 -2.0801  0.7294
  367TIP3    H222593   4.203   3.166   3.953  0.5784  0.4700 -0.1527
  368TIP3   OH222594   2.267   3.018  15.011 -0.3235  0.2910  0.0995
  368TIP3    H122595   2.205   3.082  14.975 -0.9381 -0.4899 -0.2464
  368TIP3    H222596   2.216   2.937  15.019  0.5650 -0.2716  0.1416
  369TIP3   OH222597   6.285   5.325   2.568 -0.3560 -0.2626 -0.0812
  369TIP3    H122598   6.328   5.293   2.647  0.0939  2.8762  0.9722
  369TIP3    H222599   6.198   5.285   2.570 -0.5662  0.2770  2.3254
  370TIP3   OH222600   2.479   4.518  11.893  0.0642 -0.1893 -0.8504
  370TIP3    H122601   2.502   4.433  11.854  1.0609  0.7552 -2.3859
  370TIP3    H222602   2.563   4.554  11.922 -0.4808 -0.1607  0.7170
  371TIP3   OH222603   4.930   1.004  15.854 -0.2042 -0.3190 -0.2097
  371TIP3    H122604   5.020   0.982  15.877  1.1022  0.7992 -3.9453
  371TIP3    H222605   4.934   1.095  15.826 -2.9344  0.4053  1.5269
  372TIP3   OH222606   3.512   2.612  15.903 -0.1211 -0.1680 -0.0247
  372TIP3    H122607   3.529   2.622  15.809 -1.5001 -1.5814 -0.4466
  372TIP3    H222608   3.563   2.682  15.944 -1.4117  2.0140 -2.0031
  373TIP3   OH222609   6.032   5.413   5.339 -0.0592 -0.2151  0.3008
  373TIP3    H122610   6.083   5.386   5.415  1.1474  0.4773 -0.2486
  373TIP3    H222611   5.975   5.483   5.371  0.6048  0.2282  0.5067
  374TIP3   OH222612   6.480   4.299   3.873 -0.0215  0.4816  0.7156
  374TIP3    H122613   6.521   4.280   3.789 -0.0598 -0.7858  0.9694
  374TIP3    H222614   6.405   4.354   3.852 -0.0546  0.1375 -0.0792
  375TIP3   OH222615   5.257   5.295  13.985 -0.2466  0.0592  0.5826
  375TIP3    H122616   5.185   5.311  14.046 -1.8839  0.1107 -1.3207
  375TIP3    H222617   5.302   5.379  13.979 -0.8354  0.3921  0.7570
  376TIP3   OH222618   6.569   6.657  13.566 -0.0730 -0.4468  0.1559
  376TIP3    H122619   6.642   6.596  13.583 -0.6116 -1.4284 -0.9832
  376TIP3    H222620   6.591   6.735  13.616  0.5645 -1.6345  1.7662
  377TIP3   OH222621   0.001   2.688  15.181  0.3062  0.3577  0.0063
  377TIP3    H122622  -0.087   2.651  15.175  0.9603 -1.6789  1.9256
  377TIP3    H222623   0.004   2.728  15.268  0.7163  1.9681 -0.7438
  378TIP3   OH222624   5.989   3.337  15.477 -0.2252 -0.1337 -0.0421
  378TIP3    H122625   5.931   3.264  15.498 -0.2990 -0.1980 -0.4629
  378TIP3    H222626   5.953   3.374  15.396  0.3506 -0.2006 -0.3291
  379TIP3   OH222627   6.347   4.850   1.426 -0.0933 -0.8663 -0.0271
  379TIP3    H122628   6.271   4.896   1.462  1.5194  1.1547  0.8859
  379TIP3    H222629   6.390   4.811   1.503  1.0846 -0.0080 -0.2384
  380TIP3   OH222630   2.941   4.132  11.680  0.1542 -0.6213 -0.2419
  380TIP3    H122631   2.901   4.165  11.761 -2.3894 -2.7681 -0.5397
  380TIP3    H222632   2.898   4.182  11.610  1.6585  0.5620 -0.3405
  381TIP3   OH222633   5.494   3.253  12.943 -0.0018 -0.0008 -0.2082
  381TIP3    H122634   5.471   3.346  12.950 -1.4777 -0.3900  0.2479
  381TIP3    H222635   5.570   3.242  13.001  0.8150  1.1168 -1.0425
  382TIP3   OH222636   4.825   3.570  12.404 -0.6185  0.3032 -0.5171
  382TIP3    H122637   4.832   3.653  12.451 -1.7203  0.9044 -1.3801
  382TIP3    H222638   4.796   3.595  12.316 -1.2759 -1.0337 -0.6851
  383TIP3   OH222639   4.195   5.318  16.460 -0.5636  0.1930 -0.2015
  383TIP3    H122640   4.190   5.331  16.555 -0.5687  2.0530 -0.4337
  383TIP3    H222641   4.128   5.252  16.442 -2.0417  1.3759  0.8292
  384TIP3   OH222642   3.605   0.637  11.518 -0.5754 -0.2545  0.8336
  384TIP3    H122643   3.623   0.574  11.588 -1.9400 -0.5031  0.9618
  384TIP3    H222644   3.529   0.686  11.549  1.1581  2.2721  1.2750
  385TIP3   OH222645   5.747   0.064  12.572 -0.1391 -0.0123 -0.1442
  385TIP3    H122646   5.749  -0.027  12.601  0.1545 -0.5832 -1.9284
  385TIP3    H222647   5.663   0.098  12.602 -0.0946 -0.7535  0.8358
  386TIP3   OH222648   4.069   5.657  12.779  0.0344 -0.5957 -0.1515
  386TIP3    H122649   4.151   5.676  12.824  0.3378 -0.4179 -0.7790
  386TIP3    H222650   4.025   5.593  12.835  0.1817 -0.0021  0.6472
  387TIP3   OH222651   3.185   1.323  14.529  0.4449  0.0964 -0.5684
  387TIP3    H122652   3.266   1.304  14.482  0.9181 -1.9104  1.0081
  387TIP3    H222653   3.214   1.364  14.611 -0.2547  1.2118 -0.8556
  388TIP3   OH222654   5.408   4.028   2.616 -0.2414  0.9163 -0.1537
  388TIP3    H122655   5.462   3.963   2.662 -1.3527  0.8935  1.1520
  388TIP3    H222656   5.436   4.022   2.525  1.6822  0.6229  0.4228
  389TIP3   OH222657   3.776   6.761   3.105  0.3246  0.4065 -0.2391
  389TIP3    H122658   3.768   6.840   3.050  0.0486  0.8854  0.4861
  389TIP3    H222659   3.798   6.795   3.192  0.3917 -0.3334  0.0316
  390TIP3   OH222660   6.247   3.472   2.655 -0.0380  0.2594 -0.2213
  390TIP3    H122661   6.296   3.392   2.637  0.8106  0.5327  0.8575
  390TIP3    H222662   6.157   3.442   2.670  0.2085 -0.4521 -0.1453
  391TIP3   OH222663   6.687   1.210   5.643  0.2472 -0.1048 -0.2835
  391TIP3    H122664   6.737   1.249   5.571 -1.1663 -0.1799 -1.3307
  391TIP3    H222665   6.622   1.277   5.666 -0.4474 -0.7707 -0.2766
  392TIP3   OH222666   0.159   1.211  15.527 -0.1141  0.1418  0.1638
  392TIP3    H122667   0.109   1.189  15.606 -1.3852 -1.4185 -1.0490
  392TIP3    H222668   0.126   1.296  15.501  0.7681  0.9686  1.6578
  393TIP3   OH222669   5.473   6.801  16.610 -0.2481 -0.0862 -0.0676
  393TIP3    H122670   5.477   6.741  16.685 -0.2554  0.5566  0.4520
  393TIP3    H222671   5.476   6.889  16.649  1.0706  0.2571 -0.8925
  394TIP3   OH222672   4.743   6.244   4.730 -0.0078  0.6943  0.0637
  394TIP3    H122673   4.762   6.299   4.653  1.5596  2.0755  1.4106
  394TIP3    H222674   4.824   6.244   4.780 -0.4995 -1.5853  0.9038
  395TIP3   OH222675   3.516   1.363   1.885 -0.4326 -0.1797 -0.1931
  395TIP3    H122676   3.581   1.302   1.849 -0.3906 -0.5583  0.4992
  395TIP3    H222677   3.463   1.309   1.944 -2.3067 -0.1790 -1.8454
  396TIP3   OH222678   4.990   0.221  11.298  0.2463 -0.8557  0.3134
  396TIP3    H122679   4.898   0.222  11.270  0.3903 -0.5417 -0.1376
  396TIP3    H222680   4.987   0.182  11.386 -0.2513 -1.3882  0.0630
  397TIP3   OH222681   6.434   5.772  13.691 -0.0175  0.2361  0.2667
  397TIP3    H122682   6.413   5.840  13.754  2.0429  0.5952  0.5745
  397TIP3    H222683   6.483   5.707  13.741 -0.1689 -0.4853 -0.5086
  398TIP3   OH222684   0.110   1.468  15.490 -0.3532  0.1380 -0.1014
  398TIP3    H122685   0.041   1.535  15.498 -0.6515 -0.0475 -0.9826
  398TIP3    H222686   0.153   1.468  15.575 -1.3944  0.3150  0.4416
  399TIP3   OH222687   6.314   6.285  11.776  0.1789  0.7084 -0.9494
  399TIP3    H122688   6.407   6.275  11.797 -0.4305 -1.9449  0.6805
  399TIP3    H222689   6.293   6.208  11.724 -1.3365  0.8106 -0.5095
  400TIP3   OH222690   1.652   5.591   5.176 -0.1011 -0.5101 -0.0755
  400TIP3    H122691   1.567   5.584   5.132 -0.8871 -1.4604  1.5557
  400TIP3    H222692   1.652   5.520   5.240  2.4069 -1.2314 -0.8351
  401TIP3   OH222693   3.186   6.062   4.575 -0.0225  0.3174  0.8010
  401TIP3    H122694   3.096   6.051   4.607 -0.5005 -1.4845 -1.0539
  401TIP3    H222695   3.210   5.976   4.541  2.2056  0.9470  0.7028
  402TIP3   OH222696   3.071   5.348  13.076 -0.1446 -0.3574 -0.5278
  402TIP3    H122697   3.105   5.356  12.986 -2.8417  1.3573 -1.4672
  402TIP3    H222698   3.032   5.261  13.079  1.1880 -0.9753 -0.5351
  403TIP3   OH222699   5.287   2.204   4.402 -0.4685 -0.5551 -0.0954
  403TIP3    H122700   5.248   2.166   4.481 -0.2019 -0.2610  0.1788
  403TIP3    H222701   5.382   2.199   4.417 -0.4162 -0.5469 -0.4190
  404TIP3   OH222702   2.121   6.078   3.981  0.3678 -0.2319 -0.1512
  404TIP3    H122703   2.092   6.168   3.964  1.9709  0.3031 -0.1381
  404TIP3    H222704   2.216   6.080   3.967  0.6312 -1.5777  1.3017
  405TIP3   OH222705   0.713   0.743   6.315 -0.1005  0.5458 -0.1901
  405TIP3    H122706   0.660   0.823   6.316  0.1782  0.7453 -0.6604
  405TIP3    H222707   0.767   0.752   6.236  0.5316  0.2867  0.2042
  406TIP3   OH222708   5.998   5.254   5.939 -0.4943  0.7914 -0.0268
  406TIP3    H122709   6.076   5.259   5.994 -0.4016  2.6396 -0.2912
  406TIP3    H222710   5.925   5.256   6.000 -0.3519  0.0081  0.1723
  407TIP3   OH222711   4.017   2.595  12.254 -0.1179  0.4427  0.6772
  407TIP3    H122712   4.021   2.515  12.201  3.7790 -0.4523  2.1630
  407TIP3    H222713   3.934   2.588  12.302 -0.6203 -1.8765 -0.4765
  408TIP3   OH222714   5.750   5.626  12.563  0.3872 -0.4501 -0.4477
  408TIP3    H122715   5.776   5.676  12.641 -0.4556  1.7026 -1.5273
  408TIP3    H222716   5.832   5.584  12.534  1.3756  1.2564 -0.2032
  409TIP3   OH222717   3.916   1.415  12.390  0.2860 -0.4543  0.1328
  409TIP3    H122718   3.913   1.319  12.396  0.4348 -0.4157  0.8564
  409TIP3    H222719   3.855   1.445  12.457  0.8847 -0.0207  0.4823
  410TIP3   OH222720   1.395   2.118   1.786 -0.2814  0.8360  1.0250
  410TIP3    H122721   1.313   2.124   1.836 -2.2426  0.8308 -2.0392
  410TIP3    H222722   1.418   2.208   1.765 -1.3598  0.6905 -0.9175
  411TIP3   OH222723   0.478   1.880  14.497  0.3926 -0.4631  0.4948
  411TIP3    H122724   0.572   1.894  14.506  0.2569  0.7909  0.0841
  411TIP3    H222725   0.443   1.966  14.474 -0.9109 -0.8279  1.0626
  412TIP3   OH222726   4.289   3.010   4.577  0.0337 -0.0336  0.3697
  412TIP3    H122727   4.300   2.928   4.625  0.1585 -0.5862 -0.5941
  412TIP3    H222728   4.375   3.052   4.581  0.6453 -1.1007 -1.2186
  413TIP3   OH222729   6.348   1.916   1.625  0.0306 -0.1586  0.2542
  413TIP3    H122730   6.269   1.954   1.585 -1.0934 -2.0962  0.6000
  413TIP3    H222731   6.374   1.846   1.565  1.0654 -0.0020  0.5184
  414TIP3   OH222732   5.710   6.168   3.022  0.0585  0.8412  0.2560
  414TIP3    H122733   5.688   6.120   2.943  1.6547 -1.6510  1.2755
  414TIP3    H222734   5.669   6.254   3.010 -2.0571 -0.4285 -2.0176
  415TIP3   OH222735   1.299   6.791   3.537  0.4876  0.1759 -0.3349
  415TIP3    H122736   1.363   6.737   3.584 -1.7412 -0.0787  2.5426
  415TIP3    H222737   1.249   6.729   3.484  0.6543 -0.0332 -0.2497
  416TIP3   OH222738   2.609   5.731  12.085 -0.1851  0.1069  0.0875
  416TIP3    H122739   2.553   5.661  12.118  0.4336 -0.1687  0.5831
  416TIP3    H222740   2.581   5.809  12.133 -0.6184  0.1217 -0.1855
  417TIP3   OH222741   2.108   3.128  12.890 -0.4660  0.2048 -0.0408
  417TIP3    H122742   2.132   3.059  12.828  2.5958  0.6313  0.6043
  417TIP3    H222743   2.071   3.081  12.964  0.2545 -0.6522 -0.2121
  418TIP3   OH222744   3.665   0.684   3.685  0.3298 -0.2551  0.1311
  418TIP3    H122745   3.623   0.632   3.755 -0.3105  1.6866  1.2275
  418TIP3    H222746   3.758   0.664   3.693  0.0500 -1.5654  0.2535
  419TIP3   OH222747   0.905   4.901   1.671  0.1679  0.0337 -0.3937
  419TIP3    H122748   0.963   4.879   1.599  0.3570 -0.3246 -0.1308
  419TIP3    H222749   0.865   4.818   1.697  0.3409  0.1103  0.1224
  420TIP3   OH222750   2.289   1.591   4.677 -0.9806 -0.0107  0.7356
  420TIP3    H122751   2.272   1.526   4.745 -1.2597  0.0451  0.7206
  420TIP3    H222752   2.272   1.675   4.720  0.5847  0.1212  1.1198
  421TIP3   OH222753   4.380   3.022   0.499  0.1452 -0.2954 -0.3139
  421TIP3    H122754   4.346   2.947   0.549 -0.0439 -0.1188 -0.1768
  421TIP3    H222755   4.445   2.984   0.441 -0.5310 -0.6931 -0.8168
  422TIP3   OH222756   4.485   6.502  15.337 -0.1705 -0.1765 -0.4446
  422TIP3    H122757   4.519   6.424  15.381 -0.6277  0.5112  1.1475
  422TIP3    H222758   4.559   6.561  15.331 -0.7965  0.9063  2.0877
  423TIP3   OH222759   0.901   0.022   1.208 -0.2117 -1.0455 -0.0774
  423TIP3    H122760   0.868   0.110   1.190 -0.5068 -1.1584 -0.0994
  423TIP3    H222761   0.883  -0.027   1.128  0.0684 -1.0940 -0.1120
  424TIP3   OH222762   2.912   0.878   4.613 -0.4038 -0.4625  0.1487
  424TIP3    H122763   2.972   0.945   4.645 -3.6239  2.4401  0.3540
  424TIP3    H222764   2.911   0.812   4.682  1.0896  0.3587  0.9771
  425TIP3   OH222765   2.725   5.967  15.146  0.0246  0.5712 -0.4305
  425TIP3    H122766   2.643   6.013  15.162 -0.9160 -0.7518 -1.3770
  425TIP3    H222767   2.718   5.886  15.195  0.8291  0.5158 -0.4043
  426TIP3   OH222768   5.709   0.088  14.939  0.0910  0.2056  0.1167
  426TIP3    H122769   5.615   0.097  14.950  0.1395  0.0891  0.6464
  426TIP3    H222770   5.720   0.001  14.899 -0.0117  0.1073  0.2993
  427TIP3   OH222771   0.044   6.609   5.929  0.0975  0.3770  0.2573
  427TIP3    H122772   0.114   6.652   5.879  1.3453 -2.1776 -0.2462
  427TIP3    H222773   0.051   6.517   5.906 -1.6732 -0.3267  2.3760
  428TIP3   OH222774   1.735   6.393  16.783  0.3139  0.0045 -0.0745
  428TIP3    H122775   1.817   6.371  16.827  0.7556  0.2497 -0.7859
  428TIP3    H222776   1.677   6.319  16.803  1.0637 -0.7048 -0.5175
  429TIP3   OH222777   1.573   0.342  12.001  0.1988 -0.1277 -0.3359
  429TIP3    H122778   1.593   0.353  12.093  1.4024  0.2718 -0.6468
  429TIP3    H222779   1.542   0.251  11.994 -0.2730 -0.0367  0.5097
  430TIP3   OH222780   2.714   5.184   0.193 -0.1257 -0.0072 -0.2816
  430TIP3    H122781   2.643   5.120   0.196 -0.7357  0.7209  1.2520
  430TIP3    H222782   2.773   5.159   0.264  1.3232 -0.7696 -1.7179
  431TIP3   OH222783   1.918   0.374  14.733 -0.7850  0.1174  0.0304
  431TIP3    H122784   1.981   0.390  14.663  0.6134 -1.3408  0.9337
  431TIP3    H222785   1.851   0.318  14.693  0.0056 -0.7030 -0.1644
  432TIP3   OH222786   5.394   6.138  11.597 -0.2333  0.0183  0.2645
  432TIP3    H122787   5.466   6.115  11.656 -0.7199  1.3863  1.4081
  432TIP3    H222788   5.438   6.163  11.515  0.5443  0.0155  0.6781
  433TIP3   OH222789   5.334   5.944   5.312 -0.0310  0.2989 -0.3573
  433TIP3    H122790   5.300   5.888   5.382  3.4175 -0.1831  1.0363
  433TIP3    H222791   5.357   6.026   5.356  0.3966  0.6781 -1.2832
  434TIP3   OH222792   2.213   3.409  15.301  0.0218 -0.1414  0.3525
  434TIP3    H122793   2.213   3.316  15.279  0.8611 -0.1735  0.4710
  434TIP3    H222794   2.285   3.419  15.363  1.3096  0.9854 -1.2942
  435TIP3   OH222795   2.625   0.218   0.019  0.0429 -0.2618 -0.4268
  435TIP3    H122796   2.673   0.232  -0.063  0.0900 -4.4456 -1.2270
  435TIP3    H222797   2.538   0.188  -0.009  0.1956 -2.1240  1.0148
  436TIP3   OH222798   2.286   1.195   1.356 -0.5243  0.0514  0.2885
  436TIP3    H122799   2.355   1.166   1.296  0.0112 -2.4494  2.0366
  436TIP3    H222800   2.332   1.240   1.427 -0.9226  0.5981  0.2084
  437TIP3   OH222801   5.438   2.755  15.883  0.7044 -0.0868 -0.5947
  437TIP3    H122802   5.470   2.820  15.820  1.5138 -1.0608 -1.1955
  437TIP3    H222803   5.355   2.724  15.845  0.2323  0.7136 -0.2242
  438TIP3   OH222804   2.474   0.268   2.030 -0.3125 -0.3587 -0.3070
  438TIP3    H122805   2.535   0.342   2.024  0.6915 -1.0859  0.6543
  438TIP3    H222806   2.465   0.252   2.124 -1.7413 -0.4758 -0.4557
  439TIP3   OH222807   1.889   1.459   0.993  0.4978  0.8089  0.7247
  439TIP3    H122808   1.862   1.475   1.083  0.1850 -0.4628  0.8621
  439TIP3    H222809   1.809   1.468   0.942  0.3735 -0.0114  0.7686
  440TIP3   OH222810   0.833   3.820   5.350  0.1297  0.3401 -0.1607
  440TIP3    H122811   0.766   3.888   5.360  0.2721  0.3615  0.6868
  440TIP3    H222812   0.805   3.751   5.411  0.6788  0.1859 -0.0882
  441TIP3   OH222813   5.790   5.586  16.565  0.5201 -0.4423 -0.6046
  441TIP3    H122814   5.812   5.527  16.493  0.3384 -1.5699  0.2610
  441TIP3    H222815   5.824   5.544  16.643  0.6264  0.7305 -0.0059
  442TIP3   OH222816   1.086   0.672   2.729 -0.3607  0.0420 -0.4254
  442TIP3    H122817   1.009   0.728   2.724 -0.9019 -0.6519  0.0631
  442TIP3    H222818   1.078   0.613   2.654  0.1103  0.4909 -0.8312
  443TIP3   OH222819   2.713   5.470   1.577 -0.3548 -0.2781  0.1372
  443TIP3    H122820   2.730   5.461   1.671  0.0407  0.2006  0.1149
  443TIP3    H222821   2.800   5.461   1.537 -0.4865 -0.1953 -0.1612
  444TIP3   OH222822   5.509   6.687   4.459 -0.1694 -0.2178  0.0981
  444TIP3    H122823   5.571   6.716   4.392  0.0597  0.3858  0.5613
  444TIP3    H222824   5.423   6.707   4.423  0.0529  4.2560  1.8099
  445TIP3   OH222825   0.512   1.652   2.967  0.1498  0.1852 -0.0155
  445TIP3    H122826   0.422   1.664   2.936  0.5182 -0.7289 -1.5028
  445TIP3    H222827   0.509   1.570   3.016  0.3355 -0.2580 -0.7411
  446TIP3   OH222828   3.399   5.531  13.667  0.9423  0.7342  0.6848
  446TIP3    H122829   3.322   5.566  13.711  1.9934  0.5901  2.6704
  446TIP3    H222830   3.414   5.592  13.595 -1.5754  0.2284 -0.3471
  447TIP3   OH222831   0.295   5.159   3.508 -0.1211  0.6688  0.7584
  447TIP3    H122832   0.364   5.225   3.506  2.3543 -1.8400  0.6777
  447TIP3    H222833   0.305   5.117   3.594 -1.6588  0.3615  0.8055
  448TIP3   OH222834   2.312   5.121  11.274  0.3143 -0.9374  0.0587
  448TIP3    H122835   2.307   5.062  11.198  2.3773 -2.2895  0.9476
  448TIP3    H222836   2.406   5.133  11.289 -0.0329  2.8399 -0.2604
  449TIP3   OH222837   1.062   5.592  10.897  0.2838 -0.1388  0.2306
  449TIP3    H122838   1.005   5.662  10.866  1.1107 -0.2026 -1.4725
  449TIP3    H222839   1.128   5.582  10.829  1.1358 -1.4674  1.2175
  450TIP3   OH222840   4.812   0.560  10.678  0.6974  1.3651 -0.1994
  450TIP3    H122841   4.879   0.504  10.717  0.9097  1.8383  0.1179
  450TIP3    H222842   4.798   0.629  10.742 -0.1660  1.2238 -0.2215
  451TIP3   OH222843   1.742   0.302   3.801  0.3464  0.1558 -0.0893
  451TIP3    H122844   1.694   0.383   3.818  0.5560 -0.6400  4.8241
  451TIP3    H222845   1.674   0.235   3.794  0.4206 -0.1211  1.6158
  452TIP3   OH222846   3.389   4.574  16.203 -0.9293 -0.1658 -0.6203
  452TIP3    H122847   3.310   4.625  16.223 -0.6373  0.2263 -0.4670
  452TIP3    H222848   3.356   4.496  16.159 -1.5865 -1.0628  1.4171
  453TIP3   OH222849   6.649   2.273   3.681  0.5156  0.5029 -0.1402
  453TIP3    H122850   6.740   2.243   3.676  0.5804  0.8389 -1.2932
  453TIP3    H222851   6.610   2.246   3.598 -1.1314 -1.7573  1.3100
  454TIP3   OH222852   5.715   4.190   2.237  0.1778 -0.2181  0.2092
  454TIP3    H122853   5.773   4.149   2.173  1.7895  1.1899  0.7351
  454TIP3    H222854   5.632   4.201   2.190  1.1564  0.2482 -1.4390
  455TIP3   OH222855   5.830   6.410   2.667 -0.5462 -0.4786  0.6303
  455TIP3    H122856   5.825   6.374   2.579  0.1190 -0.9835  0.7921
  455TIP3    H222857   5.818   6.334   2.724  0.9523 -0.4650  0.9761
  456TIP3   OH222858   6.486   2.755  13.120 -1.1985  0.0539  0.5666
  456TIP3    H122859   6.467   2.741  13.028 -2.2058 -2.4715  1.1225
  456TIP3    H222860   6.442   2.683  13.165  1.1697 -0.0504  2.8276
  457TIP3   OH222861   4.033   5.347   0.953 -0.1205  0.2314  0.3521
  457TIP3    H122862   3.974   5.420   0.973 -1.3527 -0.1818 -1.6816
  457TIP3    H222863   4.022   5.288   1.027 -2.5937 -0.0271 -0.1740
  458TIP3   OH222864   6.430   4.351   0.365  0.1387  0.8170 -0.5947
  458TIP3    H122865   6.374   4.292   0.314 -1.7049 -1.5092  3.8869
  458TIP3    H222866   6.501   4.295   0.397  1.2887  2.2397 -0.5935
  459TIP3   OH222867   0.474   5.018   1.013 -0.2498  0.5103 -0.5095
  459TIP3    H122868   0.524   4.972   1.080  1.9055  2.3906 -0.7763
  459TIP3    H222869   0.455   4.951   0.948  1.9890 -0.2556 -0.4246
  460TIP3   OH222870   6.795   0.453   5.529  0.6585  0.2530 -0.4629
  460TIP3    H122871   6.714   0.470   5.577  1.8164 -0.4608  1.8141
  460TIP3    H222872   6.846   0.533   5.539  0.6648  0.3184 -1.0065
  461TIP3   OH222873   1.400   4.881   4.763  0.8673  0.1421 -0.0460
  461TIP3    H122874   1.408   4.976   4.768 -0.1549  0.1531  2.0707
  461TIP3    H222875   1.364   4.856   4.848 -0.6958 -1.9536 -1.2976
  462TIP3   OH222876   5.261   3.311  13.958  0.3300 -0.3116  0.1923
  462TIP3    H122877   5.344   3.341  13.921  1.8066 -2.1399  1.8978
  462TIP3    H222878   5.275   3.309  14.052 -1.9803  0.2527  0.5780
  463TIP3   OH222879   4.589   5.394   3.152  0.2645  0.0265  0.2180
  463TIP3    H122880   4.585   5.437   3.067 -0.9137  2.4879  1.4517
  463TIP3    H222881   4.625   5.308   3.134  0.6167  0.7298 -2.6764
  464TIP3   OH222882   5.931   5.934   1.365 -0.8392  0.0747 -0.3231
  464TIP3    H122883   5.979   5.855   1.387 -2.4146 -0.7209  0.3138
  464TIP3    H222884   5.910   5.925   1.272  1.4550  1.1015 -0.9766
  465TIP3   OH222885   5.329   1.938  16.442  0.7750 -0.3998  0.3443
  465TIP3    H122886   5.235   1.957  16.439  0.8045 -0.1753  0.7970
  465TIP3    H222887   5.365   1.984  16.367  0.6027 -0.0159  0.4936
  466TIP3   OH222888   0.673   2.569  14.026 -0.2339 -0.2496 -0.3082
  466TIP3    H122889   0.719   2.643  13.988 -0.8651 -0.6679 -1.9421
  466TIP3    H222890   0.720   2.549  14.106  0.4607  1.3701 -0.3099
  467TIP3   OH222891   3.149   3.918   4.366  0.1250 -0.0431 -0.2567
  467TIP3    H122892   3.244   3.926   4.376  0.0665 -0.3900  0.6564
  467TIP3    H222893   3.114   4.002   4.397 -0.0088 -0.8224  1.7352
  468TIP3   OH222894   4.132   3.499  11.454  0.5757  0.2011 -0.1765
  468TIP3    H122895   4.176   3.427  11.501 -0.9313 -0.1898  0.6563
  468TIP3    H222896   4.178   3.504  11.370  0.9228 -1.5250 -0.1091
  469TIP3   OH222897   4.393   1.634  15.075  0.4097  0.0637 -0.5746
  469TIP3    H122898   4.299   1.630  15.092  0.5841 -0.2454  0.3661
  469TIP3    H222899   4.433   1.590  15.150  1.3128  0.2849 -0.9146
  470TIP3   OH222900   3.591   1.599  16.676  0.2087  0.8826  0.5428
  470TIP3    H122901   3.580   1.649  16.757 -1.0292  0.6566  0.5122
  470TIP3    H222902   3.674   1.632  16.639  1.2602  0.3279  2.3537
  471TIP3   OH222903   4.738   5.186   4.206 -0.5321 -0.1576  0.2891
  471TIP3    H122904   4.738   5.109   4.262  0.5354 -1.3883 -1.3364
  471TIP3    H222905   4.674   5.166   4.137 -0.0794  0.2857 -0.2724
  472TIP3   OH222906   5.810   4.429   4.107 -0.0157  0.1715 -0.5157
  472TIP3    H122907   5.891   4.476   4.129  0.2011  0.2362 -1.4357
  472TIP3    H222908   5.817   4.347   4.157  0.6309  0.1707 -0.5938
  473TIP3   OH222909   3.430   5.807   4.678 -0.2539  0.3577  0.0206
  473TIP3    H122910   3.397   5.794   4.766  1.1712 -0.5112  0.4442
  473TIP3    H222911   3.355   5.792   4.621 -0.8611 -0.3749  1.0173
  474TIP3   OH222912   5.657   3.019   4.335 -0.3402  0.6645  0.3731
  474TIP3    H122913   5.589   2.979   4.281  0.1934 -1.1911  1.0306
  474TIP3    H222914   5.697   2.945   4.382  2.0791  1.7270  0.0489
  475TIP3   OH222915   1.912   3.948  16.369 -0.5070  0.1296 -0.1955
  475TIP3    H122916   1.872   4.028  16.334 -0.6899 -0.1761 -0.6944
  475TIP3    H222917   1.843   3.881  16.360 -0.5683  0.0598  0.8008
  476TIP3   OH222918   1.783   3.530   0.970 -0.0651 -0.0157  0.3605
  476TIP3    H122919   1.823   3.530   1.058  0.4537 -0.4285  0.1255
  476TIP3    H222920   1.825   3.458   0.925 -2.1471 -1.3896  0.5707
  477TIP3   OH222921   3.850   3.503   3.693  0.6784  0.1248 -0.0732
  477TIP3    H122922   3.893   3.564   3.632 -1.1587  0.9847 -0.5335
  477TIP3    H222923   3.757   3.527   3.690 -0.0623 -2.5604 -0.0939
  478TIP3   OH222924   0.584   3.302  15.678 -0.0523  0.3901  0.3088
  478TIP3    H122925   0.560   3.383  15.634  0.8355 -0.0458 -1.0034
  478TIP3    H222926   0.516   3.289  15.744 -0.7424  1.6711 -0.1438
  479TIP3   OH222927   2.440   1.153   5.102 -0.3491  0.1155 -0.2869
  479TIP3    H122928   2.459   1.236   5.059 -0.2983 -0.2574 -0.9804
  479TIP3    H222929   2.521   1.130   5.147  0.2433 -0.5170 -1.6733
  480TIP3   OH222930   1.076   5.476  10.167 -0.2128 -0.1317 -0.2385
  480TIP3    H122931   1.097   5.565  10.139 -1.2551  0.1487 -0.1660
  480TIP3    H222932   0.980   5.475  10.173 -0.1088 -0.6901  1.6571
  481TIP3   OH222933   3.094   4.344   2.967  0.4146 -0.5033  0.1904
  481TIP3    H122934   3.048   4.350   3.051 -0.7976 -1.7761 -0.3689
  481TIP3    H222935   3.084   4.253   2.941  2.2294 -0.5222 -0.5470
  482TIP3   OH222936   3.852   4.162  17.068  0.4810  0.4289  0.2650
  482TIP3    H122937   3.801   4.238  17.095  1.1996  1.3869 -1.0159
  482TIP3    H222938   3.853   4.167  16.972  2.5617  0.1560  0.2554
  483TIP3   OH222939   2.526   3.398   0.435  0.4471  0.3887 -0.1758
  483TIP3    H122940   2.435   3.405   0.407 -0.1961 -0.2392  1.7104
  483TIP3    H222941   2.553   3.488   0.452 -0.0290  0.5179 -0.0915
  484TIP3   OH222942   4.528   3.138   4.570 -0.4351 -0.4739  0.8347
  484TIP3    H122943   4.606   3.106   4.526 -0.1255 -0.2120  1.1884
  484TIP3    H222944   4.561   3.190   4.643 -0.9205 -1.8941  2.1153
  485TIP3   OH222945   2.457   4.420  13.625  0.4539  0.4079 -0.1156
  485TIP3    H122946   2.446   4.438  13.532  3.1587  0.9725 -0.3639
  485TIP3    H222947   2.414   4.335  13.638  0.1696  0.2578 -1.9066
  486TIP3   OH222948   5.514   4.420   3.823  0.0305 -0.1650  0.3724
  486TIP3    H122949   5.459   4.445   3.750 -0.6042 -2.6683 -0.0435
  486TIP3    H222950   5.491   4.481   3.893 -1.8538  0.0388 -0.4112
  487TIP3   OH222951   2.372   5.490  13.300 -0.5364  0.6016  1.0961
  487TIP3    H122952   2.453   5.509  13.346 -0.3262  0.5057  0.7664
  487TIP3    H222953   2.362   5.563  13.239  0.4465 -0.4837 -0.4088
  488TIP3   OH222954   1.927   0.446   3.953 -0.6804 -0.6093  0.0709
  488TIP3    H122955   1.982   0.486   3.885 -0.5699  1.7785  1.5292
  488TIP3    H222956   1.855   0.406   3.904  0.2556 -0.3389 -1.5727
  489TIP3   OH222957   3.478   3.950  10.432 -0.0169 -0.0628  0.1985
  489TIP3    H122958   3.413   3.937  10.363 -0.5956 -0.9198  0.8948
  489TIP3    H222959   3.465   3.876  10.491  3.1235 -1.4895 -0.8130
  490TIP3   OH222960   5.723   4.480  12.849 -0.1752  0.3165 -0.2296
  490TIP3    H122961   5.668   4.547  12.890  0.4788 -0.0389  1.2812
  490TIP3    H222962   5.766   4.525  12.776 -0.0088  1.4503  0.5609
  491TIP3   OH222963   4.552   4.836  14.282  0.1340  0.3084 -0.4687
  491TIP3    H122964   4.620   4.770  14.295 -0.5645 -0.8163 -2.2543
  491TIP3    H222965   4.570   4.903  14.348  0.0024 -2.3488  2.3908
  492TIP3   OH222966   3.254   3.610  14.680  0.2145  0.3090 -0.0229
  492TIP3    H122967   3.337   3.652  14.705 -0.2455  0.7759  0.7513
  492TIP3    H222968   3.244   3.632  14.587  0.5596  0.9403  0.0813
  493TIP3   OH222969   1.046   6.355   0.453  0.3921  0.9115  0.6566
  493TIP3    H122970   1.076   6.274   0.493  0.9995  0.7999 -0.0147
  493TIP3    H222971   0.952   6.342   0.440  0.1134  1.1008  2.3761
  494TIP3   OH222972   1.641   6.567   2.000  0.0930 -0.1617 -0.1573
  494TIP3    H122973   1.653   6.559   2.095 -1.4790 -1.0099  0.0027
  494TIP3    H222974   1.623   6.477   1.971 -0.3599  0.2326 -1.1200
  495TIP3   OH222975   4.651   1.232  16.193 -0.0309 -0.6176 -0.0658
  495TIP3    H122976   4.660   1.137  16.198 -0.3285 -0.6576 -0.2594
  495TIP3    H222977   4.587   1.254  16.262 -2.7558 -0.9643 -2.3808
  496TIP3   OH222978   4.903   3.694   5.859 -0.5381 -0.6069  0.2931
  496TIP3    H122979   4.920   3.709   5.766 -0.5795  0.0383  0.3894
  496TIP3    H222980   4.813   3.659   5.861 -0.9251  0.3646  0.1731
  497TIP3   OH222981   1.424   5.144  12.510 -0.4388 -0.3467 -0.0292
  497TIP3    H122982   1.480   5.081  12.557  0.2054 -0.6501 -1.1693
  497TIP3    H222983   1.448   5.132  12.418 -0.6942  1.2014 -0.3038
  498TIP3   OH222984   6.592   0.170  15.330  0.0458  0.6172  0.0187
  498TIP3    H122985   6.604   0.177  15.235 -0.7843 -1.5193 -0.2644
  498TIP3    H222986   6.576   0.077  15.345 -0.2622  1.0113  2.2190
  499TIP3   OH222987   3.007   0.981  15.304 -0.1722 -0.3602 -0.3977
  499TIP3    H122988   3.068   0.991  15.231  0.1569  2.4525  0.2057
  499TIP3    H222989   2.933   1.038  15.282 -0.2404  0.2264  1.2634
  500TIP3   OH222990   6.137   0.389   2.034  0.2007 -0.3525 -0.1946
  500TIP3    H122991   6.098   0.417   2.117  2.8367  0.2620  0.8886
  500TIP3    H222992   6.176   0.303   2.055  0.5180 -0.3791 -0.9022
  501TIP3   OH222993   1.857   0.863  13.166 -0.1760  0.2705  0.3777
  501TIP3    H122994   1.842   0.865  13.261  0.6178  2.6518  0.4912
  501TIP3    H222995   1.952   0.862  13.157 -0.2353 -4.1572 -0.4019
  502TIP3   OH222996   1.623   3.397  11.445  0.5879  0.1364 -0.2834
  502TIP3    H122997   1.581   3.462  11.501  1.0647 -0.3605  0.6688
  502TIP3    H222998   1.680   3.448  11.388 -0.8490  0.7552 -1.1798
  503TIP3   OH222999   4.418   3.044  16.406 -0.4953  0.2886 -0.1991
  503TIP3    H123000   4.372   2.974  16.360 -2.1727  0.1916  1.5461
  503TIP3    H223001   4.351   3.110  16.423  0.7392  1.6383 -0.4900
  504TIP3   OH223002   4.320   6.245   0.633  0.4397  0.0721  0.9342
  504TIP3    H123003   4.335   6.338   0.652  2.2417  0.4920 -2.2611
  504TIP3    H223004   4.391   6.200   0.679 -0.2559  0.2579  2.2317
  505TIP3   OH223005   4.463   5.263  13.048  0.0919  0.8927 -0.0313
  505TIP3    H123006   4.456   5.175  13.012 -0.1710  0.9254 -0.0653
  505TIP3    H223007   4.448   5.321  12.974  0.0520  0.9633  0.0312
  506TIP3   OH223008   3.893   3.488  12.075  0.3456  0.2702  0.0152
  506TIP3    H123009   3.925   3.543  12.003  0.5534  2.9568  2.0575
  506TIP3    H223010   3.968   3.481  12.134  0.0399 -1.5239  0.1992
  507TIP3   OH223011   5.946   0.498  16.415 -0.2704  0.5098  0.3800
  507TIP3    H123012   5.859   0.504  16.376  0.0330 -0.3160 -0.4498
  507TIP3    H223013   5.931   0.474  16.506 -0.9184  0.5670  0.2877
  508TIP3   OH223014   2.765   5.161   5.762 -0.0669 -1.0135 -0.2698
  508TIP3    H123015   2.787   5.242   5.808  1.1564 -0.6023 -1.5221
  508TIP3    H223016   2.759   5.188   5.670 -2.2767 -1.8444 -0.3760
  509TIP3   OH223017   1.677   1.113   0.071  0.5259  0.2308  0.4393
  509TIP3    H123018   1.714   1.065  -0.003  0.0779 -0.5119  0.6922
  509TIP3    H223019   1.715   1.200   0.064 -1.2209  0.8519 -1.9672
  510TIP3   OH223020   2.331   0.191   5.926  0.2450  0.5722 -0.4965
  510TIP3    H123021   2.404   0.244   5.958  0.4072  0.5424 -0.8119
  510TIP3    H223022   2.319   0.124   5.993 -0.3208  1.3293  0.1668
  511TIP3   OH223023   2.026   4.513  13.601  0.4654 -0.1914  0.3421
  511TIP3    H123024   2.092   4.574  13.569  0.4490 -0.1323  0.4224
  511TIP3    H223025   2.061   4.426  13.580  1.1164 -0.1992  1.4452
  512TIP3   OH223026   1.086   5.597   5.087 -0.1923 -0.0541  0.0631
  512TIP3    H123027   1.089   5.506   5.117 -2.9384 -0.6298 -1.3168
  512TIP3    H223028   1.008   5.633   5.128 -0.2446  1.0993 -1.0384
  513TIP3   OH223029   3.084   5.650   0.820  0.2852 -0.1932  0.1668
  513TIP3    H123030   3.040   5.720   0.771  0.2043 -0.7982 -0.6271
  513TIP3    H223031   3.015   5.614   0.876  0.5408  0.9460  1.2406
  514TIP3   OH223032   2.816   5.810  14.129  0.4336 -0.1367  0.7364
  514TIP3    H123033   2.733   5.817  14.176  0.6626 -0.0284  1.1289
  514TIP3    H223034   2.814   5.882  14.065 -0.6808 -1.4216 -0.6926
  515TIP3   OH223035   1.778   5.205  10.608 -0.9655  0.2675  0.2618
  515TIP3    H123036   1.717   5.217  10.680 -1.1801 -0.0709  0.1339
  515TIP3    H223037   1.742   5.134  10.556 -0.1148 -0.3976  0.5606
  516TIP3   OH223038   4.362   1.897  17.133 -0.1277 -0.5466  0.2931
  516TIP3    H123039   4.444   1.887  17.182 -0.4018  1.1676  1.1353
  516TIP3    H223040   4.378   1.970  17.073 -1.5159  0.7833  1.5013
  517TIP3   OH223041   2.953   1.571  11.449  0.0583 -0.0952 -0.1402
  517TIP3    H123042   3.023   1.563  11.514  1.1579 -1.1513 -1.4211
  517TIP3    H223043   2.940   1.665  11.441  4.0088  0.3542 -2.6079
  518TIP3   OH223044   6.457   1.816  10.680 -0.1889  0.0026 -0.1567
  518TIP3    H123045   6.451   1.908  10.654  0.0838 -0.3134 -1.3518
  518TIP3    H223046   6.368   1.782  10.666  0.0442 -0.2574 -1.0435
  519TIP3   OH223047   6.278   5.868  10.254  0.5014 -0.1586 -0.1942
  519TIP3    H123048   6.351   5.915  10.214  1.7655 -1.7853  0.1322
  519TIP3    H223049   6.272   5.786  10.204 -1.4807  0.1922 -0.5843
  520TIP3   OH223050   3.199   6.382  15.949  0.0397  0.0325 -0.0419
  520TIP3    H123051   3.230   6.469  15.974 -0.2201  0.1602 -0.1593
  520TIP3    H223052   3.120   6.369  16.001  0.0075 -0.0802 -0.1181
  521TIP3   OH223053   0.099   0.165  11.918 -0.0454 -0.3024 -0.2384
  521TIP3    H123054   0.055   0.139  11.837 -1.0963 -0.4672  0.3793
  521TIP3    H223055   0.189   0.135  11.907  0.6865  2.5011 -2.7011
  522TIP3   OH223056   3.590   3.613  14.956  0.7162 -1.0026 -0.4672
  522TIP3    H123057   3.549   3.700  14.958  0.4334 -1.1541  0.6258
  522TIP3    H223058   3.645   3.611  15.034  2.1281 -1.1417 -1.4561
  523TIP3   OH223059   1.978   1.042  15.644  0.0943  0.2468 -0.9116
  523TIP3    H123060   1.930   1.119  15.677 -0.1406 -0.1628 -0.2840
  523TIP3    H223061   1.933   0.968  15.684  1.4746 -0.1343 -0.0314
  524TIP3   OH223062   5.206   6.732  16.913  0.0954  0.1034  0.4131
  524TIP3    H123063   5.164   6.809  16.952 -0.7769 -0.0149 -0.2804
  524TIP3    H223064   5.192   6.662  16.977  0.8177  0.4989  1.0063
  525TIP3   OH223065   2.350   2.158   0.361  0.9452  0.8512  1.0234
  525TIP3    H123066   2.314   2.078   0.323  2.3696 -0.1865  1.8360
  525TIP3    H223067   2.327   2.226   0.298 -0.4318 -0.1475  0.4043
  526TIP3   OH223068   3.015   5.704   4.764  0.3410 -0.1139  0.2397
  526TIP3    H123069   3.074   5.634   4.792  2.1677  1.9025  1.6148
  526TIP3    H223070   2.991   5.748   4.846 -2.4056 -0.3578 -0.3903
  527TIP3   OH223071   4.256   6.048   3.864 -0.0348 -0.2202 -0.0310
  527TIP3    H123072   4.257   6.115   3.932  0.8268  0.6398 -0.8717
  527TIP3    H223073   4.312   6.084   3.795 -0.4089 -1.3514 -0.9263
  528TIP3   OH223074   0.917   6.642   1.791  0.1274 -0.7051 -0.1286
  528TIP3    H123075   0.934   6.721   1.843  1.0291 -1.3126  0.5149
  528TIP3    H223076   0.978   6.648   1.718 -0.4411 -0.3512 -0.5746
  529TIP3   OH223077   0.751   1.471   4.174 -0.0878  0.2055  0.5975
  529TIP3    H123078   0.726   1.480   4.266  0.9109 -0.1060  0.9006
  529TIP3    H223079   0.685   1.412   4.138 -1.5456  1.7584  0.6728
  530TIP3   OH223080   4.682   5.324  12.782  0.1320 -0.4270 -0.0614
  530TIP3    H123081   4.689   5.412  12.745 -0.2758 -0.9338 -1.3439
  530TIP3    H223082   4.718   5.333  12.871 -1.8514  1.4907  0.5728
  531TIP3   OH223083   6.089   6.804   1.687 -0.2796 -0.6991 -0.7060
  531TIP3    H123084   5.994   6.816   1.695 -0.3859 -1.8298 -0.1759
  531TIP3    H223085   6.119   6.790   1.777  0.5167  0.4150 -0.7752
  532TIP3   OH223086   1.811   0.459   5.023  0.0358 -0.2457  0.7754
  532TIP3    H123087   1.803   0.515   4.946 -0.1184 -0.1700  0.8472
  532TIP3    H223088   1.728   0.468   5.069 -0.1532 -0.8571  0.5687
  533TIP3   OH223089   6.591   4.465   5.741  0.0697 -0.1466 -0.0729
  533TIP3    H123090   6.630   4.391   5.693  1.3495  0.5463 -0.1232
  533TIP3    H223091   6.499   4.463   5.716  1.1043  1.6257 -4.5286
  534TIP3   OH223092   2.596   2.909   3.665  0.0705 -0.3855  0.3364
  534TIP3    H123093   2.668   2.935   3.723  0.9090 -1.9861  0.0673
  534TIP3    H223094   2.517   2.925   3.716  0.6747  0.5122  1.0069
  535TIP3   OH223095   1.062   2.240  14.133 -0.2205  0.0858 -0.3957
  535TIP3    H123096   1.034   2.160  14.090 -1.1705  0.3439 -0.2774
  535TIP3    H223097   1.157   2.232  14.140 -0.4641 -1.7700  1.1279
  536TIP3   OH223098   5.549   3.098   1.655 -0.0787 -0.2820  0.7716
  536TIP3    H123099   5.511   3.163   1.596  0.0690 -1.0661 -0.2019
  536TIP3    H223100   5.612   3.148   1.708 -0.5425  0.5132  0.5806
  537TIP3   OH223101   5.754   5.068   4.719  0.1329  0.1858 -0.0209
  537TIP3    H123102   5.812   4.994   4.736  1.3109  1.1501  0.2224
  537TIP3    H223103   5.800   5.144   4.754  0.3178  1.4890 -2.9317
  538TIP3   OH223104   2.381   0.896  16.836  0.2319 -0.1543 -0.1480
  538TIP3    H123105   2.361   0.814  16.791 -0.3288  0.0389 -0.2638
  538TIP3    H223106   2.391   0.872  16.928 -1.1954 -0.1654  0.0125
  539TIP3   OH223107   5.957   0.493  12.663 -0.1940 -0.1258 -0.5195
  539TIP3    H123108   5.981   0.401  12.671 -1.5776 -0.3632  1.1986
  539TIP3    H223109   6.012   0.539  12.726 -1.7299 -0.2309  0.9506
  540TIP3   OH223110   1.330   5.744  12.111 -0.0206  0.4158 -0.1402
  540TIP3    H123111   1.337   5.824  12.164  0.4960 -0.0587  0.5102
  540TIP3    H223112   1.243   5.710  12.131 -0.2462  0.8294 -0.4279
  541TIP3   OH223113   1.485   6.375   3.771  0.7923 -0.2165  0.1965
  541TIP3    H123114   1.513   6.286   3.788 -2.8486 -1.6766 -0.8243
  541TIP3    H223115   1.470   6.378   3.676 -0.4343  1.0142  0.4071
  542TIP3   OH223116   0.067   0.753   5.418 -0.0665  0.5146 -0.1220
  542TIP3    H123117  -0.010   0.790   5.461  0.5510 -0.3179  1.7709
  542TIP3    H223118   0.125   0.827   5.402  0.2635  0.6858  1.7376
  543TIP3   OH223119   2.986   3.016   3.301  0.5875  0.3831  0.3145
  543TIP3    H123120   2.922   2.946   3.309  1.0506 -0.2330 -1.2083
  543TIP3    H223121   2.948   3.089   3.350 -1.3384  0.0598 -0.6567
  544TIP3   OH223122   5.482   1.802  14.135  0.2146 -0.0928 -0.2350
  544TIP3    H123123   5.515   1.878  14.087 -3.2927  0.8815 -1.2447
  544TIP3    H223124   5.518   1.727  14.088 -0.2344  0.9125 -2.2438
  545TIP3   OH223125   6.741   0.446   0.871 -0.0140  0.1704  0.2657
  545TIP3    H123126   6.746   0.448   0.775 -1.9288 -3.2852 -0.0039
  545TIP3    H223127   6.653   0.478   0.892  0.9267  2.3805  1.0253
  546TIP3   OH223128   1.727   4.049  11.145 -0.1005  0.0601  0.2214
  546TIP3    H123129   1.762   4.075  11.060  0.3754  1.2940  0.7911
  546TIP3    H223130   1.804   4.035  11.199 -0.3807 -1.4505  0.2542
  547TIP3   OH223131   4.191   4.279  15.096  0.2315 -0.1906  0.4772
  547TIP3    H123132   4.243   4.270  15.176 -0.5596 -1.1192  0.8914
  547TIP3    H223133   4.112   4.324  15.125  1.1512  2.0065 -0.3069
  548TIP3   OH223134   3.863   2.505  17.082  0.0573  0.6452  0.5710
  548TIP3    H123135   3.784   2.486  17.032  2.2598 -3.5098 -1.6011
  548TIP3    H223136   3.852   2.457  17.164  0.3199  0.0905  0.2801
  549TIP3   OH223137   1.959   5.057   2.141 -0.5615  0.3181  0.4146
  549TIP3    H123138   1.994   5.129   2.193 -0.4754 -0.6338  1.6865
  549TIP3    H223139   1.920   4.998   2.205  0.1172 -1.1847 -0.5432
  550TIP3   OH223140   2.450   6.428   0.532 -0.0898  0.0275 -0.1646
  550TIP3    H123141   2.432   6.496   0.596 -1.3859  0.3446 -0.8351
  550TIP3    H223142   2.460   6.476   0.449  0.8054 -0.4359 -0.3231
  551TIP3   OH223143   4.338   2.082   2.870 -0.0737  0.0500 -0.2661
  551TIP3    H123144   4.387   2.009   2.832 -0.1282 -0.7251  1.1076
  551TIP3    H223145   4.248   2.049   2.877  0.1369 -0.1977  1.4636
  552TIP3   OH223146   6.109   4.650   2.464 -0.6584  0.0104  0.3771
  552TIP3    H123147   6.063   4.638   2.547  0.0874 -1.3480  0.6134
  552TIP3    H223148   6.087   4.739   2.437 -0.3550  0.7250  2.3805
  553TIP3   OH223149   3.174   3.117   2.808 -0.3663 -0.2239 -0.4561
  553TIP3    H123150   3.237   3.055   2.770 -0.5482 -0.3276 -0.5896
  553TIP3    H223151   3.129   3.066   2.876 -1.2640 -0.5595 -1.2862
  554TIP3   OH223152   4.058   2.258   1.985 -0.3330  0.3302 -0.1221
  554TIP3    H123153   4.078   2.166   1.969 -2.1452 -0.1517  0.2639
  554TIP3    H223154   4.049   2.296   1.897  0.8403  0.2667 -0.2895
  555TIP3   OH223155   6.380   4.597   3.764 -0.0279  0.1748  0.3551
  555TIP3    H123156   6.405   4.686   3.739  0.9225 -0.1859 -0.0115
  555TIP3    H223157   6.330   4.565   3.689  2.9215 -0.9457 -1.2244
  556TIP3   OH223158   0.893   0.477   1.489 -0.1694  0.0393  1.0850
  556TIP3    H123159   0.808   0.502   1.454 -0.1723 -2.1488 -0.5404
  556TIP3    H223160   0.956   0.520   1.432 -0.1705  1.1526  1.9114
  557TIP3   OH223161   2.283   2.336  13.443 -0.0062 -0.3248 -0.3205
  557TIP3    H123162   2.351   2.372  13.386  0.1735 -1.0570 -0.5722
  557TIP3    H223163   2.254   2.256  13.399  1.5357 -1.9775  1.5898
  558TIP3   OH223164   2.302   4.692   3.345 -0.2258 -0.1660 -0.3545
  558TIP3    H123165   2.344   4.707   3.430  0.1862  1.0287 -0.7578
  558TIP3    H223166   2.306   4.597   3.333 -0.1240 -0.3285  0.8742
  559TIP3   OH223167   5.625   6.439   5.491  0.3910 -0.2546  0.3132
  559TIP3    H123168   5.565   6.386   5.543 -0.6686  1.2954  0.7121
  559TIP3    H223169   5.667   6.497   5.554  0.8378  0.0166 -0.2275
  560TIP3   OH223170   2.975   2.326   0.908  0.4046 -0.2278  0.0349
  560TIP3    H123171   2.948   2.379   0.833  1.7307  0.1872 -0.1598
  560TIP3    H223172   2.962   2.382   0.984 -2.9622 -1.3685  0.3822
  561TIP3   OH223173   2.417   0.414   3.114 -0.3489  0.0677  0.0387
  561TIP3    H123174   2.373   0.330   3.126  1.7426 -0.8163  1.7095
  561TIP3    H223175   2.508   0.391   3.096  0.4814  1.9968  1.6736
  562TIP3   OH223176   2.563   3.819   5.070 -0.7281  0.3217 -0.0956
  562TIP3    H123177   2.530   3.871   5.143 -2.5258  2.3805 -2.2855
  562TIP3    H223178   2.644   3.863   5.043 -1.3735  1.0401 -0.8915
  563TIP3   OH223179   1.460   2.561   4.616  0.4204  0.3662 -0.1284
  563TIP3    H123180   1.419   2.559   4.529  0.3735  1.6952 -0.1376
  563TIP3    H223181   1.422   2.486   4.662 -1.3441  1.0554 -0.4448
  564TIP3   OH223182   6.819   1.330  11.215 -0.5726  0.6550  0.1006
  564TIP3    H123183   6.731   1.312  11.246 -0.3126  0.6674  0.8614
  564TIP3    H223184   6.820   1.424  11.197 -1.1395  0.4042 -1.3100
  565TIP3   OH223185   1.563   5.722   2.803  0.1103 -0.0585 -0.2562
  565TIP3    H123186   1.514   5.687   2.878 -0.9695 -1.0204 -1.3964
  565TIP3    H223187   1.497   5.770   2.752  1.1640  1.9328  0.2132
  566TIP3   OH223188   3.221   5.598  16.128 -0.0969  0.0776  0.2395
  566TIP3    H123189   3.273   5.558  16.058  1.4578 -0.7678  1.8326
  566TIP3    H223190   3.220   5.691  16.107  1.9652  0.0926  0.0794
  567TIP3   OH223191   1.438   5.522   2.616  0.2334  0.0386 -0.3963
  567TIP3    H123192   1.367   5.490   2.561  0.3924  1.2338 -1.3053
  567TIP3    H223193   1.439   5.617   2.603  0.9894  0.2189  0.8061
  568TIP3   OH223194   6.749   0.987   1.858  0.5966  0.3048 -0.2054
  568TIP3    H123195   6.812   1.053   1.887  0.2902  0.0397  1.0825
  568TIP3    H223196   6.750   0.920   1.927  1.6067 -1.5399 -1.9399
  569TIP3   OH223197   5.958   0.724  13.251  0.0782  0.2482 -0.5774
  569TIP3    H123198   5.965   0.712  13.346  1.6487  1.6927 -0.4681
  569TIP3    H223199   5.883   0.782  13.239 -0.2972 -0.1680 -0.2393
  570TIP3   OH223200   4.769   0.806  16.033 -0.7676  0.1110  0.6656
  570TIP3    H123201   4.834   0.866  15.996  0.7053 -1.6535  0.2828
  570TIP3    H223202   4.821   0.736  16.072 -2.4463 -1.2674  0.4962
  571TIP3   OH223203   2.861   0.927   5.628  0.1231  0.1574  0.2861
  571TIP3    H123204   2.810   0.874   5.690  0.3739  0.6262  0.8953
  571TIP3    H223205   2.943   0.945   5.674 -0.3113  1.8115  0.4149
  572TIP3   OH223206   2.204   2.407  15.541  0.0648  0.1045 -0.1061
  572TIP3    H123207   2.198   2.353  15.620  0.9343  0.6225  0.3287
  572TIP3    H223208   2.208   2.344  15.469  0.8667 -0.4094  0.3797
  573TIP3   OH223209   2.287   6.352  16.163 -0.9111  0.1214 -0.4929
  573TIP3    H123210   2.201   6.392  16.147 -0.2811  1.5181 -0.4157
  573TIP3    H223211   2.313   6.385  16.249 -0.5774 -0.8223 -0.2220
  574TIP3   OH223212   3.575   5.423  14.075  0.1057  0.4100  0.3542
  574TIP3    H123213   3.582   5.418  14.171 -1.9625  0.5833  0.5402
  574TIP3    H223214   3.481   5.414  14.058  0.6260 -1.3394 -1.7807
  575TIP3   OH223215   0.595   4.360   1.210 -0.0769 -0.0943 -0.1929
  575TIP3    H123216   0.550   4.425   1.156  0.2817 -0.4547 -0.9273
  575TIP3    H223217   0.531   4.291   1.223 -0.3920  0.3101  0.4208
  576TIP3   OH223218   1.779   2.168   2.800 -0.2880  0.5338 -0.4292
  576TIP3    H123219   1.701   2.114   2.787 -0.7819  1.4048 -1.1421
  576TIP3    H223220   1.822   2.130   2.876 -1.9944  0.7179  0.6616
  577TIP3   OH223221   4.359   1.261   3.845  1.1534 -0.4023  0.2039
  577TIP3    H123222   4.290   1.241   3.783 -0.8096  0.3311  2.0999
  577TIP3    H223223   4.373   1.356   3.835 -0.3070  0.0108  2.0103
  578TIP3   OH223224   1.583   5.936  16.422  0.1572 -0.3037 -0.1541
  578TIP3    H123225   1.672   5.970  16.423 -0.5289  1.5954 -1.2259
  578TIP3    H223226   1.566   5.910  16.513  2.0579 -1.4050 -0.1031
  579TIP3   OH223227   4.224   6.566  15.539 -0.0715  0.1577 -0.4119
  579TIP3    H123228   4.252   6.475  15.526 -0.8889 -0.0827 -0.5362
  579TIP3    H223229   4.174   6.586  15.460  0.1180  0.7285 -0.3891
  580TIP3   OH223230   6.040   4.579   2.955  0.5244  0.0625  0.6088
  580TIP3    H123231   6.129   4.576   2.991  1.0346 -0.5119 -0.6878
  580TIP3    H223232   6.036   4.660   2.905  1.1839 -1.1658 -1.4993
  581TIP3   OH223233   6.128   0.128  13.999 -0.5532 -0.2820  0.7334
  581TIP3    H123234   6.125   0.208  13.947  0.3556 -1.0662 -0.5605
  581TIP3    H223235   6.039   0.119  14.034 -1.4945 -0.3012 -1.5745
  582TIP3   OH223236   5.362   2.419  14.292 -0.0571  0.3287 -0.1460
  582TIP3    H123237   5.382   2.487  14.227 -0.0148 -0.8134 -1.3600
  582TIP3    H223238   5.289   2.371  14.254 -0.2660 -0.1244  0.8384
  583TIP3   OH223239   0.615   2.837  14.937 -0.1330 -0.5836  0.3108
  583TIP3    H123240   0.595   2.749  14.905  0.6172 -1.6839  2.7825
  583TIP3    H223241   0.548   2.854  15.003 -0.3736  0.7813 -0.2747
  584TIP3   OH223242   3.697   0.346   5.882 -0.7346  0.4246 -0.5232
  584TIP3    H123243   3.719   0.338   5.975 -0.9382 -2.5365 -0.6856
  584TIP3    H223244   3.774   0.313   5.836 -1.8358 -1.1230 -1.3058
  585TIP3   OH223245   5.535   1.620   5.993  0.1609  0.0439 -0.1088
  585TIP3    H123246   5.589   1.543   6.010  0.5222  0.1959 -0.5651
  585TIP3    H223247   5.485   1.598   5.914 -0.0143  0.1288 -0.0221
  586TIP3   OH223248   5.704   1.369  13.070  0.0054  0.2809  0.5120
  586TIP3    H123249   5.778   1.309  13.054 -0.0910  0.3726 -0.2715
  586TIP3    H223250   5.674   1.346  13.158  0.3138 -0.4631  0.4285
  587TIP3   OH223251   4.328   3.865  13.502 -0.2151  0.2489 -0.2741
  587TIP3    H123252   4.238   3.895  13.489 -0.6444 -0.8730  0.0786
  587TIP3    H223253   4.323   3.770  13.498  0.5502  0.0625  2.1210
  588TIP3   OH223254   3.619   6.560   2.773  0.1804 -0.1879 -0.6808
  588TIP3    H123255   3.534   6.518   2.777  0.5718 -1.3269 -3.2693
  588TIP3    H223256   3.660   6.540   2.857 -2.4278  1.1754  0.9770
  589TIP3   OH223257   6.812   5.696  15.867 -0.3678  0.2028 -0.1472
  589TIP3    H123258   6.786   5.742  15.947 -1.4334  1.5591 -1.2465
  589TIP3    H223259   6.751   5.623  15.860 -0.9441  0.6909 -0.2621
  590TIP3   OH223260   4.167   5.962   3.240  0.1369 -0.3163  1.0622
  590TIP3    H123261   4.252   5.925   3.262  0.2511  0.3105  1.7261
  590TIP3    H223262   4.105   5.915   3.296  0.2186  0.1137  1.5276
  591TIP3   OH223263   2.082   4.646  11.265  0.2458  0.3690  0.4868
  591TIP3    H123264   2.016   4.700  11.223  1.3860 -1.6256 -4.1567
  591TIP3    H223265   2.068   4.558  11.229  3.7655 -0.6174  1.3428
  592TIP3   OH223266   0.742   0.736   4.829 -0.0557  0.0549  0.0510
  592TIP3    H123267   0.708   0.690   4.752 -0.6194  1.5332 -0.5967
  592TIP3    H223268   0.802   0.801   4.793  1.7880 -1.0426  1.0498
  593TIP3   OH223269   3.626   5.449   5.055 -0.6989 -0.1698 -0.7825
  593TIP3    H123270   3.613   5.399   5.135  0.8904  0.3876 -0.1455
  593TIP3    H223271   3.639   5.383   4.987  2.7747 -0.6990  0.2809
  594TIP3   OH223272   2.196   2.322  13.933 -0.4896  0.1637  0.4156
  594TIP3    H123273   2.245   2.254  13.886  0.5505  0.5118  0.9862
  594TIP3    H223274   2.189   2.290  14.022 -1.3246  0.1174  0.3449
  595TIP3   OH223275   1.351   2.434  10.441  0.0660 -0.0229 -0.3882
  595TIP3    H123276   1.388   2.348  10.425  0.9109  0.4414 -0.9190
  595TIP3    H223277   1.270   2.417  10.490 -0.3849 -1.1860 -1.5293
  596TIP3   OH223278   1.688   5.836  13.476  0.1527  0.8551  0.0103
  596TIP3    H123279   1.707   5.885  13.395  0.4536  1.7249  0.5969
  596TIP3    H223280   1.773   5.801  13.503 -0.3057 -1.2670 -1.2093
  597TIP3   OH223281   6.079   0.216   0.809 -0.1111 -0.1226  0.3919
  597TIP3    H123282   6.089   0.121   0.817 -0.0822 -0.2252 -0.8477
  597TIP3    H223283   5.992   0.228   0.771  0.4710  0.2857 -0.8339
  598TIP3   OH223284   2.087   6.427  13.472  0.2900 -0.4223  0.2838
  598TIP3    H123285   2.066   6.411  13.564 -0.1305 -0.4232  0.1891
  598TIP3    H223286   2.062   6.346  13.427  0.3702 -0.3727  0.1505
  599TIP3   OH223287   0.195   5.393   0.317 -0.1356 -1.1623 -0.0457
  599TIP3    H123288   0.284   5.419   0.292 -0.8777  0.2816 -1.2650
  599TIP3    H223289   0.198   5.389   0.413  0.7243  0.8881  0.0477
  600TIP3   OH223290   2.261   1.295  14.675  0.5935 -0.6411  0.0523
  600TIP3    H123291   2.274   1.383  14.710 -0.8086 -0.7347  0.8651
  600TIP3    H223292   2.337   1.245  14.706  1.8067  0.4779 -1.0985
  601TIP3   OH223293   1.201   6.081  15.918  0.1076 -0.0167  0.2828
  601TIP3    H123294   1.264   6.132  15.967  0.2267 -0.1351  0.2546
  601TIP3    H223295   1.164   6.020  15.982 -0.3304  0.3821  0.4096
  602TIP3   OH223296   5.630   3.159  11.995  0.6980  0.0650  0.0361
  602TIP3    H123297   5.547   3.121  11.966  0.5012  0.7717 -0.3340
  602TIP3    H223298   5.666   3.201  11.917 -0.6042  3.3624  1.1328
  603TIP3   OH223299   1.902   3.825   0.833  0.4752 -0.3831  0.1414
  603TIP3    H123300   1.837   3.875   0.884  1.5071 -0.7936  1.9031
  603TIP3    H223301   1.854   3.748   0.803 -0.0283 -0.3895  0.9349
  604TIP3   OH223302   2.260   4.036   3.720 -0.0018 -0.2552  0.7262
  604TIP3    H123303   2.271   3.946   3.750  1.1988 -0.3327  0.0843
  604TIP3    H223304   2.287   4.090   3.794  0.6585 -0.4326  0.6171
  605TIP3   OH223305   2.040   1.253  15.375  0.7117 -1.4036 -0.1351
  605TIP3    H123306   2.042   1.195  15.299  1.8374 -0.2686 -0.9988
  605TIP3    H223307   1.954   1.295  15.371  0.7369 -1.4008 -0.7626
  606TIP3   OH223308   4.824   2.972  14.211 -0.3797  0.0532  0.3927
  606TIP3    H123309   4.901   2.970  14.267  0.8215  2.4744 -1.0673
  606TIP3    H223310   4.846   2.914  14.138 -0.5668 -0.4399  0.7265
  607TIP3   OH223311   0.068   5.734   2.344  0.7761  1.1613  0.5542
  607TIP3    H123312   0.035   5.709   2.430  2.4376  0.1505  0.9336
  607TIP3    H223313   0.161   5.755   2.359  1.1631  0.6785 -1.0180
  608TIP3   OH223314   1.326   0.000   1.983 -0.1658 -0.2624 -0.1451
  608TIP3    H123315   1.295  -0.006   2.074  0.1812 -0.3518 -0.0330
  608TIP3    H223316   1.376   0.082   1.980  2.1069 -1.5967  0.4391
  609TIP3   OH223317   3.767   5.738  13.036  0.3397  0.1914  0.2193
  609TIP3    H123318   3.835   5.805  13.034  0.8219 -0.3184 -0.6809
  609TIP3    H223319   3.813   5.656  13.019 -0.5803 -0.0903 -1.0285
  610TIP3   OH223320   6.157   5.644   5.070 -0.3759  0.0696  0.4872
  610TIP3    H123321   6.248   5.618   5.082 -0.1473  0.6076 -0.0295
  610TIP3    H223322   6.158   5.700   4.992 -0.6720  2.4652  2.1281
  611TIP3   OH223323   0.096   6.439   3.630 -0.1288  0.2155 -0.4043
  611TIP3    H123324   0.134   6.353   3.616 -0.6578 -0.1248  0.2418
  611TIP3    H223325   0.074   6.441   3.723  0.9528  1.4864 -0.1599
  612TIP3   OH223326   4.317   6.587   0.331 -0.3356  0.2980 -0.1064
  612TIP3    H123327   4.355   6.646   0.266  1.5690 -0.2693  0.4416
  612TIP3    H223328   4.274   6.644   0.394 -0.4262  0.9719 -0.7805
  613TIP3   OH223329   3.434   5.512  10.954  0.0435 -0.3385  0.2178
  613TIP3    H123330   3.440   5.448  11.024  1.6031  0.2168  0.6234
  613TIP3    H223331   3.392   5.588  10.994 -0.6773 -0.6489  0.0647
  614TIP3   OH223332   4.782   3.814  10.676  0.3550  0.6616 -0.0391
  614TIP3    H123333   4.727   3.806  10.598  2.2384 -0.0753 -1.3195
  614TIP3    H223334   4.790   3.725  10.709 -2.9803  1.3001  2.8835
  615TIP3   OH223335   2.988   5.873  13.592 -0.2488  0.5795 -0.5315
  615TIP3    H123336   3.057   5.829  13.643 -1.3934 -1.0750 -0.3863
  615TIP3    H223337   3.031   5.898  13.510  0.1081 -1.9194 -1.1339
  616TIP3   OH223338   3.295   4.459   2.139 -0.3700 -0.1783  0.1633
  616TIP3    H123339   3.202   4.482   2.137  0.0552  1.6918  0.4643
  616TIP3    H223340   3.298   4.368   2.168 -2.1224 -0.3544 -0.1986
  617TIP3   OH223341   4.393   6.096  13.772  0.1511  0.5592  0.0750
  617TIP3    H123342   4.433   6.180  13.752 -1.2554  2.1371  3.6262
  617TIP3    H223343   4.357   6.066  13.689  2.9269  2.1727 -1.7880
  618TIP3   OH223344   0.825   6.806  12.497 -0.1377  0.2473  0.3658
  618TIP3    H123345   0.911   6.771  12.520 -0.1693  0.4464  0.7794
  618TIP3    H223346   0.833   6.828  12.404  0.7914  1.8122  0.7980
  619TIP3   OH223347   2.110   5.563  11.713  0.4270  0.6051  0.4675
  619TIP3    H123348   2.035   5.529  11.665  1.5571 -0.4030 -0.6036
  619TIP3    H223349   2.077   5.576  11.802 -1.3952  1.5204 -0.3186
  620TIP3   OH223350   1.321   0.535  17.127  0.0294 -0.2244 -0.3068
  620TIP3    H123351   1.248   0.588  17.158 -0.2514 -0.4958 -0.4989
  620TIP3    H223352   1.286   0.446  17.123  0.4282 -0.3875 -0.2076
  621TIP3   OH223353   1.301   1.515   5.205  1.0386 -0.0224  0.1030
  621TIP3    H123354   1.336   1.426   5.204 -1.2044 -0.9305  0.1917
  621TIP3    H223355   1.352   1.561   5.138  1.3164 -1.7319 -0.8847
  622TIP3   OH223356   0.536   6.468   3.201  0.2381  0.2454 -0.1853
  622TIP3    H123357   0.508   6.516   3.123  1.2697 -2.1240 -2.0752
  622TIP3    H223358   0.570   6.385   3.168  0.9322 -0.7351  2.7806
  623TIP3   OH223359   2.142   4.452   2.550  0.5819 -0.1743  0.6088
  623TIP3    H123360   2.123   4.428   2.641  0.7079  0.0405  0.6916
  623TIP3    H223361   2.075   4.517   2.528  0.2938 -0.5360  0.4123
  624TIP3   OH223362   3.062   6.403  14.639 -0.3938 -0.4216 -0.0430
  624TIP3    H123363   3.109   6.407  14.722 -1.0425 -1.0484  0.3656
  624TIP3    H223364   2.976   6.442  14.659 -0.4994 -0.4383 -0.4573
  625TIP3   OH223365   6.059   2.493  15.180  0.3590 -0.2780  0.2284
  625TIP3    H123366   6.098   2.411  15.149 -0.4289 -0.2151 -0.9589
  625TIP3    H223367   6.026   2.535  15.101 -0.3734  0.5987  0.9915
  626TIP3   OH223368   5.599   5.497  11.740 -0.4512  0.0687  0.1492
  626TIP3    H123369   5.661   5.568  11.720 -0.6466  0.5551  1.2762
  626TIP3    H223370   5.652   5.431  11.785 -0.2621 -0.5297 -0.9306
  627TIP3   OH223371   3.978   0.671   1.302 -0.3781  0.0282  0.3297
  627TIP3    H123372   4.048   0.714   1.253 -0.7979  1.4628  0.9590
  627TIP3    H223373   3.898   0.691   1.253 -0.6166  0.2910  0.8105
  628TIP3   OH223374   4.752   4.146  16.419  0.1377 -0.0021 -0.2173
  628TIP3    H123375   4.663   4.163  16.452 -0.4807 -1.4673 -1.1153
  628TIP3    H223376   4.752   4.054  16.395  2.6912 -0.7047  2.1682
  629TIP3   OH223377   6.413   0.143  17.053  0.0367  0.1836 -0.4703
  629TIP3    H123378   6.506   0.160  17.067 -0.3131  1.0669  0.9460
  629TIP3    H223379   6.406   0.048  17.045  1.1107  0.1512 -1.0127
  630TIP3   OH223380   4.872   2.887  13.251  0.1632 -0.3102  0.2422
  630TIP3    H123381   4.781   2.882  13.280  0.3462 -0.4399  0.7931
  630TIP3    H223382   4.920   2.917  13.327  0.9797 -2.9183  0.8025
  631TIP3   OH223383   0.105   1.050  13.175 -0.2405  0.5747  0.2143
  631TIP3    H123384   0.122   0.993  13.099  1.2513  1.1517  0.0909
  631TIP3    H223385   0.060   0.994  13.237 -0.4470 -0.2361 -0.6488
  632TIP3   OH223386   4.111   1.425  11.064 -0.2070 -0.0900  0.3892
  632TIP3    H123387   4.077   1.387  10.983  0.6129 -2.6792  1.2188
  632TIP3    H223388   4.203   1.444  11.045 -0.3888  0.6702  0.2585
  633TIP3   OH223389   6.713   1.032   1.107  0.6371  0.0408 -0.8014
  633TIP3    H123390   6.701   1.124   1.132  0.5917  0.4533 -2.3213
  633TIP3    H223391   6.625   0.995   1.108  0.4249  0.4835 -1.9489
  634TIP3   OH223392   0.644   6.326   1.713  0.2041  0.2645 -0.7387
  634TIP3    H123393   0.555   6.313   1.681  0.2468 -1.3099 -0.2454
  634TIP3    H223394   0.649   6.420   1.732 -1.5751  0.2419 -0.1091
  635TIP3   OH223395   3.617   3.026  14.103 -0.1107  0.2877  0.1265
  635TIP3    H123396   3.602   3.001  14.012  0.7500 -1.4609  0.4331
  635TIP3    H223397   3.707   3.058  14.105 -0.8114  2.3047 -0.0239
  636TIP3   OH223398   4.182   4.934  16.023  0.2037  0.6158 -0.1241
  636TIP3    H123399   4.180   4.916  15.929 -0.1086 -0.5234  0.1010
  636TIP3    H223400   4.171   4.849  16.065 -0.4042  1.2080  0.9491
  637TIP3   OH223401   1.015   5.292  11.422  0.7891 -0.2021 -0.2963
  637TIP3    H123402   0.966   5.225  11.470  2.2297 -0.4120  0.8921
  637TIP3    H223403   0.977   5.291  11.334 -0.4034 -1.3240  0.2166
  638TIP3   OH223404   2.223   6.114  12.653 -0.3527 -0.0888 -0.2907
  638TIP3    H123405   2.294   6.083  12.709 -1.0712  0.6812  1.0833
  638TIP3    H223406   2.154   6.049  12.663 -0.2439 -0.2852 -0.7972
  639TIP3   OH223407   0.676   5.015   3.350 -0.1685  0.3026 -0.1301
  639TIP3    H123408   0.611   4.990   3.285 -0.7318  1.3190  0.0411
  639TIP3    H223409   0.674   5.111   3.351  1.9973  0.3831 -0.8119
  640TIP3   OH223410   6.614   4.894   6.343 -0.1131  0.6940 -0.4998
  640TIP3    H123411   6.686   4.942   6.303  0.2689 -0.3309 -1.0504
  640TIP3    H223412   6.616   4.807   6.302 -2.2832  0.9707 -1.2507
  641TIP3   OH223413   2.286   1.448  14.393 -0.0028  0.2445 -0.4878
  641TIP3    H123414   2.318   1.451  14.302  0.5408  0.1586 -0.2968
  641TIP3    H223415   2.276   1.354  14.411 -0.3579  0.2689 -0.5388
  642TIP3   OH223416   6.217   2.452   2.262  0.4489  0.1273  0.3694
  642TIP3    H123417   6.232   2.382   2.325 -1.9137  0.4759  1.3856
  642TIP3    H223418   6.193   2.407   2.181 -0.8210 -0.2613  0.9515
  643TIP3   OH223419   6.770   3.098  14.886 -0.2852 -0.3852 -0.1661
  643TIP3    H123420   6.827   3.099  14.809  0.1906  0.4625  0.1855
  643TIP3    H223421   6.736   3.188  14.892  1.1327  0.0844  1.6562
  644TIP3   OH223422   1.699   2.146   1.952 -0.3271 -0.1155  0.3158
  644TIP3    H123423   1.649   2.123   2.031  0.1656 -1.2271  0.3206
  644TIP3    H223424   1.699   2.241   1.950 -0.8728 -0.0880  1.3296
  645TIP3   OH223425   6.060   5.076  12.634 -0.0906 -0.0265  0.6252
  645TIP3    H123426   5.998   5.005  12.650 -0.6892  0.4878  0.6049
  645TIP3    H223427   6.017   5.130  12.567  1.6989 -1.3339 -1.6732
  646TIP3   OH223428   5.150   4.534   4.723 -0.0657  0.7796 -0.4016
  646TIP3    H123429   5.180   4.545   4.813 -0.9028  1.3782 -0.1878
  646TIP3    H223430   5.138   4.623   4.691  1.3263  0.5997 -1.4945
  647TIP3   OH223431   2.865   5.357  14.672  0.7657 -0.4037  0.0464
  647TIP3    H123432   2.953   5.319  14.677  1.0431 -0.1437 -2.2783
  647TIP3    H223433   2.858   5.411  14.750  1.7521 -2.3324  1.5120
  648TIP3   OH223434   4.637   6.014  12.280  0.5686  0.5205  0.0051
  648TIP3    H123435   4.719   5.982  12.319  1.5449  0.8403 -1.7285
  648TIP3    H223436   4.655   6.106  12.258 -0.2433  0.5801 -0.4207
  649TIP3   OH223437   3.575   1.585  15.651 -0.2494 -0.7290  0.7683
  649TIP3    H123438   3.514   1.558  15.719 -1.3972  0.8300  0.3810
  649TIP3    H223439   3.520   1.618  15.580  1.0033 -0.2940 -0.0280
  650TIP3   OH223440   1.292   6.791  16.119 -0.3487  0.4142  0.3312
  650TIP3    H123441   1.275   6.697  16.118  0.4269  0.2700  0.5482
  650TIP3    H223442   1.262   6.821  16.204 -1.6513  0.5661 -0.1667
  651TIP3   OH223443   1.513   6.126   3.545  0.0275  0.6595  0.5651
  651TIP3    H123444   1.599   6.162   3.568  1.1336 -2.1352  0.9944
  651TIP3    H223445   1.532   6.053   3.487 -2.1598  0.8472 -0.4289
  652TIP3   OH223446   3.797   0.208  10.854  0.0261 -0.1218 -0.5894
  652TIP3    H123447   3.830   0.278  10.909 -1.2486 -0.9630  1.3028
  652TIP3    H223448   3.865   0.193  10.789  1.7885  0.5449  1.0816
  653TIP3   OH223449   1.464   2.386  14.067 -0.2394  0.3595 -0.1670
  653TIP3    H123450   1.379   2.405  14.105  0.1586 -0.4936  1.1957
  653TIP3    H223451   1.510   2.470  14.067 -1.1916  0.8914 -1.2373
  654TIP3   OH223452   5.024   0.267  14.695 -0.2353  0.4582  0.0050
  654TIP3    H123453   5.038   0.209  14.621 -0.2290  1.1223 -0.5190
  654TIP3    H223454   5.081   0.233  14.764 -0.0049  0.0287 -0.3979
  655TIP3   OH223455   6.520   1.302  12.945 -0.4304  0.0736  0.1027
  655TIP3    H123456   6.502   1.337  12.858 -1.3162  1.7272  0.9197
  655TIP3    H223457   6.461   1.351  13.003 -2.3828 -3.3881  1.2017
  656TIP3   OH223458   2.116   1.874  16.914 -0.0593 -0.1073  0.0504
  656TIP3    H123459   2.026   1.855  16.940 -0.5206 -0.1149 -1.5197
  656TIP3    H223460   2.123   1.969  16.917 -0.7600  0.0141 -1.8885
  657TIP3   OH223461   2.750   1.251   5.047  0.4576  0.5561  0.0883
  657TIP3    H123462   2.833   1.202   5.048  0.6201  0.7514 -1.9672
  657TIP3    H223463   2.693   1.201   4.989 -1.3081 -0.2008  2.3798
  658TIP3   OH223464   6.704   0.873  15.614 -0.4467 -0.3685 -0.4216
  658TIP3    H123465   6.790   0.846  15.648 -1.6140 -0.7685  2.3229
  658TIP3    H223466   6.714   0.870  15.519  3.1003  1.2203 -0.1775
  659TIP3   OH223467   1.389   2.454   0.322 -0.0910 -0.1751  0.5228
  659TIP3    H123468   1.298   2.430   0.336  0.5472 -2.4462  0.9010
  659TIP3    H223469   1.437   2.372   0.325  2.1045  1.0846  1.2877
  660TIP3   OH223470   5.611   2.870   4.582  0.3636 -0.2504  0.1917
  660TIP3    H123471   5.703   2.896   4.584 -0.7168  4.0461  0.4116
  660TIP3    H223472   5.564   2.951   4.602 -3.5427 -1.9304 -1.7562
  661TIP3   OH223473   5.721   2.732   4.082 -0.8445  0.2327 -0.3491
  661TIP3    H123474   5.634   2.768   4.100  0.6165  4.3431 -0.8321
  661TIP3    H223475   5.717   2.703   3.991 -1.6615  0.5370 -0.4119
  662TIP3   OH223476   0.918   5.373   1.808 -0.2904  0.0996  0.0725
  662TIP3    H123477   0.968   5.311   1.755  0.2772  1.2113 -0.7282
  662TIP3    H223478   0.849   5.404   1.750  1.7080  3.0672 -0.8939
  663TIP3   OH223479   5.285   4.759  16.401 -0.2210  0.0199 -0.2836
  663TIP3    H123480   5.315   4.758  16.310 -1.6536 -0.0976 -0.7707
  663TIP3    H223481   5.284   4.852  16.424 -3.1104  0.3518 -1.5276
  664TIP3   OH223482   1.471   6.473   1.122  0.2802 -0.0598 -0.1804
  664TIP3    H123483   1.402   6.512   1.176  1.6073  2.3040 -0.1277
  664TIP3    H223484   1.432   6.468   1.034 -0.5306 -0.3036  0.1840
  665TIP3   OH223485   2.565   3.643  15.739 -0.0752  0.5754 -0.0505
  665TIP3    H123486   2.621   3.664  15.664  1.3593 -0.5550  0.6742
  665TIP3    H223487   2.480   3.621  15.700  0.2932  1.1974 -1.2448
  666TIP3   OH223488   6.723   4.246   5.612  0.0354  0.4304  0.0172
  666TIP3    H123489   6.691   4.156   5.608 -0.2317  0.5576 -0.8149
  666TIP3    H223490   6.804   4.245   5.561  0.5008  0.4719  0.7469
  667TIP3   OH223491   4.699   6.552   4.310 -0.0832  0.0363  0.3960
  667TIP3    H123492   4.769   6.585   4.366  0.0159 -0.6909  0.7040
  667TIP3    H223493   4.662   6.631   4.270 -0.1914  0.5670  1.5108
  668TIP3   OH223494   4.870   3.990  15.208 -0.4419  0.0576 -0.2965
  668TIP3    H123495   4.791   4.042  15.223 -0.6766 -0.5863  0.7755
  668TIP3    H223496   4.844   3.923  15.145 -0.5222  0.3715 -0.5965
  669TIP3   OH223497   5.808   3.285  17.231 -0.7052 -0.2733 -0.7653
  669TIP3    H123498   5.889   3.291  17.281 -1.0196  2.7417 -0.5188
  669TIP3    H223499   5.796   3.191  17.215  1.0849 -1.0495  2.0365
  670TIP3   OH223500   3.482   5.958  11.666  0.5041  0.7756 -0.0345
  670TIP3    H123501   3.548   5.924  11.605 -0.9042  1.2659 -1.8444
  670TIP3    H223502   3.477   6.051  11.647  1.4235  1.3111  2.1660
  671TIP3   OH223503   5.194   0.418  11.554 -0.8331 -0.7661 -0.4361
  671TIP3    H123504   5.207   0.373  11.471  0.6552 -1.2079  0.0200
  671TIP3    H223505   5.283   0.437  11.585 -1.3123  5.0837 -1.9973
  672TIP3   OH223506   0.636   0.074   0.625  0.3025 -0.2415  0.1736
  672TIP3    H123507   0.546   0.097   0.648  0.4803  0.2570  0.3857
  672TIP3    H223508   0.631   0.045   0.534  0.0305  0.4087 -0.0238
  673TIP3   OH223509   4.389   3.730   1.894 -0.3307  0.5988 -0.3410
  673TIP3    H123510   4.324   3.765   1.834  0.7376 -0.6137 -2.2858
  673TIP3    H223511   4.462   3.792   1.889 -1.1930  1.8197  1.6382
  674TIP3   OH223512   2.617   5.210  13.838 -0.0075 -0.3084  0.1522
  674TIP3    H123513   2.561   5.167  13.902  0.8669 -2.1095 -0.2700
  674TIP3    H223514   2.563   5.213  13.758 -0.0262 -0.7465  0.1457
  675TIP3   OH223515   2.500   3.202  11.151  0.1236 -0.2544  0.4291
  675TIP3    H123516   2.544   3.134  11.101  1.9750  0.2437  1.3447
  675TIP3    H223517   2.483   3.272  11.088  0.7242 -0.4293  0.0692
  676TIP3   OH223518   2.826   1.948   4.157  0.0101 -0.7049 -0.3987
  676TIP3    H123519   2.760   1.915   4.095 -0.5253 -2.7520  1.2169
  676TIP3    H223520   2.785   1.939   4.243  1.3477  0.6502  0.4072
  677TIP3   OH223521   5.827   2.925   2.457  0.3568 -0.0467  0.1139
  677TIP3    H123522   5.855   2.852   2.513  1.0486  0.3345  0.2753
  677TIP3    H223523   5.864   2.904   2.371  0.1723 -0.1178  0.0535
  678TIP3   OH223524   6.343   5.185  15.722  0.1315 -0.5895  0.0554
  678TIP3    H123525   6.370   5.095  15.738  1.9126 -0.3145 -1.1879
  678TIP3    H223526   6.380   5.207  15.636 -0.8418  1.0957  0.0333
  679TIP3   OH223527   6.038   1.888  14.202  0.1646 -0.0116  0.0789
  679TIP3    H123528   6.081   1.964  14.164  0.3170  0.4219  1.1110
  679TIP3    H223529   5.946   1.898  14.178  0.1614  0.5753  0.3443
  680TIP3   OH223530   0.150   6.066  16.542  0.6408  0.4246  0.0476
  680TIP3    H123531   0.156   6.132  16.473  2.5461 -0.7305 -0.9111
  680TIP3    H223532   0.199   6.103  16.615  0.2887  0.7819  0.1069
  681TIP3   OH223533   0.595   1.816   2.743 -0.2017  0.0903  0.4793
  681TIP3    H123534   0.525   1.858   2.692 -0.5507 -1.0641  0.0018
  681TIP3    H223535   0.549   1.768   2.812  0.2168  0.7386  1.2240
  682TIP3   OH223536   6.102   0.397  15.470  0.5718 -0.0808  0.2149
  682TIP3    H123537   6.057   0.315  15.451  0.4726  0.0245 -0.0114
  682TIP3    H223538   6.194   0.378  15.454  0.5682 -0.2006  0.3397
  683TIP3   OH223539   4.068   1.854   4.740 -0.3971 -0.1988  0.7892
  683TIP3    H123540   4.045   1.934   4.691  1.2042  0.2964  0.8280
  683TIP3    H223541   4.029   1.868   4.826 -1.3883 -0.1167  0.3375
  684TIP3   OH223542   6.486   6.574  10.699  0.0258 -0.2287  0.1277
  684TIP3    H123543   6.449   6.588  10.612  0.4653 -1.5993 -0.3048
  684TIP3    H223544   6.439   6.635  10.756 -0.7972  0.1428 -0.9379
  685TIP3   OH223545   0.973   2.912  13.029 -0.0109  0.0653 -0.0651
  685TIP3    H123546   0.937   2.974  12.965  0.1238  1.9364  1.6232
  685TIP3    H223547   1.062   2.895  12.998 -0.6813 -0.7916 -1.5860
  686TIP3   OH223548   0.705   2.729   1.754  0.1336  0.3560  0.2984
  686TIP3    H123549   0.774   2.670   1.724 -0.6718  0.0725 -1.0682
  686TIP3    H223550   0.666   2.686   1.830  0.5969 -0.1075  0.2688
  687TIP3   OH223551   2.267   3.797   1.516 -0.2331  0.2963  0.2271
  687TIP3    H123552   2.202   3.773   1.449 -0.2792  0.1621  0.3186
  687TIP3    H223553   2.219   3.792   1.598 -0.6109  2.0853  0.1238
  688TIP3   OH223554   6.375   4.000   3.885  0.6360  0.6012  0.6861
  688TIP3    H123555   6.419   4.056   3.949  2.0420  2.3375 -1.7154
  688TIP3    H223556   6.445   3.949   3.845 -0.4390 -1.7034  1.6213
  689TIP3   OH223557   2.174   1.272   5.056  0.0447  0.6338 -0.1985
  689TIP3    H123558   2.093   1.224   5.073  0.0062  0.4700 -0.8448
  689TIP3    H223559   2.243   1.216   5.092 -0.2953  1.8623  2.5583
  690TIP3   OH223560   5.540   5.437   2.670 -0.5594  0.6857  0.5018
  690TIP3    H123561   5.612   5.486   2.631 -0.3237 -1.0482 -1.3544
  690TIP3    H223562   5.566   5.426   2.762  1.0326  1.0485  0.1217
  691TIP3   OH223563   2.800   2.751  13.434 -0.3995 -0.0792  0.2264
  691TIP3    H123564   2.867   2.805  13.477  1.9545 -3.0849  0.5246
  691TIP3    H223565   2.790   2.676  13.492 -3.7607  0.0883 -0.0718
  692TIP3   OH223566   2.353   2.791  15.302  0.0618 -0.3302  0.8193
  692TIP3    H123567   2.299   2.713  15.296  0.0258 -0.2181 -0.4153
  692TIP3    H223568   2.398   2.796  15.217 -0.1697  1.1458  0.7666
  693TIP3   OH223569   3.376   1.985   5.852 -0.0395  0.0453  0.3372
  693TIP3    H123570   3.386   1.924   5.779 -0.2410 -0.0764  0.4125
  693TIP3    H223571   3.466   2.001   5.881  0.3303  2.5629 -1.9761
  694TIP3   OH223572   3.067   4.149  16.027 -0.2449 -0.0114  0.1852
  694TIP3    H123573   3.012   4.095  15.970 -0.6348 -0.0096  0.5667
  694TIP3    H223574   3.156   4.119  16.009 -0.2229  1.0109 -1.5504
  695TIP3   OH223575   0.547   1.524  15.743 -0.3203 -0.0145  0.5441
  695TIP3    H123576   0.509   1.544  15.829 -0.9391  0.4796  0.1672
  695TIP3    H223577   0.578   1.609  15.711 -3.1494  0.4476 -1.1676
  696TIP3   OH223578   5.456   5.985  17.194  0.4754 -0.1330  0.2547
  696TIP3    H123579   5.402   6.024  17.262  2.0004 -0.3460  1.6132
  696TIP3    H223580   5.466   6.054  17.129 -0.1100  0.4226  0.7474
  697TIP3   OH223581   2.922   6.401   2.931  0.2255 -0.0396  0.0454
  697TIP3    H123582   2.896   6.492   2.940  1.5521  0.2249  1.3334
  697TIP3    H223583   2.995   6.390   2.992 -1.3215 -2.5249  1.5930
  698TIP3   OH223584   0.737   4.941  14.054 -0.2011  0.3773  0.1552
  698TIP3    H123585   0.800   4.946  13.982 -0.5089  1.9472 -0.0053
  698TIP3    H223586   0.676   4.871  14.027 -0.3051  0.9408 -1.1018
  699TIP3   OH223587   4.443   5.572   3.337 -0.7528 -0.3163  0.6787
  699TIP3    H123588   4.488   5.517   3.273 -1.3352 -0.4256  0.3645
  699TIP3    H223589   4.375   5.617   3.287 -1.5422 -0.7884  1.3186
  700TIP3   OH223590   5.114   0.305   2.756  0.0327 -0.4085  1.0144
  700TIP3    H123591   5.021   0.284   2.741 -0.0194 -0.0869  0.8636
  700TIP3    H223592   5.134   0.371   2.689  0.1385  0.1540  1.5965
  701TIP3   OH223593   4.908   2.871   0.228 -0.1704 -0.4409  0.0362
  701TIP3    H123594   4.969   2.815   0.276 -0.1075 -0.6551 -0.2867
  701TIP3    H223595   4.861   2.920   0.296  1.2277  0.6489  0.2416
  702TIP3   OH223596   0.823   1.654  11.429  0.3828  0.2856  0.1050
  702TIP3    H123597   0.780   1.692  11.505 -0.0643  0.6421 -0.3205
  702TIP3    H223598   0.796   1.710  11.356 -1.3862 -1.6327 -0.7532
  703TIP3   OH223599   1.113   1.851   5.332  0.0221 -0.0883 -0.1975
  703TIP3    H123600   1.025   1.848   5.370  0.3974 -3.8293  0.6119
  703TIP3    H223601   1.169   1.882   5.403 -0.2003 -0.8625  0.3252
  704TIP3   OH223602   2.310   5.816   4.807  0.1091 -0.3986 -0.1888
  704TIP3    H123603   2.215   5.826   4.807  0.1190 -0.2993  0.0931
  704TIP3    H223604   2.325   5.726   4.777  0.0455  0.5799 -3.3407
  705TIP3   OH223605   6.575   3.855  16.960  0.2447  0.2912  0.1736
  705TIP3    H123606   6.655   3.816  16.995 -0.9259 -2.7060 -0.3743
  705TIP3    H223607   6.506   3.826  17.021 -0.7943  0.6607 -0.8161
  706TIP3   OH223608   4.816   5.723   0.517 -0.0992  0.8144  0.2044
  706TIP3    H123609   4.862   5.692   0.594 -0.1773  1.2913  0.4472
  706TIP3    H223610   4.857   5.676   0.444 -0.7723 -0.4591  0.6399
  707TIP3   OH223611   4.130   1.201  13.654 -0.2597  0.5032  0.2281
  707TIP3    H123612   4.118   1.110  13.682 -3.3294  0.7996  0.0918
  707TIP3    H223613   4.108   1.201  13.561  0.7618  1.2078 -0.0242
  708TIP3   OH223614   4.157   5.945  15.541 -0.8278 -0.3565  0.0995
  708TIP3    H123615   4.234   5.921  15.490 -0.3365 -0.0843  0.7097
  708TIP3    H223616   4.086   5.894  15.502 -1.1973  2.4725 -3.1502
  709TIP3   OH223617   6.624   4.698  14.662 -0.2802  0.1349  0.3470
  709TIP3    H123618   6.606   4.792  14.666  0.1550  0.2380 -0.0804
  709TIP3    H223619   6.643   4.674  14.753 -0.9485  0.3466  0.5453
  710TIP3   OH223620   2.968   5.616   0.498 -0.3173 -0.3961 -0.0838
  710TIP3    H123621   2.946   5.543   0.440  0.3764 -2.1267  1.7857
  710TIP3    H223622   2.908   5.607   0.572 -0.9062  1.5541 -0.2839
  711TIP3   OH223623   5.420   3.551   6.874 -0.2697  0.6819  0.4139
  711TIP3    H123624   5.447   3.564   6.783 -0.4102 -0.1478  0.2495
  711TIP3    H223625   5.332   3.588   6.878 -0.3061  0.6241  0.1849
  712TIP3   OH223626   0.716   6.085   4.267  0.2897  0.1220  0.2003
  712TIP3    H123627   0.802   6.124   4.276 -0.2409  1.5771 -0.9619
  712TIP3    H223628   0.663   6.128   4.334 -0.0617  0.7509 -0.4764
  713TIP3   OH223629   0.526   1.050  15.539 -0.7227 -0.2208 -0.1416
  713TIP3    H123630   0.497   0.979  15.483 -0.2666  0.1132 -0.8112
  713TIP3    H223631   0.504   1.022  15.628 -2.4398 -0.2860 -0.5605
  714TIP3   OH223632   4.611   2.717   6.455 -0.0648 -0.9353 -0.6710
  714TIP3    H123633   4.596   2.809   6.476  1.6372 -0.6484 -0.6356
  714TIP3    H223634   4.554   2.669   6.515 -1.3254  0.1020 -1.0231
  715TIP3   OH223635   4.162   0.604  16.845  0.6107  0.3036  0.2691
  715TIP3    H123636   4.086   0.549  16.858  1.5378 -0.6935  1.6308
  715TIP3    H223637   4.195   0.580  16.759 -1.4017  1.7439 -0.9311
  716TIP3   OH223638   1.302   1.034   0.382 -0.3022  0.1813  0.2027
  716TIP3    H123639   1.389   1.009   0.351 -0.1240  0.6302  0.3385
  716TIP3    H223640   1.285   1.118   0.341 -2.2278 -1.5554 -2.7547
  717TIP3   OH223641   5.383   4.819   5.751  0.0637 -0.3169  0.3500
  717TIP3    H123642   5.422   4.744   5.794 -1.6826 -0.6055  1.5000
  717TIP3    H223643   5.302   4.785   5.712 -0.2496  0.7597  0.0365
  718TIP3   OH223644   1.452   6.009   3.803  0.3155  0.3724  0.3501
  718TIP3    H123645   1.444   6.033   3.711  0.5208  0.6327  0.4031
  718TIP3    H223646   1.484   5.919   3.801  0.7275  0.5204  0.1702
  719TIP3   OH223647   5.107   4.143  12.593  0.0443 -0.1679 -0.3787
  719TIP3    H123648   5.048   4.123  12.521  0.2015 -1.6189 -0.1236
  719TIP3    H223649   5.085   4.079  12.661  0.6305  0.4831  0.4463
  720TIP3   OH223650   3.511   1.093   5.107  0.0969 -0.0954  0.5861
  720TIP3    H123651   3.584   1.155   5.100 -1.0866  1.0057 -3.1831
  720TIP3    H223652   3.455   1.131   5.175  0.7002  1.5920  0.1882
  721TIP3   OH223653   0.559   6.691   5.343 -0.2213  0.5875 -0.1492
  721TIP3    H123654   0.530   6.782   5.337  0.3504  0.6957 -1.3174
  721TIP3    H223655   0.497   6.642   5.289 -1.9289 -0.0781  2.3043
  722TIP3   OH223656   0.724   3.491   4.165  0.0308  0.6459 -0.0418
  722TIP3    H123657   0.751   3.583   4.159  2.5454  0.0329  1.2178
  722TIP3    H223658   0.632   3.495   4.191 -0.1425  2.8004 -0.8520
  723TIP3   OH223659   2.530   1.052  16.387  0.1410 -0.4284  0.0252
  723TIP3    H123660   2.620   1.084  16.389 -0.1154  0.4241 -1.4876
  723TIP3    H223661   2.517   1.013  16.473  1.0642  1.8924  1.2451
  724TIP3   OH223662   1.550   0.170   4.998 -0.2191 -0.0653 -0.3808
  724TIP3    H123663   1.592   0.248   5.033 -2.0267  1.2092 -0.9780
  724TIP3    H223664   1.467   0.164   5.046 -0.3251 -1.3309 -0.7060
  725TIP3   OH223665   3.043   2.197  12.427  1.2042  0.3759 -0.1509
  725TIP3    H123666   3.006   2.113  12.452 -1.1516  1.6838  0.9701
  725TIP3    H223667   3.130   2.199  12.468  0.4537 -0.6599  1.5233
  726TIP3   OH223668   5.437   0.064   1.976  0.3387 -0.0238  0.8580
  726TIP3    H123669   5.494   0.043   1.903 -2.3263 -0.4575 -1.1808
  726TIP3    H223670   5.400   0.150   1.955 -0.3226 -0.0635  1.7910
  727TIP3   OH223671   0.892   2.394   2.029 -0.0958  0.0594  0.0814
  727TIP3    H123672   0.933   2.409   2.114  0.8884 -1.3238 -0.1403
  727TIP3    H223673   0.853   2.479   2.006  0.8609  0.8277  1.2386
  728TIP3   OH223674   3.887   2.765   3.909 -0.0963  0.2414 -0.0998
  728TIP3    H123675   3.884   2.860   3.907  1.2378  0.2695 -0.9723
  728TIP3    H223676   3.971   2.742   3.870 -0.1732 -1.2783  0.5783
  729TIP3   OH223677   2.194   0.315  16.428 -0.3250 -0.6110  0.0610
  729TIP3    H123678   2.144   0.352  16.355 -0.1592  0.5327  0.5314
  729TIP3    H223679   2.253   0.252  16.386 -1.1758 -0.9652 -0.6477
  730TIP3   OH223680   1.760   2.406   1.383  0.4451  0.4022  0.1144
  730TIP3    H123681   1.690   2.343   1.369  1.9325 -1.2167 -0.3238
  730TIP3    H223682   1.823   2.360   1.438  1.6782  1.4037 -0.4206
  731TIP3   OH223683   3.804   0.346  14.041  0.3420  0.2281  0.2765
  731TIP3    H123684   3.830   0.395  13.962  2.5159 -0.1670  0.7216
  731TIP3    H223685   3.883   0.300  14.068 -0.2539  0.7362  2.9973
  732TIP3   OH223686   3.461   3.631   2.434 -0.2086 -0.1085 -0.2578
  732TIP3    H123687   3.392   3.567   2.451  0.7356 -0.3844  2.8348
  732TIP3    H223688   3.429   3.712   2.473 -1.1852  1.2629 -3.7324
  733TIP3   OH223689   2.826   2.878   2.819 -0.7375  0.4327 -0.0842
  733TIP3    H123690   2.769   2.816   2.864 -0.9941 -0.2367 -1.2848
  733TIP3    H223691   2.915   2.855   2.847 -0.9464  0.5064  0.6361
  734TIP3   OH223692   1.126   1.381  10.621 -0.4366 -0.2577 -0.3563
  734TIP3    H123693   1.108   1.323  10.547  0.5099  0.1835 -0.9367
  734TIP3    H223694   1.079   1.341  10.694 -1.6621 -0.5095 -1.2642
  735TIP3   OH223695   0.999   0.462   3.171 -0.1305 -0.3085  0.0420
  735TIP3    H123696   1.073   0.406   3.148 -0.0574 -0.6830  1.1261
  735TIP3    H223697   1.014   0.484   3.263 -0.0673  1.6540 -0.4285
  736TIP3   OH223698   1.483   5.501  11.688 -0.3087 -0.2065  0.3378
  736TIP3    H123699   1.432   5.462  11.759 -1.5094 -0.5334 -0.6906
  736TIP3    H223700   1.426   5.569  11.652  0.8931  1.0091  0.6606
  737TIP3   OH223701   5.255   2.575   4.214 -0.0200  0.7526 -0.3382
  737TIP3    H123702   5.171   2.543   4.248  0.8196  1.1477  2.2360
  737TIP3    H223703   5.299   2.497   4.183 -0.7803  0.3495 -0.4191
  738TIP3   OH223704   5.486   4.776   0.494  0.1741 -0.4402 -0.2801
  738TIP3    H123705   5.529   4.695   0.520  0.4298 -0.2497 -0.0994
  738TIP3    H223706   5.530   4.800   0.411  1.7862  0.7727  0.8836
  739TIP3   OH223707   5.499   4.003  10.960 -0.0583  0.3325 -0.0836
  739TIP3    H123708   5.415   3.963  10.937  0.6051 -0.5017 -1.0760
  739TIP3    H223709   5.564   3.939  10.932  0.8762  0.2879  2.0718
  740TIP3   OH223710   1.946   4.341  16.942 -0.1067 -0.2356 -0.3869
  740TIP3    H123711   1.888   4.328  16.868  0.4476  1.7085 -1.1920
  740TIP3    H223712   2.018   4.279  16.927 -0.0130  0.1219 -1.4691
  741TIP3   OH223713   4.722   2.073  11.979  0.1742 -0.1276 -0.3427
  741TIP3    H123714   4.690   2.012  11.912  0.5954  1.9421 -2.5131
  741TIP3    H223715   4.713   2.160  11.939  2.9495  0.9704  1.2346
  742TIP3   OH223716   5.205   1.917   1.352 -0.8391  0.5177 -0.3917
  742TIP3    H123717   5.167   1.832   1.377 -1.8674 -0.0248 -3.6291
  742TIP3    H223718   5.207   1.915   1.256 -0.8784  4.1800 -0.5102
  743TIP3   OH223719   5.748   4.044  17.129  0.2313 -0.1246 -0.0175
  743TIP3    H123720   5.676   3.980  17.130  0.7328 -0.6896 -0.1637
  743TIP3    H223721   5.822   3.998  17.167  0.3393  0.6841  0.7689
  744TIP3   OH223722   4.760   4.642   3.498  0.0497 -0.2687  0.2196
  744TIP3    H123723   4.741   4.585   3.573 -2.6828 -0.1847 -0.3430
  744TIP3    H223724   4.723   4.726   3.522 -0.2727 -0.0666 -0.9560
  745TIP3   OH223725   3.195   6.275   5.591 -0.3409  0.0350 -0.0073
  745TIP3    H123726   3.167   6.326   5.667  0.0800  0.7958 -0.3516
  745TIP3    H223727   3.229   6.340   5.530 -0.3768 -0.6031 -0.7158
  746TIP3   OH223728   5.422   1.617   4.183 -0.2142  0.0586  0.5048
  746TIP3    H123729   5.469   1.695   4.154  0.7200 -0.9946 -0.8651
  746TIP3    H223730   5.344   1.614   4.128  0.7777 -1.0782 -0.8828
  747TIP3   OH223731   4.708   0.911   2.229 -0.0972 -0.5027 -0.2439
  747TIP3    H123732   4.628   0.927   2.179 -0.3673 -0.3563  0.2264
  747TIP3    H223733   4.722   0.993   2.277  0.6895 -0.3022 -0.8141
  748TIP3   OH223734   5.435   3.509   1.542  0.1715 -0.1318 -0.4906
  748TIP3    H123735   5.518   3.493   1.497  0.7660 -0.1213  0.5835
  748TIP3    H223736   5.446   3.595   1.583 -1.1225  0.7881 -2.0009
  749TIP3   OH223737   3.558   5.467   0.995 -0.2509 -0.4688 -0.1982
  749TIP3    H123738   3.549   5.525   1.071 -1.9765  0.3810 -1.0224
  749TIP3    H223739   3.521   5.516   0.922  1.4613 -1.2578 -1.6278
  750TIP3   OH223740   5.532   0.389  12.507 -0.2659 -0.0604  0.3593
  750TIP3    H123741   5.576   0.472  12.522 -0.7580  0.1637  0.5834
  750TIP3    H223742   5.572   0.354  12.428  2.9638 -1.6336  2.5815
  751TIP3   OH223743   3.021   1.646   2.283  0.3126  0.0284  0.5139
  751TIP3    H123744   2.938   1.660   2.329 -0.3205  0.6102 -0.7801
  751TIP3    H223745   3.083   1.706   2.325  0.5322 -1.6493  2.6302
  752TIP3   OH223746   0.620   5.362  11.234  0.4250 -0.0369  0.5650
  752TIP3    H123747   0.586   5.450  11.249 -0.4299 -0.5052  1.4197
  752TIP3    H223748   0.616   5.351  11.139  0.6323  0.8868  0.4484
  753TIP3   OH223749   5.134   5.068   0.211 -0.2639  0.1857  0.1171
  753TIP3    H123750   5.168   5.011   0.280  3.6782  0.0252 -1.8062
  753TIP3    H223751   5.163   5.027   0.130 -0.6320  2.9211 -1.4586
  754TIP3   OH223752   3.417   3.611   0.930 -0.2619  0.5085  0.0457
  754TIP3    H123753   3.352   3.675   0.903 -3.1047 -1.1690  2.5743
  754TIP3    H223754   3.427   3.624   1.024  1.0828 -0.9861  0.1409
  755TIP3   OH223755   3.033   6.146   0.817  0.0633 -0.5551  0.4980
  755TIP3    H123756   3.128   6.143   0.827  0.1635 -1.9657 -0.8347
  755TIP3    H223757   3.018   6.202   0.741 -0.1867 -0.2008  0.8032
  756TIP3   OH223758   5.870   6.035   3.197 -0.3053 -0.1764  0.0802
  756TIP3    H123759   5.819   5.961   3.230  0.1833 -0.3433  0.4655
  756TIP3    H223760   5.807   6.088   3.148 -0.8500 -0.3858  0.5504
  757TIP3   OH223761   0.493   6.017  14.063 -0.7672 -0.5465 -0.0234
  757TIP3    H123762   0.400   6.035  14.081 -0.3761  0.7259  0.8266
  757TIP3    H223763   0.516   6.078  13.993 -0.5309 -0.7684 -0.1420
  758TIP3   OH223764   1.352   0.781  12.012 -0.4655  0.4917 -0.3439
  758TIP3    H123765   1.338   0.753  12.102 -2.4636  0.1731 -0.7247
  758TIP3    H223766   1.428   0.839  12.016  0.8836 -1.3537  1.1691
  759TIP3   OH223767   6.465   6.491  14.015 -0.0996  0.2571  0.2391
  759TIP3    H123768   6.478   6.566  14.074 -1.0095  0.0785  0.6649
  759TIP3    H223769   6.427   6.529  13.936 -1.0827  0.1762  0.6650
  760TIP3   OH223770   4.000   6.818   1.064 -0.1183  0.1753  0.5432
  760TIP3    H123771   3.973   6.832   0.973  0.8314  1.0238  0.3827
  760TIP3    H223772   3.972   6.898   1.110  4.0317  2.1126 -0.0756
  761TIP3   OH223773   1.238   3.837  14.994  0.4223  0.0170  0.0208
  761TIP3    H123774   1.200   3.920  15.024  2.7056  0.5207  1.6274
  761TIP3    H223775   1.305   3.863  14.932  1.5717 -0.5785  0.9968
  762TIP3   OH223776   3.696   5.166   4.897 -0.4143 -0.3562 -0.3947
  762TIP3    H123777   3.647   5.118   4.963 -0.1279 -3.1307 -2.1590
  762TIP3    H223778   3.785   5.132   4.903  0.2021  1.1626 -0.5441
  763TIP3   OH223779   2.640   5.663  14.597 -0.0768 -0.0428  0.1353
  763TIP3    H123780   2.611   5.712  14.674  1.7261 -0.9751  1.4487
  763TIP3    H223781   2.734   5.680  14.591 -0.2110  0.1211 -1.9554
  764TIP3   OH223782   4.082   2.837   1.932 -0.0927  0.2108  0.3054
  764TIP3    H123783   4.100   2.907   1.870  1.9628 -0.0868  0.5149
  764TIP3    H223784   4.009   2.789   1.894  0.2098  0.8890 -1.1704
  765TIP3   OH223785   5.595   5.080  16.770 -0.2336  0.0930 -0.2735
  765TIP3    H123786   5.549   5.105  16.850 -2.0935  1.3521 -1.6906
  765TIP3    H223787   5.536   5.018  16.727  0.8390 -0.7321 -0.5900
  766TIP3   OH223788   0.625   0.393  16.037 -0.2687  0.0361  0.1177
  766TIP3    H123789   0.591   0.312  16.001 -3.5168  1.5563 -0.4199
  766TIP3    H223790   0.586   0.399  16.124  1.5447  0.0839  0.9572
  767TIP3   OH223791   6.275   3.445  14.532  0.4239  0.0950 -0.0869
  767TIP3    H123792   6.237   3.522  14.574  1.0794  0.4593 -0.1474
  767TIP3    H223793   6.202   3.384  14.522 -0.0790  0.6685  0.0589
  768TIP3   OH223794   6.314   2.137  13.397 -0.1044  0.4795 -0.0195
  768TIP3    H123795   6.311   2.181  13.313 -0.8299  2.8491  1.2121
  768TIP3    H223796   6.231   2.090  13.402  0.5392 -0.8196 -1.2024
  769TIP3   OH223797   5.217   0.119  14.125 -0.3061 -0.3956  0.5262
  769TIP3    H123798   5.153   0.109  14.055  0.5175  1.5040 -0.5211
  769TIP3    H223799   5.197   0.204  14.165  1.9009  0.4831 -0.1921
  770TIP3   OH223800   5.837   0.340  15.149  0.3225  0.0350  0.0958
  770TIP3    H123801   5.893   0.298  15.084 -0.5562  0.9228 -1.2577
  770TIP3    H223802   5.879   0.425  15.166  1.0529 -0.5575  1.4109
  771TIP3   OH223803   0.246   1.228  14.590  0.0723 -0.1416 -0.0507
  771TIP3    H123804   0.226   1.170  14.664 -1.3253  1.9920  1.3051
  771TIP3    H223805   0.264   1.313  14.631  0.9415  0.6786 -2.0820
  772TIP3   OH223806   3.049   0.600  11.658 -0.1519  0.2082  0.8463
  772TIP3    H123807   3.145   0.603  11.662 -0.1441 -0.2580  1.0265
  772TIP3    H223808   3.029   0.509  11.636 -0.5417  0.3852  0.4515
  773TIP3   OH223809   3.607   0.084  14.597 -0.0000  0.4148 -0.2910
  773TIP3    H123810   3.546   0.064  14.527 -0.2701 -0.3131  0.1470
  773TIP3    H223811   3.567   0.158  14.643  0.3766  1.1564 -1.1394
  774TIP3   OH223812   2.630   3.121  15.439  0.1093  0.1178  0.4574
  774TIP3    H123813   2.543   3.152  15.414 -0.4552 -0.4181  1.7326
  774TIP3    H223814   2.680   3.200  15.459 -0.2400  0.3889  0.2578
  775TIP3   OH223815   0.719   1.834  11.228 -0.6737  0.1707 -0.1505
  775TIP3    H123816   0.682   1.810  11.143 -1.9437 -1.4763  0.8367
  775TIP3    H223817   0.813   1.819  11.218 -0.4253  2.8277 -2.1766
  776TIP3   OH223818   4.823   0.195  15.620  0.3864 -0.2092 -0.5866
  776TIP3    H123819   4.777   0.124  15.664  0.2297 -0.2506 -0.8176
  776TIP3    H223820   4.861   0.247  15.691  2.1308 -1.6020 -0.4752
  777TIP3   OH223821   3.226   4.640   1.539  0.1941  0.4326  0.2559
  777TIP3    H123822   3.218   4.572   1.606 -0.6559  0.2416 -0.0351
  777TIP3    H223823   3.320   4.657   1.534  0.1815  1.2022  2.2466
  778TIP3   OH223824   6.125   0.530   4.486 -0.0016 -0.5349 -0.5371
  778TIP3    H123825   6.118   0.500   4.396 -1.7196 -0.9711 -0.2756
  778TIP3    H223826   6.046   0.582   4.501  0.2893 -0.4183  0.7011
  779TIP3   OH223827   3.217   6.198   6.194 -0.0598  0.8131 -0.0676
  779TIP3    H123828   3.128   6.165   6.187  0.0977  0.2522  0.6401
  779TIP3    H223829   3.251   6.161   6.275  0.2729  2.3189  0.5087
  780TIP3   OH223830   5.763   0.423   0.456 -0.0936  0.5431  0.4691
  780TIP3    H123831   5.735   0.345   0.408  0.6981  1.0322 -0.7804
  780TIP3    H223832   5.786   0.390   0.543  3.0405 -1.1072 -0.9061
  781TIP3   OH223833   5.851   4.256  12.518 -0.5249 -0.0231  0.4853
  781TIP3    H123834   5.925   4.196  12.517 -0.5846 -0.1129  1.1877
  781TIP3    H223835   5.790   4.217  12.581 -0.9645  0.2929  0.2559
  782TIP3   OH223836   2.592   5.091  12.550  0.4070 -0.5401 -0.0349
  782TIP3    H123837   2.642   5.019  12.512  1.2191 -0.5693  1.0588
  782TIP3    H223838   2.580   5.152  12.478 -0.0565 -1.6398 -0.9067
  783TIP3   OH223839   2.647   0.700   3.388 -0.3418 -0.1089 -0.0218
  783TIP3    H123840   2.601   0.767   3.438  0.0015  0.6833 -0.7593
  783TIP3    H223841   2.611   0.708   3.300  0.3263 -0.3101 -0.3113
  784TIP3   OH223842   0.148   0.741  13.716  0.2515  0.0822 -0.0712
  784TIP3    H123843   0.066   0.724  13.761 -0.7232  0.8273 -1.5123
  784TIP3    H223844   0.195   0.802  13.773 -0.5363  0.2587  0.3889
  785TIP3   OH223845   1.633   4.022  16.927 -0.2825 -0.0745 -0.0425
  785TIP3    H123846   1.608   4.114  16.917 -0.8241 -0.3332 -1.1090
  785TIP3    H223847   1.714   4.025  16.978 -0.5242  0.9718  0.2893
  786TIP3   OH223848   2.587   3.002  13.319  0.5698  0.5806 -0.3904
  786TIP3    H123849   2.636   3.029  13.397  2.3514  0.0395 -1.3103
  786TIP3    H223850   2.640   3.031  13.245 -0.7599  0.4423 -1.4268
  787TIP3   OH223851   0.734   2.380  16.188  0.0331  0.3131 -0.7316
  787TIP3    H123852   0.716   2.369  16.094 -0.1053  0.3001 -0.7036
  787TIP3    H223853   0.680   2.315  16.231 -0.0295  0.4318 -0.6292
  788TIP3   OH223854   4.195   1.705   0.165  0.4562 -0.1030 -0.1588
  788TIP3    H123855   4.126   1.652   0.126 -0.2440  0.0618  0.8477
  788TIP3    H223856   4.269   1.697   0.104 -0.6198  0.1635 -1.5176
  789TIP3   OH223857   0.119   1.720  12.531 -0.8330 -0.5613 -0.4431
  789TIP3    H123858   0.179   1.664  12.483 -0.3195  0.0497 -0.5258
  789TIP3    H223859   0.162   1.737  12.615 -2.0619 -2.2359  0.5573
  790TIP3   OH223860   4.168   2.734   1.273 -0.2767  0.6862  0.5747
  790TIP3    H123861   4.088   2.684   1.287  0.2568 -0.1743  0.5770
  790TIP3    H223862   4.239   2.671   1.285  0.4061  1.4291  0.5372
  791TIP3   OH223863   1.828   1.863  13.287 -0.1954  0.0544  1.1284
  791TIP3    H123864   1.794   1.777  13.263  2.3338 -0.5700 -0.4288
  791TIP3    H223865   1.922   1.850  13.298  0.0791  2.4052  1.9709
  792TIP3   OH223866   2.481   3.893   4.417 -0.4530 -0.3973  0.7327
  792TIP3    H123867   2.517   3.977   4.446  0.5381 -0.3397 -0.5909
  792TIP3    H223868   2.481   3.899   4.321 -2.3809 -1.0949  0.6643
  793TIP3   OH223869   5.491   3.119  17.267 -0.1559  0.5701 -0.4470
  793TIP3    H123870   5.575   3.084  17.237 -0.3885  0.7917 -1.3654
  793TIP3    H223871   5.510   3.209  17.294 -0.3096  0.9797 -1.6842
  794TIP3   OH223872   1.045   6.125   4.610 -0.6235  0.4953 -0.3066
  794TIP3    H123873   1.016   6.116   4.519 -0.9011 -0.0489 -0.1685
  794TIP3    H223874   0.968   6.160   4.656 -0.6610  0.2533 -0.1815
  795TIP3   OH223875   3.122   6.104  10.711 -0.1634 -0.2522  0.5012
  795TIP3    H123876   3.052   6.146  10.759 -1.2953 -0.3734 -0.9835
  795TIP3    H223877   3.077   6.049  10.646  1.2608  1.2979 -1.9028
  796TIP3   OH223878   5.158   2.826   6.808  0.3955 -0.0061 -0.1145
  796TIP3    H123879   5.197   2.869   6.883  0.9659  1.4469 -1.2090
  796TIP3    H223880   5.229   2.818   6.745 -0.3239 -0.1740 -0.9226
  797TIP3   OH223881   1.242   3.310   3.394  0.1102  0.1442 -0.1968
  797TIP3    H123882   1.193   3.385   3.427 -0.7998 -0.3146 -0.4766
  797TIP3    H223883   1.333   3.340   3.388 -0.1760  1.0693  0.1274
  798TIP3   OH223884   5.890   6.055   4.658  0.2462  0.3264  0.4277
  798TIP3    H123885   5.924   6.031   4.572 -0.4085 -0.3469  0.3512
  798TIP3    H223886   5.876   6.149   4.653 -3.5417 -0.2571 -1.5522
  799TIP3   OH223887   1.671   5.963   4.765 -1.0306 -0.0990 -0.1175
  799TIP3    H123888   1.623   5.883   4.785 -1.4333  0.0363 -0.5583
  799TIP3    H223889   1.606   6.033   4.774 -0.6228  0.2060  0.5094
  800TIP3   OH223890   2.967   1.165   0.811  0.2102 -0.0711  0.9678
  800TIP3    H123891   2.909   1.139   0.739 -0.1498  0.8029  0.9382
  800TIP3    H223892   3.013   1.084   0.835  0.4761 -0.3223 -0.3682
  801TIP3   OH223893   1.830   5.601   4.720 -0.0671  0.7794 -0.1893
  801TIP3    H123894   1.807   5.547   4.645 -1.7665 -0.2411  1.0259
  801TIP3    H223895   1.914   5.640   4.697  0.0811 -0.5792 -2.0499
  802TIP3   OH223896   1.617   2.362  13.396  0.0818 -0.0579 -0.2878
  802TIP3    H123897   1.593   2.270  13.385  0.7841 -0.3418  0.5062
  802TIP3    H223898   1.610   2.378  13.490  0.8691  0.4372 -0.3076
  803TIP3   OH223899   1.884   3.199   3.874 -0.4272  0.0904 -0.1117
  803TIP3    H123900   1.802   3.226   3.833  0.3270  1.2577 -0.8813
  803TIP3    H223901   1.908   3.118   3.830 -0.1848  0.7654 -1.2334
  804TIP3   OH223902   6.050   3.675   3.680  0.8414 -0.1288 -0.8368
  804TIP3    H123903   6.130   3.707   3.721  0.3700  0.0937 -0.0644
  804TIP3    H223904   5.981   3.699   3.742  0.3089 -1.3292 -0.9398
  805TIP3   OH223905   1.875   0.103  15.448 -0.0438 -0.3060 -0.2616
  805TIP3    H123906   1.830   0.181  15.482 -1.5392 -1.0729 -0.4464
  805TIP3    H223907   1.929   0.073  15.521 -2.2869 -1.2301  1.0565
  806TIP3   OH223908   5.272   5.343  14.964  0.3804  0.0627 -0.4457
  806TIP3    H123909   5.283   5.359  14.870  0.6046  0.3685 -0.3681
  806TIP3    H223910   5.188   5.382  14.985  0.4809  0.2805 -0.4517
  807TIP3   OH223911   5.351   6.604  12.431 -0.1176  0.3393 -0.5764
  807TIP3    H123912   5.265   6.623  12.468 -0.4984  0.8905 -1.7337
  807TIP3    H223913   5.409   6.599  12.507 -0.8795  1.4892  0.0862
  808TIP3   OH223914   4.516   0.116   3.711 -0.1575 -0.0314  0.0198
  808TIP3    H123915   4.446   0.162   3.757  0.8150 -0.4777  1.9931
  808TIP3    H223916   4.590   0.177   3.711  0.0240 -0.2462 -0.4829
  809TIP3   OH223917   5.150   0.261  16.766 -0.2175  0.0138  0.2184
  809TIP3    H123918   5.212   0.191  16.745 -0.9431 -0.3788 -0.7048
  809TIP3    H223919   5.191   0.341  16.733 -0.0077 -0.1876 -0.0147
  810TIP3   OH223920   4.696   1.436  15.812  0.2462 -0.2576  0.2205
  810TIP3    H123921   4.660   1.444  15.901  1.5494 -2.1441  0.9557
  810TIP3    H223922   4.622   1.456  15.754 -0.3735  1.9819  1.7104
  811TIP3   OH223923   1.794   5.868  13.865  0.6596  0.9597 -0.1675
  811TIP3    H123924   1.715   5.893  13.818  0.4670  2.0715  0.7228
  811TIP3    H223925   1.864   5.880  13.800  0.4107  2.6002 -0.1632
  812TIP3   OH223926   4.827   0.028  15.034 -0.5151  0.2644  0.1105
  812TIP3    H123927   4.906   0.027  14.979 -1.1091 -1.6191 -0.7723
  812TIP3    H223928   4.808   0.121  15.048  0.3780  0.7809 -1.8642
  813TIP3   OH223929   2.464   4.124   4.615  0.4129 -0.3092 -0.1031
  813TIP3    H123930   2.543   4.126   4.561  0.4415  1.9705 -0.0379
  813TIP3    H223931   2.482   4.187   4.685 -2.2560  1.8147 -1.2515
  814TIP3   OH223932   4.451   1.313   2.544  0.3049 -0.0122 -0.0628
  814TIP3    H123933   4.364   1.329   2.505  1.0632  0.8792 -1.4578
  814TIP3    H223934   4.465   1.219   2.534  0.1231  0.0723 -1.2226
  815TIP3   OH223935   4.300   0.209  15.829  0.0463 -0.0636 -0.0939
  815TIP3    H123936   4.231   0.276  15.827  1.7161  1.6986 -0.2997
  815TIP3    H223937   4.379   0.255  15.801  1.1548 -2.2495 -0.6653
  816TIP3   OH223938   4.753   6.033   2.852  0.1196 -0.9790  0.4639
  816TIP3    H123939   4.824   6.097   2.841  1.4574 -2.7023 -1.1428
  816TIP3    H223940   4.676   6.076   2.815  0.2626  0.9368  2.2791
  817TIP3   OH223941   2.351   5.667  14.839 -0.0089  0.0538  0.5405
  817TIP3    H123942   2.384   5.745  14.796 -1.1754 -0.5030 -1.4197
  817TIP3    H223943   2.271   5.696  14.884  0.1261  0.2016  0.6862
  818TIP3   OH223944   4.017   4.350  10.657  0.1849  0.1796 -0.2077
  818TIP3    H123945   4.106   4.382  10.648  0.4325 -0.8721 -1.5480
  818TIP3    H223946   4.026   4.255  10.668 -0.7413  0.1320  0.2249
  819TIP3   OH223947   4.614   2.029   4.829 -0.0259 -0.3327 -0.0671
  819TIP3    H123948   4.640   2.098   4.767  0.7726  0.0114  0.6339
  819TIP3    H223949   4.519   2.033   4.831 -0.0097  0.3700 -0.4678
  820TIP3   OH223950   5.566   5.813   3.169  0.3702  0.3992 -0.0677
  820TIP3    H123951   5.552   5.742   3.106  1.9568 -1.2234  1.3653
  820TIP3    H223952   5.524   5.889   3.129  0.6943 -0.7778 -2.7282
  821TIP3   OH223953   2.328   4.253  11.595  0.3895 -0.0248 -0.2209
  821TIP3    H123954   2.386   4.184  11.626  1.3061  1.6474  1.8904
  821TIP3    H223955   2.260   4.259  11.662  0.4586  1.2777 -0.2531
  822TIP3   OH223956   1.672   4.749  12.789  0.3439 -0.2693  0.4814
  822TIP3    H123957   1.655   4.655  12.800 -2.0900  0.3420  2.2205
  822TIP3    H223958   1.675   4.783  12.878 -1.2307  1.7106 -0.1965
  823TIP3   OH223959   1.326   2.716   3.805  0.5807  0.1973 -0.0751
  823TIP3    H123960   1.266   2.764   3.747  0.8425 -0.5383 -0.9682
  823TIP3    H223961   1.397   2.687   3.748  0.3470 -1.4019  0.4125
  824TIP3   OH223962   1.265   1.135   5.382  0.1232  0.3243  0.1116
  824TIP3    H123963   1.325   1.183   5.325  0.1879  1.8864  1.4694
  824TIP3    H223964   1.287   1.043   5.368  2.3145  0.8345  0.0113
  825TIP3   OH223965   0.469   6.610  13.387  0.1585  0.0375 -0.2163
  825TIP3    H123966   0.499   6.533  13.435 -1.6452 -1.3942 -1.2901
  825TIP3    H223967   0.376   6.617  13.408 -0.1704  0.6649 -1.7666
  826TIP3   OH223968   4.608   6.242  14.370  0.6177 -0.1186 -0.3761
  826TIP3    H123969   4.670   6.277  14.305  0.7038 -1.1489 -0.8662
  826TIP3    H223970   4.568   6.167  14.326 -0.1665 -0.1251  0.3498
  827TIP3   OH223971   4.383   3.368   1.039 -0.2728 -0.2926 -0.4165
  827TIP3    H123972   4.352   3.347   1.127  0.7665 -0.0320  0.0109
  827TIP3    H223973   4.459   3.312   1.027 -0.9587 -1.0158 -1.5151
  828TIP3   OH223974   6.575   2.401   4.564 -0.1775  0.0501  0.3753
  828TIP3    H123975   6.542   2.491   4.572  2.9945  1.1468  2.2097
  828TIP3    H223976   6.504   2.346   4.595 -1.1521  2.1138  1.9128
  829TIP3   OH223977   3.841   1.288  15.814 -0.5069  0.1935  0.7401
  829TIP3    H123978   3.828   1.319  15.724 -0.4980  0.2124  0.7451
  829TIP3    H223979   3.804   1.200  15.815  0.1249 -0.0741  0.5408
  830TIP3   OH223980   4.831   3.333  12.519 -0.4225  0.2199 -0.1716
  830TIP3    H123981   4.830   3.408  12.460  0.5607  0.2877 -0.1084
  830TIP3    H223982   4.804   3.369  12.604 -1.0684  0.2749 -0.3989
  831TIP3   OH223983   4.147   4.652   3.821  0.1184  0.2209  0.1361
  831TIP3    H123984   4.170   4.567   3.782 -0.4764  0.7001 -1.2803
  831TIP3    H223985   4.231   4.688   3.849  0.5537 -0.1867 -0.6078
  832TIP3   OH223986   0.955   0.471  16.893 -0.3183  0.1088 -0.3337
  832TIP3    H123987   0.959   0.450  16.986 -1.1698  1.7830  0.1146
  832TIP3    H223988   0.894   0.407  16.856 -1.1681  0.3825  0.5621
  833TIP3   OH223989   5.328   2.722  12.000 -0.4667 -0.1195  0.1334
  833TIP3    H123990   5.258   2.663  12.028 -0.9389  1.4086  2.3010
  833TIP3    H223991   5.394   2.716  12.069  1.0162 -0.6199 -1.2886
  834TIP3   OH223992   5.893   6.780  11.823  0.0169  0.0902  0.5250
  834TIP3    H123993   5.831   6.758  11.753  0.6219  0.3516 -0.1085
  834TIP3    H223994   5.863   6.864  11.857 -0.3012 -0.0557  0.6034
  835TIP3   OH223995   4.961   6.508   0.787 -0.1615  0.2677  0.1050
  835TIP3    H123996   4.987   6.416   0.794 -1.4299  0.0011  1.4646
  835TIP3    H223997   5.043   6.556   0.798 -0.0451 -0.5876  3.5302
  836TIP3   OH223998   1.308   2.283  14.446 -0.5393  0.0897 -0.4180
  836TIP3    H123999   1.323   2.215  14.511  1.9321 -0.8907 -1.9305
  836TIP3    H224000   1.311   2.237  14.362 -0.4241  1.8029 -1.3715
  837TIP3   OH224001   3.517   6.296  15.506 -0.1521 -0.3139 -0.1057
  837TIP3    H124002   3.554   6.320  15.591 -0.6949 -1.1027  0.3470
  837TIP3    H224003   3.549   6.207  15.490 -1.7538 -0.9670  0.2404
  838TIP3   OH224004   2.303   4.264   3.534 -0.5031  0.0979 -0.8390
  838TIP3    H124005   2.302   4.183   3.584 -0.7202  0.9534  0.5674
  838TIP3    H224006   2.370   4.318   3.576  0.9781 -0.0488 -2.9181
  839TIP3   OH224007   0.686   3.301   2.642  0.2467  0.1444  0.7836
  839TIP3    H124008   0.729   3.384   2.662  0.4828 -0.7287  4.2066
  839TIP3    H224009   0.758   3.238   2.634 -0.0567 -0.1912  0.6895
  840TIP3   OH224010   1.327   6.534  11.681  0.5923 -0.1309 -0.6928
  840TIP3    H124011   1.267   6.462  11.700  1.1391 -0.1155  1.1680
  840TIP3    H224012   1.412   6.491  11.668  0.7481  0.1121 -0.4606
  841TIP3   OH224013   1.754   6.798  15.709 -0.2563  0.0476  0.1193
  841TIP3    H124014   1.846   6.794  15.683 -0.0367 -2.2205  1.1860
  841TIP3    H224015   1.728   6.888  15.688  2.0251  0.5579 -0.7258
  842TIP3   OH224016   3.317   3.801   1.463 -0.0551  0.2142  0.4705
  842TIP3    H124017   3.245   3.813   1.524  0.0719  1.0137  0.4679
  842TIP3    H224018   3.345   3.890   1.441  1.2047 -0.0894  0.8075
  843TIP3   OH224019   3.244   2.105  14.278 -0.3333  0.5114  0.3790
  843TIP3    H124020   3.298   2.074  14.351 -1.2182 -2.3583 -0.1011
  843TIP3    H224021   3.296   2.084  14.200 -1.4912 -0.9699 -0.0154
  844TIP3   OH224022   3.663   1.958  12.174 -0.0748 -0.1941 -0.1646
  844TIP3    H124023   3.595   1.891  12.180 -0.5409  0.4696  2.2515
  844TIP3    H224024   3.745   1.908  12.170 -0.5323 -0.9340 -0.4629
  845TIP3   OH224025   2.728   0.443  13.083 -0.2595  0.1053  0.0637
  845TIP3    H124026   2.657   0.421  13.143 -0.2622  0.1398  0.0735
  845TIP3    H224027   2.802   0.389  13.113 -1.1671 -2.3094 -1.9062
  846TIP3   OH224028   0.825   6.565   2.080  0.6629 -0.1290 -0.3225
  846TIP3    H124029   0.890   6.510   2.035 -0.0946 -2.7140  1.6267
  846TIP3    H224030   0.761   6.503   2.114 -1.6894  2.2117 -0.3181
  847TIP3   OH224031   0.947   1.716  14.651  0.4289  0.1985  0.5683
  847TIP3    H124032   0.992   1.642  14.692  1.0309 -0.7238 -1.6873
  847TIP3    H224033   0.996   1.793  14.681  2.6514 -0.6852 -0.6984
  848TIP3   OH224034   3.453   6.642  16.964  0.7486 -0.0450  0.0042
  848TIP3    H124035   3.392   6.649  16.891 -0.7002 -0.8245  1.1065
  848TIP3    H224036   3.508   6.566  16.942 -0.6013 -1.1477  0.3748
  849TIP3   OH224037   4.283   5.174  13.280 -0.2712  0.0760  0.2413
  849TIP3    H124038   4.196   5.210  13.294 -0.9100 -0.6388 -1.8333
  849TIP3    H224039   4.342   5.249  13.291 -1.1088  0.5353  1.7764
  850TIP3   OH224040   4.038   0.500  15.006  0.0888 -0.0313  0.0226
  850TIP3    H124041   4.081   0.555  14.940  0.4581 -0.4612 -0.1029
  850TIP3    H224042   4.102   0.494  15.077 -0.0133 -0.1748  0.1028
  851TIP3   OH224043   2.347   4.204  15.389 -0.0888  0.3290 -0.2482
  851TIP3    H124044   2.272   4.181  15.444  1.7693 -2.3952  1.2914
  851TIP3    H224045   2.325   4.168  15.303 -1.3500  1.2328 -0.3184
  852TIP3   OH224046   2.442   6.663  16.134 -0.3979 -0.1743  0.2218
  852TIP3    H124047   2.526   6.675  16.089 -0.4133  0.8083  0.4230
  852TIP3    H224048   2.383   6.627  16.068 -0.6212  1.9005 -0.7790
  853TIP3   OH224049   5.137   6.460  12.839  0.2241  0.8635 -0.0724
  853TIP3    H124050   5.157   6.487  12.750 -0.9502  0.6907 -0.3990
  853TIP3    H224051   5.069   6.393  12.829 -0.3849  1.3111  0.9759
  854TIP3   OH224052   6.659   6.502  14.387 -0.6336  0.1038  0.1527
  854TIP3    H124053   6.675   6.450  14.309  0.5177  0.2062  0.3154
  854TIP3    H224054   6.725   6.571  14.384 -1.4448  0.9056  0.5140
  855TIP3   OH224055   6.674   1.665   4.178  0.3728 -0.2972 -0.5972
  855TIP3    H124056   6.754   1.652   4.126  0.2929 -0.7991 -0.5937
  855TIP3    H224057   6.705   1.660   4.269  0.4030 -0.0825 -0.5952
  856TIP3   OH224058   2.247   3.246   2.836  0.1457  0.0934 -0.2216
  856TIP3    H124059   2.305   3.210   2.902 -0.6995 -0.6451  0.1294
  856TIP3    H224060   2.239   3.339   2.858  0.1537 -0.0783  0.4942
  857TIP3   OH224061   5.948   4.448  11.543 -0.3940 -0.1686 -0.4556
  857TIP3    H124062   6.032   4.477  11.507  0.0483 -2.0809 -1.0308
  857TIP3    H224063   5.890   4.442  11.467 -0.9394  0.7024 -0.1207
  858TIP3   OH224064   3.839   3.342   2.279  0.1679 -0.3168 -0.1129
  858TIP3    H124065   3.882   3.298   2.206 -0.4145 -1.9593  0.4988
  858TIP3    H224066   3.785   3.410   2.239  2.9609  1.5029 -0.9270
  859TIP3   OH224067   4.330   2.420   1.529 -0.3430 -0.2791 -0.1371
  859TIP3    H124068   4.314   2.327   1.545  1.6873 -0.5891  0.3278
  859TIP3    H224069   4.393   2.445   1.597 -1.1845  1.5477 -0.0094
  860TIP3   OH224070   1.982   5.215   6.135  0.6740  0.5703  0.4032
  860TIP3    H124071   1.890   5.242   6.139  0.7584  0.8232  0.7090
  860TIP3    H224072   1.994   5.162   6.214  1.2866  2.1318  1.3725
  861TIP3   OH224073   4.047   6.033   4.501 -0.5200  0.5304  0.1767
  861TIP3    H124074   4.057   5.938   4.515 -1.2178  0.3453 -0.5754
  861TIP3    H224075   3.964   6.042   4.455  0.0530  1.4203 -0.7165
  862TIP3   OH224076   2.508   4.995  14.839 -0.0550  0.2957  0.8448
  862TIP3    H124077   2.475   5.084  14.856  0.3621  0.2800  1.7973
  862TIP3    H224078   2.509   4.987  14.744  0.9939  1.7236  0.7218
  863TIP3   OH224079   5.403   2.592   5.131 -0.3042  0.5323 -0.2074
  863TIP3    H124080   5.368   2.503   5.143  0.2217  0.2189 -0.9402
  863TIP3    H224081   5.404   2.629   5.219  3.2055 -1.5979  0.7380
  864TIP3   OH224082   6.376   0.976  15.264 -0.0949 -0.1215  0.3610
  864TIP3    H124083   6.379   0.964  15.170 -0.2859 -1.3842  0.5052
  864TIP3    H224084   6.399   1.068  15.278  0.8799 -0.1806 -0.8461
  865TIP3   OH224085   3.382   1.446   6.929 -0.1777  0.2471  0.2382
  865TIP3    H124086   3.426   1.524   6.894  1.2267 -0.4005  0.5145
  865TIP3    H224087   3.311   1.481   6.983  1.3933  1.4026  1.6436
  866TIP3   OH224088   3.161   2.505   2.499  0.6332  0.5589  0.1265
  866TIP3    H124089   3.067   2.503   2.482  1.0358 -0.1265 -2.3262
  866TIP3    H224090   3.176   2.437   2.564 -0.2620 -1.1081 -1.3624
  867TIP3   OH224091   6.402   6.691  17.016 -0.2818  0.0267  0.5139
  867TIP3    H124092   6.440   6.667  16.931  1.8347  1.6837  0.9491
  867TIP3    H224093   6.377   6.607  17.055 -0.7581 -0.7999 -1.4991
  868TIP3   OH224094   5.691   3.684  16.481  0.0756 -0.2557 -0.0455
  868TIP3    H124095   5.691   3.703  16.575  0.4697  2.3000 -0.5208
  868TIP3    H224096   5.669   3.591  16.475 -2.7988  0.1757  2.4669
  869TIP3   OH224097   4.589   2.951   2.716  0.4874 -0.0591 -0.1103
  869TIP3    H124098   4.625   2.892   2.782 -1.9017 -0.3702  0.9907
  869TIP3    H224099   4.596   2.903   2.634 -0.1962 -1.3332  0.5598
  870TIP3   OH224100   3.831   4.157  16.084 -0.4483 -0.4168 -0.2019
  870TIP3    H124101   3.858   4.249  16.084 -0.7506 -0.3263  0.3031
  870TIP3    H224102   3.838   4.130  15.992  0.4251 -0.1230 -0.2294
  871TIP3   OH224103   6.511   5.687   5.352 -0.2014 -0.1302  0.8910
  871TIP3    H124104   6.431   5.724   5.389 -0.3854  0.1876  0.1998
  871TIP3    H224105   6.575   5.692   5.423 -0.4798  0.6893  1.0921
  872TIP3   OH224106   1.495   4.825   0.257  0.5689 -0.4736  0.3839
  872TIP3    H124107   1.409   4.860   0.232  0.0577 -2.1845 -0.3427
  872TIP3    H224108   1.535   4.798   0.174  1.8441  0.4000  0.7166
  873TIP3   OH224109   2.583   2.125   1.095 -0.1201 -0.0836  0.1907
  873TIP3    H124110   2.595   2.156   1.005  2.6010 -2.4906 -0.3631
  873TIP3    H224111   2.568   2.031   1.086 -0.1707 -0.2963  2.2394
  874TIP3   OH224112   3.056   6.317  12.181 -0.0716  0.0993 -0.7324
  874TIP3    H124113   3.036   6.273  12.264 -1.1566  1.3159 -0.3352
  874TIP3    H224114   3.147   6.346  12.191 -0.7766  1.8939  0.8062
  875TIP3   OH224115   4.423   6.244  14.879 -0.0267 -0.0628 -0.3625
  875TIP3    H124116   4.439   6.271  14.789 -1.0772  0.6660 -0.3334
  875TIP3    H224117   4.356   6.176  14.871  0.6840 -0.7808 -0.2186
  876TIP3   OH224118   3.483   3.689  11.277 -0.3555 -0.6942 -0.1823
  876TIP3    H124119   3.541   3.755  11.238 -0.1295 -0.4034  0.6490
  876TIP3    H224120   3.511   3.607  11.237 -1.4598 -0.1314 -2.1779
  877TIP3   OH224121   4.937   0.344  15.817  0.9734 -0.3187  0.3799
  877TIP3    H124122   5.008   0.352  15.754  1.3481 -0.6768  0.7559
  877TIP3    H224123   4.968   0.390  15.894 -0.4761  2.2662 -0.5200
  878TIP3   OH224124   6.657   0.721  10.590 -0.7542 -0.4611  0.1424
  878TIP3    H124125   6.735   0.758  10.630 -1.3306 -1.0650  1.8726
  878TIP3    H224126   6.688   0.644  10.543 -0.0086  0.4957 -0.9571
  879TIP3   OH224127   4.125   5.688   2.757 -0.5037 -0.1091  0.2191
  879TIP3    H124128   4.160   5.639   2.682  0.2998 -0.2424  0.6880
  879TIP3    H224129   4.097   5.772   2.719 -0.0084 -0.1350 -0.2073
  880TIP3   OH224130   0.358   2.619   1.780  0.0277 -0.3331  0.4181
  880TIP3    H124131   0.377   2.697   1.729 -1.1928 -0.8276 -0.8090
  880TIP3    H224132   0.432   2.611   1.841  2.2160 -0.5012 -2.1893
  881TIP3   OH224133   0.847   2.322   1.498 -0.1579  0.2508 -0.0551
  881TIP3    H124134   0.933   2.298   1.533  2.4638  2.8935 -4.1989
  881TIP3    H224135   0.804   2.239   1.477  2.4555 -1.0913 -0.2100
  882TIP3   OH224136   3.150   5.061  11.240  0.5007  0.0041  0.3019
  882TIP3    H124137   3.063   5.025  11.222  1.5657 -1.6447 -1.6556
  882TIP3    H224138   3.155   5.140  11.186 -0.0039  0.5132  0.9662
  883TIP3   OH224139   2.568   0.420  13.936  0.5271  0.6066  0.4975
  883TIP3    H124140   2.535   0.436  14.024  0.2387 -0.4211  0.5825
  883TIP3    H224141   2.490   0.407  13.883  0.6366  2.6437 -0.2217
  884TIP3   OH224142   3.634   6.454   1.974 -0.0994 -0.5710 -0.1595
  884TIP3    H124143   3.560   6.407   2.012 -0.3986 -2.1934 -2.6426
  884TIP3    H224144   3.706   6.391   1.973  0.1649 -0.2697 -1.3822
  885TIP3   OH224145   2.960   1.348  14.029 -0.0095  0.1296  0.1307
  885TIP3    H124146   2.959   1.331  14.123 -0.8898  0.3794  0.1694
  885TIP3    H224147   2.886   1.298  13.994  1.3222 -1.3530 -0.6886
  886TIP3   OH224148   3.364   5.579  11.373 -0.0373 -0.5721  0.2948
  886TIP3    H124149   3.324   5.502  11.414  0.2426 -0.6271  0.4694
  886TIP3    H224150   3.457   5.573  11.397  0.1513 -0.6683 -0.4488
  887TIP3   OH224151   4.557   0.550  17.190  0.2273  0.1480  0.1510
  887TIP3    H124152   4.510   0.475  17.226  0.0225  0.3606  0.3274
  887TIP3    H224153   4.591   0.519  17.106 -0.7364  0.1768 -0.2574
  888TIP3   OH224154   4.521   2.507   5.937 -0.3087 -0.2335 -0.2647
  888TIP3    H124155   4.504   2.478   6.026 -0.0204 -2.3062 -0.8579
  888TIP3    H224156   4.593   2.452   5.907 -0.0721  0.7815 -1.6158
  889TIP3   OH224157   3.803   1.212  13.208  0.2574 -0.5268 -0.3692
  889TIP3    H124158   3.817   1.130  13.162  0.3834 -0.6617 -0.0948
  889TIP3    H224159   3.747   1.264  13.151 -0.5684 -1.1595 -0.1329
  890TIP3   OH224160   3.641   2.759   1.497 -0.0952 -0.3259 -0.2025
  890TIP3    H124161   3.691   2.728   1.572  1.5814  1.3382 -0.6030
  890TIP3    H224162   3.594   2.681   1.465  4.3123 -2.5995 -1.4854
  891TIP3   OH224163   0.935   5.154  10.189  0.1988 -0.5256  0.2143
  891TIP3    H124164   0.859   5.099  10.171 -0.0176  0.3231 -1.5440
  891TIP3    H224165   0.998   5.095  10.230 -1.3301 -1.2745  1.5459
  892TIP3   OH224166   1.454   5.035  16.667 -0.5192  0.0303 -0.9683
  892TIP3    H124167   1.515   4.971  16.631 -1.6224 -0.1171 -2.6422
  892TIP3    H224168   1.509   5.094  16.719  0.8022 -1.0226 -1.1468
  893TIP3   OH224169   5.489   2.552   6.186  0.4956  0.1225 -0.4190
  893TIP3    H124170   5.482   2.633   6.135 -1.4574  0.2614  0.0267
  893TIP3    H224171   5.478   2.580   6.277 -2.1443 -0.8576 -0.4044
  894TIP3   OH224172   6.092   2.772  13.836 -0.1932 -0.5277  0.5336
  894TIP3    H124173   6.170   2.823  13.858 -0.2714 -0.1222 -0.1366
  894TIP3    H224174   6.121   2.681  13.843  1.4356 -0.3949 -3.4725
  895TIP3   OH224175   5.139   4.215  11.696  0.0878 -0.1286 -0.0054
  895TIP3    H124176   5.088   4.185  11.621  0.6650 -2.3055  0.4510
  895TIP3    H224177   5.075   4.257  11.754 -0.5799  0.3430 -1.0777
  896TIP3   OH224178   2.975   4.886  16.953  0.2995  0.0696 -0.2873
  896TIP3    H124179   2.930   4.968  16.933 -1.4254 -0.0601  2.6752
  896TIP3    H224180   3.044   4.911  17.015 -0.0573 -0.6623  0.4203
  897TIP3   OH224181   6.098   6.230  16.228 -0.2945 -0.6150  0.5185
  897TIP3    H124182   6.040   6.305  16.224 -0.9261 -1.1977 -2.4432
  897TIP3    H224183   6.141   6.228  16.142  3.3546 -0.8069  2.2574
  898TIP3   OH224184   1.008   4.467  16.918 -0.7680 -0.0688  0.0397
  898TIP3    H124185   1.052   4.546  16.950 -1.2446  0.5027 -0.6977
  898TIP3    H224186   0.950   4.442  16.990 -0.2091 -0.0688  0.5004
  899TIP3   OH224187   3.373   3.210  16.613 -0.5435 -0.0106 -0.1360
  899TIP3    H124188   3.340   3.142  16.672 -0.6497 -0.4735 -0.7254
  899TIP3    H224189   3.387   3.285  16.669 -1.6026 -0.1325  0.3109
  900TIP3   OH224190   1.070   5.943   2.770 -0.5414  0.3717 -0.8379
  900TIP3    H124191   1.154   5.990   2.773  0.7179 -1.6208 -3.1790
  900TIP3    H224192   1.020   5.989   2.703 -0.3391  0.0497 -1.2153
  901TIP3   OH224193   4.631   2.227  15.855 -0.4720 -0.1240 -0.0423
  901TIP3    H124194   4.687   2.194  15.925  0.9407 -0.7430 -1.4428
  901TIP3    H224195   4.550   2.177  15.864 -0.2472 -0.3041  1.0502
  902TIP3   OH224196   3.259   4.115  11.248  1.1313  0.0195  0.0300
  902TIP3    H124197   3.283   4.036  11.199 -0.4819 -0.8618  0.6036
  902TIP3    H224198   3.199   4.083  11.316  1.7310  1.5217  1.2781
  903TIP3   OH224199   1.967   0.180   2.567  0.0202  0.5260  0.5236
  903TIP3    H124200   1.982   0.088   2.592 -2.5220  0.3120  1.4068
  903TIP3    H224201   2.029   0.229   2.621  0.8256 -0.6042  0.6611
  904TIP3   OH224202   3.078   0.065  13.653  0.2602  0.4091  0.6113
  904TIP3    H124203   3.157   0.058  13.706  0.9263  0.8201 -0.3116
  904TIP3    H224204   3.046  -0.024  13.645  0.9950  0.1600  0.4417
  905TIP3   OH224205   6.326   6.266   1.060 -0.3217 -0.2396  0.0347
  905TIP3    H124206   6.258   6.201   1.078  2.0176 -2.1974  2.2194
  905TIP3    H224207   6.407   6.215   1.056  1.4092  2.4032  0.4681
  906TIP3   OH224208   3.169   1.587   6.543  0.3335 -0.0154 -0.2477
  906TIP3    H124209   3.105   1.516   6.545 -0.6440  0.8350 -0.7553
  906TIP3    H224210   3.159   1.625   6.456  0.6918  0.8946  0.1048
  907TIP3   OH224211   0.469   2.817   1.655 -0.3857  0.2770 -0.5698
  907TIP3    H124212   0.464   2.910   1.630 -3.0217 -0.0969 -1.5743
  907TIP3    H224213   0.562   2.803   1.673  0.1937  2.9162 -1.1737
  908TIP3   OH224214   2.106   4.233   3.135  0.3274  0.2716  0.3075
  908TIP3    H124215   2.132   4.324   3.148 -1.5294  0.6756  1.4563
  908TIP3    H224216   2.178   4.182   3.172  0.3607  1.3207  1.7558
  909TIP3   OH224217   2.745   4.432  11.165  0.7510 -0.2763 -0.0721
  909TIP3    H124218   2.766   4.487  11.241  3.5741 -1.1923 -0.1235
  909TIP3    H224219   2.744   4.494  11.091  0.6453  0.2072  0.3303
  910TIP3   OH224220   0.272   5.197   0.170 -0.0263 -0.3284 -0.0206
  910TIP3    H124221   0.229   5.273   0.209 -2.3315 -1.2515 -0.6157
  910TIP3    H224222   0.212   5.124   0.189  0.6430 -1.4432 -2.0215
  911TIP3   OH224223   3.983   1.728   3.627 -0.1476 -0.1255  0.3899
  911TIP3    H124224   4.065   1.703   3.669  0.9484  0.1324 -1.5399
  911TIP3    H224225   4.004   1.807   3.578 -0.5317 -2.0745 -3.1356
  912TIP3   OH224226   2.054   1.763  12.673 -0.0543 -0.3326 -0.3926
  912TIP3    H124227   2.028   1.680  12.712  1.3350 -1.4864 -1.8592
  912TIP3    H224228   2.149   1.765  12.683  0.0570  0.4750 -1.5342
  913TIP3   OH224229   4.285   1.155  10.849  0.4478 -0.1990  0.3915
  913TIP3    H124230   4.316   1.236  10.890  0.6081  0.2913 -0.6713
  913TIP3    H224231   4.193   1.172  10.829  0.5052 -0.2364  0.0827
  914TIP3   OH224232   3.195   6.446  13.177 -0.6000  0.0072 -0.4027
  914TIP3    H124233   3.237   6.407  13.100 -1.8781 -0.8511 -0.6665
  914TIP3    H224234   3.261   6.506  13.211  0.0076  0.3631 -2.1367
  915TIP3   OH224235   1.909   5.998   4.534  0.7073  0.4164 -0.0170
  915TIP3    H124236   1.872   6.017   4.448  2.0265  0.5700 -0.5596
  915TIP3    H224237   1.833   5.998   4.593 -0.3374 -0.6812 -1.3249
  916TIP3   OH224238   2.377   0.144   3.101  0.1340  0.2987  1.1850
  916TIP3    H124239   2.443   0.077   3.121 -0.2355 -0.1170  1.0165
  916TIP3    H224240   2.298   0.095   3.081  0.6770  0.6800 -2.0639
  917TIP3   OH224241   4.781   5.809   0.004 -0.4943  0.4606 -0.7743
  917TIP3    H124242   4.734   5.860  -0.062  0.8993 -1.9295 -3.6818
  917TIP3    H224243   4.798   5.725  -0.037 -1.6554 -2.0073  3.4903
  918TIP3   OH224244   5.721   3.828   1.467 -0.1918  0.0200  0.8404
  918TIP3    H124245   5.765   3.908   1.497 -0.1563 -0.7776  3.0290
  918TIP3    H224246   5.643   3.822   1.522 -1.0645 -0.5886 -0.4383
  919TIP3   OH224247   0.222   2.070  15.468 -0.1922 -0.5970  0.1675
  919TIP3    H124248   0.275   2.056  15.389  3.4656 -0.4106  2.4683
  919TIP3    H224249   0.207   2.164  15.470 -1.4329 -0.7510 -0.9558
  920TIP3   OH224250   4.291   6.734  12.792 -0.3177  0.0614  0.4271
  920TIP3    H124251   4.328   6.766  12.710  0.3735  0.5907  0.9459
  920TIP3    H224252   4.248   6.651  12.768  0.1124  0.0774 -0.4145
  921TIP3   OH224253   2.952   2.307  14.052  0.2535 -0.4532  0.3440
  921TIP3    H124254   2.899   2.357  14.114  1.7137  0.8969  0.5512
  921TIP3    H224255   3.043   2.325  14.078  0.8428 -1.7724 -0.7115
  922TIP3   OH224256   1.430   3.662   0.472  0.5504  0.5678  0.6344
  922TIP3    H124257   1.368   3.705   0.412 -0.1409  0.4516  1.2551
  922TIP3    H224258   1.479   3.602   0.417 -0.6658 -0.1664  0.3316
  923TIP3   OH224259   4.448   4.264   1.598  0.3792 -0.1274 -0.0880
  923TIP3    H124260   4.416   4.279   1.686 -0.4787 -1.4483 -0.1602
  923TIP3    H224261   4.430   4.172   1.581  1.2993 -0.0996 -1.3320
  924TIP3   OH224262   5.455   1.526  11.392  0.1882  0.4697 -0.0523
  924TIP3    H124263   5.437   1.530  11.299  0.3737 -1.3979 -0.1791
  924TIP3    H224264   5.480   1.435  11.409 -0.3152  0.6548  1.8949
  925TIP3   OH224265   6.174   0.417   5.485 -0.1357 -0.3456 -0.4015
  925TIP3    H124266   6.249   0.411   5.544 -0.3117 -1.3208 -0.2591
  925TIP3    H224267   6.163   0.511   5.469  0.4270 -0.1247  0.4533
  926TIP3   OH224268   4.424   4.175   3.804 -0.2102 -0.1720 -0.7255
  926TIP3    H124269   4.407   4.205   3.715 -1.6941 -0.0334 -0.3990
  926TIP3    H224270   4.385   4.088   3.808 -1.7102  0.5329  0.3140
  927TIP3   OH224271   3.280   1.265   4.098 -0.1746 -0.2042 -0.3826
  927TIP3    H124272   3.276   1.288   4.191  0.8736  0.6668 -0.5486
  927TIP3    H224273   3.297   1.170   4.097 -0.5708 -0.2832  0.3069
  928TIP3   OH224274   6.388   2.078  11.541 -0.5802  0.0427  0.4351
  928TIP3    H124275   6.353   2.043  11.622 -2.2242 -1.9486 -1.1026
  928TIP3    H224276   6.370   2.172  11.546 -1.5325 -0.2001  1.9369
  929TIP3   OH224277   1.835   6.419  11.768  0.3670  0.1327  0.0789
  929TIP3    H124278   1.887   6.341  11.790 -0.0132  0.1484  1.0549
  929TIP3    H224279   1.896   6.492  11.778 -0.6700  0.5017  4.5841
  930TIP3   OH224280   0.200   0.566   0.003 -0.2077  0.1305  0.1134
  930TIP3    H124281   0.272   0.510   0.031 -1.3666 -1.1880  0.5132
  930TIP3    H224282   0.223   0.593  -0.087 -0.5434 -2.5508 -0.8087
  931TIP3   OH224283   2.600   1.885  15.847 -0.4100  0.2918 -0.0591
  931TIP3    H124284   2.688   1.885  15.883 -0.8029 -0.2469  0.9313
  931TIP3    H224285   2.612   1.885  15.752  0.6474 -0.3029  0.0758
  932TIP3   OH224286   3.772   2.480   2.760 -0.4645 -0.0209  0.2422
  932TIP3    H124287   3.833   2.554   2.767 -0.8243  0.3523 -0.5199
  932TIP3    H224288   3.814   2.420   2.698 -0.5843 -0.0502  0.1902
  933TIP3   OH224289   1.767   3.592  11.762  0.2234  1.0429 -0.0854
  933TIP3    H124290   1.718   3.542  11.828 -0.5367  1.9194  0.0244
  933TIP3    H224291   1.834   3.638  11.812  0.6042  0.5288 -0.1209
  934TIP3   OH224292   2.935   3.843   1.217 -0.1387 -0.1892  0.0958
  934TIP3    H124293   2.932   3.850   1.313 -0.9808 -0.0735  0.0650
  934TIP3    H224294   2.872   3.774   1.196 -1.3899  1.0994 -0.4932
  935TIP3   OH224295   2.387   1.614   5.008  0.3971  0.1524  0.6252
  935TIP3    H124296   2.399   1.696   5.055 -0.7695  0.3092  0.6628
  935TIP3    H224297   2.302   1.623   4.965  0.0478 -1.2012  0.9965
  936TIP3   OH224298   4.390   3.849   4.916  0.7611 -0.1417  0.0515
  936TIP3    H124299   4.386   3.938   4.951 -0.0959  0.1680 -0.8246
  936TIP3    H224300   4.467   3.810   4.958  0.1142  0.4199  1.8051
  937TIP3   OH224301   1.478   2.486   5.054 -0.1832  0.1271 -0.7734
  937TIP3    H124302   1.563   2.447   5.033  0.1951  1.0445 -0.9962
  937TIP3    H224303   1.492   2.531   5.137 -0.3562  0.5689 -0.9816
  938TIP3   OH224304   5.285   4.550   4.095 -0.4717 -0.2251  0.2042
  938TIP3    H124305   5.293   4.638   4.058  1.0770 -0.2509  0.4245
  938TIP3    H224306   5.375   4.516   4.095 -0.6246 -0.6972  2.8504
  939TIP3   OH224307   6.654   1.833  12.570  0.4170 -0.5010  0.2076
  939TIP3    H124308   6.718   1.769  12.538 -0.2301 -0.3469 -1.4650
  939TIP3    H224309   6.664   1.908  12.512 -1.1825 -0.4282 -0.0131
  940TIP3   OH224310   5.679   1.573   0.933 -0.2016 -0.0587 -0.3150
  940TIP3    H124311   5.687   1.665   0.957 -1.2300  0.2666 -1.2571
  940TIP3    H224312   5.592   1.564   0.896  0.5477 -1.0391 -1.9018
  941TIP3   OH224313   0.227   4.763  15.696 -0.1101  0.6920 -0.5115
  941TIP3    H124314   0.295   4.815  15.739  0.5964 -0.2062 -0.5307
  941TIP3    H224315   0.155   4.761  15.759 -0.0042  1.3900 -0.3639
  942TIP3   OH224316   4.904   0.172   0.763  0.0330 -0.3976 -0.3344
  942TIP3    H124317   4.830   0.207   0.713 -0.0887 -0.5401 -0.2529
  942TIP3    H224318   4.981   0.218   0.727 -0.1319 -0.0087 -0.1945
  943TIP3   OH224319   2.469   1.618   4.329 -0.0854  0.4846  0.2360
  943TIP3    H124320   2.555   1.624   4.372  0.8007  1.9952 -1.6558
  943TIP3    H224321   2.413   1.677   4.379  0.9452  2.2553 -0.6567
  944TIP3   OH224322   5.587   1.294   5.866 -0.3704  0.4440  0.2786
  944TIP3    H124323   5.498   1.328   5.868  0.0440  1.5698  0.3074
  944TIP3    H224324   5.612   1.298   5.773 -0.6088 -0.5826  0.1641
  945TIP3   OH224325   6.485   0.494   4.450  0.0632 -0.2664  0.3766
  945TIP3    H124326   6.536   0.469   4.373 -1.4957 -3.1253  0.2243
  945TIP3    H224327   6.470   0.588   4.439  1.0847 -0.3500 -2.0462
  946TIP3   OH224328   1.808   0.412   6.247  0.0456  0.4672 -0.0478
  946TIP3    H124329   1.849   0.498   6.254 -0.3766  0.6861 -0.2340
  946TIP3    H224330   1.784   0.390   6.337  0.3602  0.4425  0.0302
  947TIP3   OH224331   5.686   2.041   0.907 -0.3739 -1.2227 -0.7057
  947TIP3    H124332   5.741   2.118   0.923 -1.6080 -0.5217  0.1860
  947TIP3    H224333   5.748   1.967   0.904  0.6050 -0.4476  0.2790
  948TIP3   OH224334   2.458   3.232   3.918 -0.1213 -0.3527  0.3588
  948TIP3    H124335   2.513   3.309   3.931 -1.5070  0.8286 -0.5678
  948TIP3    H224336   2.386   3.243   3.980  1.4625 -2.7140  2.7417
  949TIP3   OH224337   6.009   4.360   4.602 -0.1490  0.0981  0.2268
  949TIP3    H124338   5.950   4.434   4.583  0.3503  0.1419 -1.2364
  949TIP3    H224339   6.089   4.401   4.635  0.3091  0.2591 -1.0518
  950TIP3   OH224340   5.846   5.227   0.675  0.0953 -0.1611  0.7341
  950TIP3    H124341   5.830   5.200   0.765  1.9623 -0.3455  1.0457
  950TIP3    H224342   5.760   5.233   0.635 -0.6891 -1.0255  2.2677
  951TIP3   OH224343   1.450   3.758   4.647 -0.0041  0.3228  0.1330
  951TIP3    H124344   1.454   3.770   4.552 -0.6990  1.5924  0.2518
  951TIP3    H224345   1.540   3.742   4.674 -0.0255 -1.8079 -0.9559
  952TIP3   OH224346   5.766   1.011   0.905 -0.5724 -0.4448 -0.6664
  952TIP3    H124347   5.784   0.973   0.819  0.8202 -1.3542  0.0154
  952TIP3    H224348   5.680   0.978   0.929 -0.8937 -0.3199 -1.6311
  953TIP3   OH224349   4.377   2.707  16.370  0.5428 -0.2666 -0.0927
  953TIP3    H124350   4.399   2.658  16.449  0.8622 -0.7529 -0.4871
  953TIP3    H224351   4.456   2.757  16.350  0.2391  0.3819  0.2758
  954TIP3   OH224352   5.258   5.095   3.992 -0.4521 -0.0033  0.2279
  954TIP3    H124353   5.220   5.007   3.992 -0.6691  0.0300  3.3256
  954TIP3    H224354   5.344   5.084   3.952 -0.5828 -1.5822  0.3435
  955TIP3   OH224355   5.006   4.350   5.077  0.2639 -0.1161 -0.2091
  955TIP3    H124356   4.985   4.375   4.987  0.3456  1.7590  0.2817
  955TIP3    H224357   4.922   4.352   5.123  0.5355  1.0749  0.2536
  956TIP3   OH224358   1.770   0.652  14.046  0.2941  0.1485  0.6420
  956TIP3    H124359   1.770   0.628  13.953  0.3784 -1.2962  1.0064
  956TIP3    H224360   1.769   0.569  14.093 -0.3992  0.8701  1.9476
  957TIP3   OH224361   3.642   0.420  11.313 -0.1469 -0.0050 -0.4378
  957TIP3    H124362   3.549   0.433  11.292  0.2099  0.9589 -1.4977
  957TIP3    H224363   3.665   0.495  11.367  0.2957  0.3623 -1.1268
  958TIP3   OH224364   3.321   6.397   1.003 -0.5830 -0.3309  0.5218
  958TIP3    H124365   3.318   6.464   0.934 -0.4652 -0.0191  0.8147
  958TIP3    H224366   3.259   6.428   1.069 -1.8062 -1.4007 -0.1262
  959TIP3   OH224367   5.411   4.767  11.344  0.6469 -0.2828  0.1943
  959TIP3    H124368   5.328   4.806  11.369  1.0552  0.5851  0.1856
  959TIP3    H224369   5.406   4.677  11.377  0.5595  0.3889  2.0137
  960TIP3   OH224370   0.380   3.954   5.834 -0.2967  0.0872 -0.1203
  960TIP3    H124371   0.375   3.883   5.898 -2.6216 -0.5060 -0.9184
  960TIP3    H224372   0.433   3.919   5.763 -0.6989 -0.5448 -0.1118
  961TIP3   OH224373   6.083   5.172   2.645  0.3971  0.1848  0.2008
  961TIP3    H124374   6.082   5.122   2.726 -1.3544 -0.0931  0.0418
  961TIP3    H224375   6.045   5.112   2.580  3.5835 -0.3170 -1.2927
  962TIP3   OH224376   3.022   6.321   3.612 -0.6832 -0.0253 -0.5863
  962TIP3    H124377   3.056   6.250   3.557 -0.6419  0.8869 -1.7527
  962TIP3    H224378   2.973   6.376   3.552 -1.7513  0.2777  0.5530
  963TIP3   OH224379   2.480   5.564   5.473  0.2249  0.5187  0.6109
  963TIP3    H124380   2.470   5.624   5.547  2.0179  0.8846  0.5753
  963TIP3    H224381   2.487   5.478   5.513 -1.6243  0.3729  0.6984
  964TIP3   OH224382   5.543   2.894  12.519 -1.4675  0.4565 -0.1028
  964TIP3    H124383   5.521   2.979  12.557  0.3571  1.0941 -0.3857
  964TIP3    H224384   5.599   2.915  12.444 -0.0176 -1.0197  0.5122
  965TIP3   OH224385   2.899   0.496  13.545  0.4375  0.1192  0.2743
  965TIP3    H124386   2.900   0.490  13.640 -1.5005 -0.2057  0.3005
  965TIP3    H224387   2.876   0.407  13.515  3.2028 -0.3564 -0.6084
  966TIP3   OH224388   5.633   6.384   4.164  0.7863 -0.5292 -0.2345
  966TIP3    H124389   5.595   6.454   4.111 -0.0538 -0.0511  0.9699
  966TIP3    H224390   5.636   6.308   4.106 -1.9801 -0.5687 -0.4050
  967TIP3   OH224391   0.268   5.560  13.434  0.3530 -0.1551 -0.4810
  967TIP3    H124392   0.212   5.500  13.483  0.5187 -0.3330 -0.5096
  967TIP3    H224393   0.357   5.528  13.450  0.4571  0.2317 -0.2936
  968TIP3   OH224394   6.111   6.155   5.431 -0.4441  0.3307 -0.3317
  968TIP3    H124395   6.126   6.245   5.402 -0.2615 -0.0707 -1.4966
  968TIP3    H224396   6.194   6.110   5.415 -0.7414 -0.2061 -0.3809
  969TIP3   OH224397   3.397   4.116   3.811  0.6859  0.1101 -0.3848
  969TIP3    H124398   3.301   4.124   3.808  0.6138  0.2635  1.7095
  969TIP3    H224399   3.413   4.023   3.794  0.1562  0.0521 -0.5956
  970TIP3   OH224400   1.658   3.693  12.171 -0.6438  0.2029 -0.3138
  970TIP3    H124401   1.725   3.697  12.240 -0.0890  0.3608 -0.8523
  970TIP3    H224402   1.577   3.716  12.215 -0.1467  1.1955  0.0974
  971TIP3   OH224403   5.301   3.999  13.520 -0.7332 -0.0122  0.5830
  971TIP3    H124404   5.248   4.077  13.501 -1.9928 -0.9643  0.1110
  971TIP3    H224405   5.342   3.977  13.437 -1.1598 -0.4219  0.4784
  972TIP3   OH224406   2.335   3.160   3.276 -0.0703 -0.2957  0.1696
  972TIP3    H124407   2.305   3.250   3.291  0.2869 -0.3079  0.9601
  972TIP3    H224408   2.256   3.112   3.253 -0.6588 -0.3260  2.2130
  973TIP3   OH224409   0.655   5.507   5.008 -0.7724 -0.0539  0.3192
  973TIP3    H124410   0.563   5.492   4.987 -0.4373 -2.2701  0.2569
  973TIP3    H224411   0.690   5.550   4.930 -2.0420  2.1444  0.9127
  974TIP3   OH224412   4.640   3.739   3.693 -0.6074 -0.3203  0.1046
  974TIP3    H124413   4.695   3.775   3.623  0.2323 -2.8288 -0.5576
  974TIP3    H224414   4.699   3.730   3.768 -0.3719 -1.9805 -0.2725
  975TIP3   OH224415   5.404   5.101   1.714 -0.0046  0.3617 -0.2546
  975TIP3    H124416   5.478   5.107   1.654  0.6642 -0.7000  0.4518
  975TIP3    H224417   5.371   5.012   1.704 -0.8453  0.6577 -0.1674
  976TIP3   OH224418   4.402   1.446  16.310 -0.2643 -0.3844  0.1506
  976TIP3    H124419   4.416   1.360  16.350 -0.2137 -0.2357  0.4515
  976TIP3    H224420   4.488   1.488  16.313 -0.5161  0.0837  0.9601
  977TIP3   OH224421   4.651   4.310  17.152 -0.0120 -0.7040  0.7084
  977TIP3    H124422   4.704   4.389  17.160 -1.0688  0.1542 -0.6835
  977TIP3    H224423   4.605   4.303  17.236  1.3190 -0.7804  1.4559
  978TIP3   OH224424   3.702   1.225  13.930 -0.0744  0.4305  0.8145
  978TIP3    H124425   3.767   1.292  13.911 -1.4668  1.7970  0.7233
  978TIP3    H224426   3.738   1.145  13.893  2.3104  0.7945  2.2369
  979TIP3   OH224427   2.905   4.845  16.061  0.9437  0.3976  0.5756
  979TIP3    H124428   2.981   4.821  16.114  0.4759 -0.5016  0.8440
  979TIP3    H224429   2.912   4.790  15.983  1.9155  2.0856 -0.5540
  980TIP3   OH224430   6.558   3.830   5.103  0.3625 -0.6561 -0.2283
  980TIP3    H124431   6.502   3.797   5.173  0.7797 -0.3200  0.2649
  980TIP3    H224432   6.646   3.802   5.128  0.5901 -0.0057 -0.3029
  981TIP3   OH224433   1.233   4.454  16.336 -0.1003 -0.4104  0.1709
  981TIP3    H124434   1.304   4.518  16.340 -0.2533 -0.1909 -0.5962
  981TIP3    H224435   1.240   4.406  16.419  0.1130  0.4800  0.6786
  982TIP3   OH224436   5.810   6.686   5.597 -0.0555 -0.3177  0.1025
  982TIP3    H124437   5.887   6.727   5.636  0.3500 -1.3099  0.3607
  982TIP3    H224438   5.746   6.683   5.669 -0.4962  0.8595 -0.2140
  983TIP3   OH224439   1.874   6.008   4.216  0.1491  0.2045  0.0228
  983TIP3    H124440   1.787   6.007   4.175 -0.2548 -1.7094  0.8561
  983TIP3    H224441   1.894   6.101   4.229 -0.4058  0.8142 -3.0041
  984TIP3   OH224442   2.945   1.681   1.750  0.3023  0.2368  0.0052
  984TIP3    H124443   3.019   1.627   1.778 -0.1009  0.3917  1.4174
  984TIP3    H224444   2.873   1.655   1.807 -0.1102  1.7075  0.1809
  985TIP3   OH224445   4.912   3.607   1.266  0.0180  0.2675 -0.2013
  985TIP3    H124446   4.849   3.536   1.249  0.2226  0.1234 -0.3699
  985TIP3    H224447   4.979   3.595   1.198 -1.7971  2.8284 -2.5221
  986TIP3   OH224448   1.440   4.967   5.647  0.0865 -0.7713  0.1490
  986TIP3    H124449   1.481   4.926   5.724 -0.5129 -0.7746  0.4636
  986TIP3    H224450   1.348   4.943   5.653 -0.4297  1.3300  0.7838
  987TIP3   OH224451   5.584   3.292   2.259 -0.1036 -0.1412  0.2921
  987TIP3    H124452   5.511   3.283   2.320 -0.4867  0.6477 -0.0503
  987TIP3    H224453   5.566   3.372   2.211 -0.8890 -1.8070 -2.3090
  988TIP3   OH224454   2.478   2.656  16.611  0.5603 -0.2376  0.1977
  988TIP3    H124455   2.542   2.585  16.611  1.2634  0.3645  1.9041
  988TIP3    H224456   2.519   2.726  16.662 -1.1705  0.4196  0.7333
  989TIP3   OH224457   3.287   5.805   2.974 -0.4463  0.4418  0.3262
  989TIP3    H124458   3.284   5.855   2.892 -1.9210  0.0406  0.1343
  989TIP3    H224459   3.373   5.826   3.011 -0.6597  2.3813 -0.2154
  990TIP3   OH224460   5.124   2.979  16.751 -0.4679  1.2407 -0.4588
  990TIP3    H124461   5.091   2.995  16.663 -0.7909  0.6561 -0.4493
  990TIP3    H224462   5.048   2.990  16.808 -0.6301  0.0563 -0.4213
  991TIP3   OH224463   3.523   5.352  12.016 -0.5187 -0.1330 -0.4251
  991TIP3    H124464   3.606   5.308  12.037 -0.8787 -0.0283  1.3335
  991TIP3    H224465   3.549   5.431  11.969  0.5123  0.7452  1.5646
  992TIP3   OH224466   5.506   5.661  14.979  0.4331 -0.0560  0.1446
  992TIP3    H124467   5.420   5.702  14.964  1.2117  1.0403 -1.4191
  992TIP3    H224468   5.517   5.602  14.905  0.7210 -0.7347  0.7286
  993TIP3   OH224469   0.503   4.338   3.413  0.2211  0.5761  0.5620
  993TIP3    H124470   0.434   4.389   3.455  1.2476  2.0801  0.4732
  993TIP3    H224471   0.512   4.260   3.467 -1.3226  0.4997  0.7479
  994TIP3   OH224472   5.381   3.880   5.917  0.3470  0.4299  0.2549
  994TIP3    H124473   5.372   3.924   5.833  1.4294  1.6186  0.7485
  994TIP3    H224474   5.293   3.849   5.937  0.0181  0.4325 -1.1531
  995TIP3   OH224475   2.925   4.607  16.863 -0.2213  0.3704 -0.5463
  995TIP3    H124476   2.894   4.652  16.942  0.0835 -0.7357  0.2295
  995TIP3    H224477   2.907   4.514  16.881  1.6307 -0.0834 -0.9486
  996TIP3   OH224478   5.935   1.955  12.483 -0.0119  0.1245 -1.0123
  996TIP3    H124479   5.987   2.034  12.497  2.5856 -1.6529 -0.3141
  996TIP3    H224480   5.956   1.927  12.394  0.8640 -1.0194 -0.4660
  997TIP3   OH224481   3.685   4.783  13.620  0.2051  0.1308  0.0568
  997TIP3    H124482   3.752   4.732  13.576 -0.9301 -0.4126 -1.0732
  997TIP3    H224483   3.727   4.867  13.640  1.3134 -0.3402 -0.3079
  998TIP3   OH224484   3.996   1.195  14.032 -0.0457 -0.7850 -0.1566
  998TIP3    H124485   3.952   1.222  14.112 -0.0727 -1.1005 -0.0643
  998TIP3    H224486   4.089   1.193  14.056 -0.0020 -0.3657 -0.2812
  999TIP3   OH224487   4.348   6.144   5.470  0.0702 -0.0369  0.8871
  999TIP3    H124488   4.327   6.071   5.528 -1.5782 -0.3735 -0.1131
  999TIP3    H224489   4.377   6.214   5.530 -0.4080 -0.7880  2.0154
 1000TIP3   OH224490   5.252   3.368  12.742  0.0589 -0.5627  1.2323
 1000TIP3    H124491   5.324   3.391  12.800  0.4832 -1.7391  1.1952
 1000TIP3    H224492   5.289   3.375  12.654 -0.5501  1.1031  1.0814
 1001TIP3   OH224493   6.427   3.531  11.880 -0.2074  0.2373 -0.5099
 1001TIP3    H124494   6.414   3.625  11.868 -0.4701  0.2979  0.2646
 1001TIP3    H224495   6.345   3.492  11.852  0.5357  0.0906 -2.6102
 1002TIP3   OH224496   3.568   4.812  14.142 -0.2706 -0.4239 -0.4537
 1002TIP3    H124497   3.654   4.773  14.128  0.0751  0.7343 -1.6879
 1002TIP3    H224498   3.585   4.897  14.181 -0.6868  0.8656 -2.9703
 1003TIP3   OH224499   3.342   4.360  15.495  0.2976 -0.2577 -0.1503
 1003TIP3    H124500   3.251   4.388  15.485 -0.0250 -1.2356 -0.0019
 1003TIP3    H224501   3.362   4.316  15.412  0.3377 -0.8602  0.1781
 1004TIP3   OH224502   1.193   1.345  16.944  0.5323 -0.5647 -0.6261
 1004TIP3    H124503   1.241   1.290  16.881 -0.5325 -0.8869 -1.1628
 1004TIP3    H224504   1.125   1.288  16.978 -0.4949  0.3772 -1.0765
 1005TIP3   OH224505   4.788   5.752  16.325  0.0443 -0.2363  0.3634
 1005TIP3    H124506   4.712   5.721  16.277 -1.2618  2.9020  0.2939
 1005TIP3    H224507   4.848   5.785  16.258 -0.7149  1.8603  0.6764
 1006TIP3   OH224508   0.303   0.954  15.836  0.1419  0.4626  0.5878
 1006TIP3    H124509   0.254   0.879  15.869 -0.1901  0.4507  0.0685
 1006TIP3    H224510   0.256   1.030  15.869  0.8925  0.4519  1.7311
 1007TIP3   OH224511   2.024   5.476   4.131 -0.0628  0.1752  0.3723
 1007TIP3    H124512   2.052   5.563   4.103  1.8321 -1.3776 -2.8549
 1007TIP3    H224513   1.963   5.447   4.063 -1.5131 -0.6420  1.9732
 1008TIP3   OH224514   1.394   3.379   1.334 -0.1432 -0.0877  0.0502
 1008TIP3    H124515   1.452   3.373   1.410 -0.7747 -3.1431  0.3477
 1008TIP3    H224516   1.312   3.340   1.364 -2.2692  3.7252 -0.5218
 1009TIP3   OH224517   3.839   3.468  16.072  0.2188  0.4674 -0.1981
 1009TIP3    H124518   3.924   3.433  16.097  0.4223  2.1273  1.4928
 1009TIP3    H224519   3.859   3.552  16.031 -0.4921  0.0208 -1.4931
 1010TIP3   OH224520   1.642   4.537  12.485  0.3931  1.2045 -0.5041
 1010TIP3    H124521   1.613   4.597  12.416  2.5709  1.4534 -1.2656
 1010TIP3    H224522   1.720   4.495  12.448  0.9232  0.5056  1.3685
 1011TIP3   OH224523   4.311   2.147  12.605  0.0947  0.0966 -0.0961
 1011TIP3    H124524   4.326   2.078  12.670 -0.3667  0.5186  0.4783
 1011TIP3    H224525   4.320   2.104  12.521  0.9629 -0.4076  0.2533
 1012TIP3   OH224526   1.056   1.148  10.756 -0.6343  0.1790 -0.1070
 1012TIP3    H124527   1.146   1.115  10.763 -1.0884 -0.7365  1.8375
 1012TIP3    H224528   1.022   1.109  10.676  0.8316  0.8854 -1.0975
 1013TIP3   OH224529   5.941   6.439  12.537 -0.1750  0.3734  0.1049
 1013TIP3    H124530   6.032   6.461  12.560  0.4198 -0.4618 -1.3431
 1013TIP3    H224531   5.944   6.422  12.443 -1.1360 -3.1045  0.6181
 1014TIP3   OH224532   3.320   6.057   4.974 -0.0313  0.0550 -0.4565
 1014TIP3    H124533   3.403   6.034   4.932 -0.8297  0.1810 -2.1240
 1014TIP3    H224534   3.268   5.977   4.971 -0.3734  0.2741 -0.3488
 1015TIP3   OH224535   5.696   6.254  11.649  0.1836 -0.1098 -0.1346
 1015TIP3    H124536   5.687   6.198  11.727  0.8649  1.2527  0.9399
 1015TIP3    H224537   5.607   6.265  11.617 -0.0951 -0.7373  0.4226
 1016TIP3   OH224538   3.532   1.181   1.173 -0.2029 -0.1887 -0.2604
 1016TIP3    H124539   3.607   1.124   1.158 -0.7284 -0.5762 -1.4590
 1016TIP3    H224540   3.486   1.184   1.089 -0.5531  1.4696 -0.0329
 1017TIP3   OH224541   5.495   1.153   4.406 -0.5985 -0.6400  0.1281
 1017TIP3    H124542   5.572   1.098   4.397 -1.5038 -1.8230 -0.5046
 1017TIP3    H224543   5.518   1.235   4.362  2.0128  0.8546  4.0405
 1018TIP3   OH224544   5.351   5.279  13.474  0.6026  0.4033 -0.2880
 1018TIP3    H124545   5.300   5.213  13.426 -2.2278  1.1341  1.5904
 1018TIP3    H224546   5.399   5.229  13.540  1.3736 -0.1639 -1.2671
 1019TIP3   OH224547   1.423   2.143   0.398 -0.1076  0.7578  0.1755
 1019TIP3    H124548   1.350   2.101   0.443 -0.0419 -1.0267 -1.2921
 1019TIP3    H224549   1.482   2.170   0.468 -1.3659  0.6778  1.2901
 1020TIP3   OH224550   2.893   4.678   0.709 -0.1816 -0.0897  0.0221
 1020TIP3    H124551   2.859   4.653   0.623  0.3622 -1.9294  0.3074
 1020TIP3    H224552   2.934   4.598   0.742  1.0871  1.0495  1.2796
 1021TIP3   OH224553   3.637   4.130   2.020  0.9738 -0.5110  0.1646
 1021TIP3    H124554   3.655   4.153   1.929  2.5941 -1.8799  0.1197
 1021TIP3    H224555   3.657   4.209   2.069  0.3257  0.1620 -0.6351
 1022TIP3   OH224556   6.806   4.385  11.802  0.1463  0.0257 -0.3172
 1022TIP3    H124557   6.751   4.355  11.874  2.2794 -1.4538  0.7357
 1022TIP3    H224558   6.819   4.307  11.748 -0.0269  0.7316 -1.3907
 1023TIP3   OH224559   2.258   0.544   4.407 -0.1654  0.5779  0.6302
 1023TIP3    H124560   2.269   0.458   4.367  0.6503  1.8348 -1.9380
 1023TIP3    H224561   2.163   0.560   4.404 -0.2841 -0.0568  0.8269
 1024TIP3   OH224562   4.418   5.593   4.198  0.2651 -0.8490 -0.2173
 1024TIP3    H124563   4.467   5.580   4.280 -3.4249 -2.7851  1.7771
 1024TIP3    H224564   4.417   5.687   4.186 -0.9175 -0.3515  3.1741
 1025TIP3   OH224565   0.105   2.879  11.815  0.0072  0.3256  0.0123
 1025TIP3    H124566   0.025   2.931  11.825 -1.1040 -1.1282 -1.0683
 1025TIP3    H224567   0.144   2.909  11.734 -0.4352 -0.2406 -0.4164
 1026TIP3   OH224568   4.909   5.512  15.782 -0.3225 -0.0580  0.3852
 1026TIP3    H124569   4.967   5.509  15.857  0.4836  2.3570 -0.1073
 1026TIP3    H224570   4.854   5.434  15.791  0.3706 -0.2827  2.9587
 1027TIP3   OH224571   1.729   4.706  11.286 -0.2990 -0.3766 -0.1654
 1027TIP3    H124572   1.692   4.789  11.315 -0.1352 -0.3297 -0.0910
 1027TIP3    H224573   1.712   4.646  11.359  1.5365  0.1317  0.7381
 1028TIP3   OH224574   1.570   2.373  15.090 -0.3136 -0.0720  0.1612
 1028TIP3    H124575   1.485   2.404  15.122 -0.9087 -0.4122 -1.0343
 1028TIP3    H224576   1.550   2.332  15.006  1.0854  0.1508 -0.2989
 1029TIP3   OH224577   3.541   4.429   2.807  0.4049  0.5734  0.3015
 1029TIP3    H124578   3.485   4.413   2.731  2.1571  1.1966 -1.1627
 1029TIP3    H224579   3.498   4.501   2.854 -0.9618 -0.1618  0.2035
 1030TIP3   OH224580   3.894   6.151   0.435  0.0518 -0.7137  0.2110
 1030TIP3    H124581   3.841   6.110   0.503 -0.4347  1.2770  1.0952
 1030TIP3    H224582   3.973   6.180   0.482 -0.4146  0.9252  0.0148
 1031TIP3   OH224583   6.027   3.253   5.114 -0.0227 -0.4278  0.1588
 1031TIP3    H124584   5.979   3.176   5.145  0.4314 -0.5828  0.4819
 1031TIP3    H224585   6.012   3.319   5.182 -0.6427 -0.1344 -0.2526
 1032TIP3   OH224586   1.211   6.485  14.305 -0.5956  0.0972 -0.5071
 1032TIP3    H124587   1.151   6.418  14.272 -0.9735 -0.1517  0.6337
 1032TIP3    H224588   1.278   6.435  14.354 -0.2333  0.4687 -0.6197
 1033TIP3   OH224589   2.246   4.791   5.562 -0.2736 -0.0875 -0.2311
 1033TIP3    H124590   2.245   4.738   5.483 -0.4928  0.3090 -0.4909
 1033TIP3    H224591   2.226   4.880   5.533  2.3718  0.5905 -0.1330
 1034TIP3   OH224592   0.036   3.616   5.849 -0.3618 -0.3411 -0.0675
 1034TIP3    H124593   0.047   3.703   5.888  0.3843 -1.6941  2.8505
 1034TIP3    H224594   0.125   3.589   5.826 -0.8899  0.9279 -3.9810
 1035TIP3   OH224595   1.903   1.159   3.640 -0.0624  0.5659 -0.1577
 1035TIP3    H124596   1.871   1.116   3.561 -0.9740  2.2363 -0.7140
 1035TIP3    H224597   1.997   1.171   3.625 -0.2137  0.7827 -0.9409
 1036TIP3   OH224598   1.737   0.338   0.120  0.5519 -0.3745  0.4044
 1036TIP3    H124599   1.719   0.279   0.193  0.6707 -0.5284  0.3108
 1036TIP3    H224600   1.710   0.425   0.151 -1.2774 -0.7485 -0.0946
 1037TIP3   OH224601   1.481   5.685   3.283  0.3390  0.3532  0.1792
 1037TIP3    H124602   1.470   5.673   3.377  0.3526  0.0357  0.1406
 1037TIP3    H224603   1.445   5.605   3.244 -0.7295  0.9669 -0.1445
 1038TIP3   OH224604   4.094   1.056   0.524  0.2579 -0.4390  0.5285
 1038TIP3    H124605   4.181   1.072   0.489  0.4541  0.3560  1.3404
 1038TIP3    H224606   4.040   1.035   0.448  0.4945  1.9812 -0.3574
 1039TIP3   OH224607   3.304   0.997  14.617  0.0923  0.5168  0.1308
 1039TIP3    H124608   3.372   0.961  14.561  0.3748  0.9920  0.1641
 1039TIP3    H224609   3.349   1.063  14.671 -0.3227  0.5920  0.3915
 1040TIP3   OH224610   0.204   0.449   3.636  0.4046  0.2596 -0.2465
 1040TIP3    H124611   0.228   0.420   3.549 -0.3357 -0.8195 -0.1001
 1040TIP3    H224612   0.128   0.506   3.622  0.0956 -0.1576 -0.2871
 1041TIP3   OH224613   3.739   4.810   2.605  0.0334 -0.1886 -0.3953
 1041TIP3    H124614   3.695   4.856   2.533  1.3274  0.4132 -0.8195
 1041TIP3    H224615   3.827   4.847   2.606  0.2822 -0.8069  0.9615
 1042TIP3   OH224616   3.642   1.629  13.225 -0.0421 -0.1433  0.0214
 1042TIP3    H124617   3.567   1.603  13.171  0.5875 -1.6531 -0.1520
 1042TIP3    H224618   3.623   1.720  13.250 -1.5938 -0.2848 -0.5740
 1043TIP3   OH224619   3.155   1.902  11.612 -0.2722 -0.0048  0.5905
 1043TIP3    H124620   3.237   1.879  11.654 -1.0448 -0.0089  2.1501
 1043TIP3    H224621   3.178   1.922  11.522  1.6403  1.2599  1.3372
 1044TIP3   OH224622   3.820   4.672   1.840 -0.5021  0.2773 -0.2389
 1044TIP3    H124623   3.807   4.694   1.933  2.8932  0.6452  0.2106
 1044TIP3    H224624   3.842   4.579   1.841  0.1074  0.4194 -0.6137
 1045TIP3   OH224625   6.128   5.142  13.106 -0.0979  0.0425  0.0653
 1045TIP3    H124626   6.057   5.093  13.146 -0.8205  2.0894  1.3484
 1045TIP3    H224627   6.103   5.149  13.014  0.1873 -2.2545 -0.2110
 1046TIP3   OH224628   4.407   1.727   5.900 -0.5385  0.1319  0.3034
 1046TIP3    H124629   4.408   1.793   5.970 -1.1488  1.9112 -1.3289
 1046TIP3    H224630   4.314   1.703   5.891 -0.6109  0.7489 -0.6523
 1047TIP3   OH224631   3.329   1.149   4.606  0.7690  0.1202  0.0453
 1047TIP3    H124632   3.382   1.213   4.654 -1.4603  0.7908  1.6603
 1047TIP3    H224633   3.356   1.064   4.642  1.9162  0.3097 -0.3285
 1048TIP3   OH224634   5.988   6.590  16.130 -0.1645 -0.1125  0.7229
 1048TIP3    H124635   5.979   6.524  16.199  0.9932  0.0060  1.0075
 1048TIP3    H224636   6.079   6.619  16.137  1.2352 -3.1115 -3.6243
 1049TIP3   OH224637   0.746   6.394   4.986 -0.4444 -0.4608 -0.0689
 1049TIP3    H124638   0.765   6.440   4.904 -1.6568 -0.0623 -0.1403
 1049TIP3    H224639   0.822   6.338   5.000 -0.8976 -1.6880 -2.2616
 1050TIP3   OH224640   0.153   1.248   2.521  0.0904 -0.6710  0.1843
 1050TIP3    H124641   0.248   1.260   2.530 -0.0261 -0.1701  0.7297
 1050TIP3    H224642   0.119   1.260   2.609 -0.4309 -1.3534  0.0814
 1051TIP3   OH224643   1.711   4.807  16.293  0.4822  0.5708  0.2930
 1051TIP3    H124644   1.738   4.847  16.211  1.0379 -0.5936 -0.1099
 1051TIP3    H224645   1.746   4.718  16.289 -2.4119 -0.6235  0.2451
 1052TIP3   OH224646   2.047   3.481  11.267 -0.4774 -0.4748  0.3712
 1052TIP3    H124647   2.139   3.481  11.293 -0.6907  0.2567  1.1226
 1052TIP3    H224648   2.014   3.567  11.293 -1.6185 -1.0809  0.9624
 1053TIP3   OH224649   2.062   1.834   1.578  0.0981  0.1300  0.0949
 1053TIP3    H124650   2.127   1.778   1.620 -0.7719 -0.2728  0.9187
 1053TIP3    H224651   2.111   1.912   1.552  0.7711  0.1013  1.2724
 1054TIP3   OH224652   0.317   4.452   0.640 -0.0372 -0.6424  0.3734
 1054TIP3    H124653   0.302   4.538   0.600  2.6469  0.3394  1.3887
 1054TIP3    H224654   0.365   4.402   0.574  2.1166  0.0975  1.3566
 1055TIP3   OH224655   6.205   2.684  14.843  0.2664  0.6108  0.0572
 1055TIP3    H124656   6.185   2.711  14.754 -2.2110  0.0290  0.3880
 1055TIP3    H224657   6.131   2.629  14.869  0.9230  0.7754  2.4740
 1056TIP3   OH224658   1.761   4.558  16.109 -0.1107 -0.2276  0.2201
 1056TIP3    H124659   1.829   4.591  16.168 -0.0747  0.3139 -0.1198
 1056TIP3    H224660   1.810   4.521  16.035 -0.2193  2.0412 -1.0171
 1057TIP3   OH224661   0.687   0.659   5.647 -0.2280 -0.1144 -0.2528
 1057TIP3    H124662   0.628   0.727   5.618  0.7560  1.4497  1.3014
 1057TIP3    H224663   0.632   0.599   5.698 -0.9597 -0.1118 -1.0373
 1058TIP3   OH224664   0.229   5.316  10.194  0.0338 -0.1234 -0.4230
 1058TIP3    H124665   0.314   5.286  10.225  0.1693 -0.5247 -1.1963
 1058TIP3    H224666   0.249   5.391  10.138 -0.0468 -0.8432 -1.4236
 1059TIP3   OH224667   2.236   3.781  14.886  1.0122 -0.1625  0.6679
 1059TIP3    H124668   2.266   3.792  14.976  0.6510  0.5451  0.7048
 1059TIP3    H224669   2.181   3.703  14.889 -1.4770  1.5522  1.7078
 1060TIP3   OH224670   2.529   4.061   3.860 -0.3685 -0.3303  0.1072
 1060TIP3    H124671   2.573   4.144   3.879  0.0268 -0.7753  1.1781
 1060TIP3    H224672   2.469   4.050   3.933  2.0046 -2.6587  1.7852
 1061TIP3   OH224673   4.792   0.143  15.910 -0.1619  0.3540 -0.6635
 1061TIP3    H124674   4.856   0.206  15.878  0.4729 -0.6294 -1.3512
 1061TIP3    H224675   4.842   0.084  15.967 -0.6411  0.1269 -0.4708
 1062TIP3   OH224676   5.579   1.762  11.494 -0.0831 -0.3279 -0.2929
 1062TIP3    H124677   5.554   1.675  11.461 -3.0126 -0.1623  1.3024
 1062TIP3    H224678   5.571   1.755  11.589  3.8936  0.4846  0.1728
 1063TIP3   OH224679   4.999   4.745  11.792  0.3609 -0.0760  0.6483
 1063TIP3    H124680   4.954   4.820  11.830 -0.3458 -0.0833 -0.1553
 1063TIP3    H224681   4.965   4.739  11.703  0.0111 -1.6712  0.8654
 1064TIP3   OH224682   2.192   1.964   0.150 -0.4096  0.2472  0.4499
 1064TIP3    H124683   2.205   2.030   0.082 -2.4104 -0.6483 -0.8348
 1064TIP3    H224684   2.118   1.997   0.201 -0.8284 -0.5402  0.3587
 1065TIP3   OH224685   6.335   1.243  11.624  0.0506  0.4549 -0.3018
 1065TIP3    H124686   6.416   1.289  11.647 -0.0931  0.8955 -0.6648
 1065TIP3    H224687   6.265   1.306  11.643 -0.0940  0.7126 -1.6296
 1066TIP3   OH224688   2.705   5.868  15.453 -0.2486  0.0553  0.1774
 1066TIP3    H124689   2.728   5.789  15.404  1.0657  1.3201 -1.3000
 1066TIP3    H224690   2.785   5.921  15.451 -0.6572  0.8061  2.3827
 1067TIP3   OH224691   1.669   5.175  14.467  0.2971  0.7175  0.5969
 1067TIP3    H124692   1.635   5.257  14.502 -1.3024  0.4972 -0.4108
 1067TIP3    H224693   1.759   5.171  14.500 -0.7086  1.1644  3.5873
 1068TIP3   OH224694   1.500   3.748  17.110  1.1872  0.1827 -0.0333
 1068TIP3    H124695   1.429   3.807  17.084 -1.0646 -2.4671 -0.1003
 1068TIP3    H224696   1.543   3.725  17.027  0.5173 -0.1680 -0.2933
 1069TIP3   OH224697   0.780   3.736   2.368 -0.0012  0.3271 -0.4957
 1069TIP3    H124698   0.850   3.707   2.309  0.0370  0.5902 -0.5823
 1069TIP3    H224699   0.822   3.801   2.424 -0.3308  0.9445 -0.9624
 1070TIP3   OH224700   6.736   3.399  11.216 -0.3193  0.3533 -0.5800
 1070TIP3    H124701   6.663   3.375  11.159 -0.5364  0.1486 -0.2208
 1070TIP3    H224702   6.706   3.477  11.261 -1.0766 -0.7958  0.9585
 1071TIP3   OH224703   1.840   2.064  12.258  0.1997 -0.5344 -0.0706
 1071TIP3    H124704   1.925   2.028  12.284  0.5718  0.6978  0.4517
 1071TIP3    H224705   1.859   2.118  12.182 -0.3833 -1.5247 -0.9380
 1072TIP3   OH224706   3.351   2.681   3.767 -0.3085  0.3308 -0.5209
 1072TIP3    H124707   3.323   2.590   3.774 -0.3979  0.3656 -0.4301
 1072TIP3    H224708   3.312   2.711   3.684  0.9629 -0.1527 -1.3059
 1073TIP3   OH224709   5.281   6.399   4.390  0.4055 -0.5035  0.4724
 1073TIP3    H124710   5.319   6.467   4.333 -0.6244  0.3504  0.8004
 1073TIP3    H224711   5.222   6.446   4.448 -0.7319 -1.7480  0.3566
 1074TIP3   OH224712   2.078   2.722   5.645  0.0344 -0.0016  0.1213
 1074TIP3    H124713   2.103   2.642   5.600  0.2639  0.1123  0.0425
 1074TIP3    H224714   2.120   2.792   5.594 -1.1064  0.2563 -0.4845
 1075TIP3   OH224715   6.260   1.724  12.878  0.5797 -0.1729  0.0831
 1075TIP3    H124716   6.329   1.751  12.818 -0.6643  0.3960 -1.0986
 1075TIP3    H224717   6.179   1.732  12.828 -0.4394 -0.0894  1.7028
 1076TIP3   OH224718   1.077   4.219  10.421 -0.0281  0.0597 -0.1056
 1076TIP3    H124719   1.041   4.276  10.353 -0.2395  0.2009  0.1239
 1076TIP3    H224720   1.114   4.279  10.486  2.4688 -0.1168 -1.3357
 1077TIP3   OH224721   5.064   1.271  12.649 -0.6632  0.0626 -0.5486
 1077TIP3    H124722   5.078   1.298  12.558 -1.4992  1.0398 -0.3978
 1077TIP3    H224723   5.147   1.232  12.676 -0.7997 -1.3489 -2.1109
 1078TIP3   OH224724   0.947   1.464   1.670  0.0581  0.4971  0.1910
 1078TIP3    H124725   0.905   1.490   1.752  0.8823 -0.9575  1.1216
 1078TIP3    H224726   1.011   1.397   1.697 -1.9548 -2.4612 -2.0045
 1079TIP3   OH224727   4.084   2.039   1.712  0.7887 -0.2637 -0.2424
 1079TIP3    H124728   3.993   2.064   1.731  1.4034  1.2871  0.7949
 1079TIP3    H224729   4.087   1.945   1.725 -0.9501 -0.5089 -1.4368
 1080TIP3   OH224730   2.932   4.150  12.200 -0.1747  0.5805  0.5738
 1080TIP3    H124731   2.836   4.157  12.194 -0.1457  0.2153 -0.4738
 1080TIP3    H224732   2.947   4.060  12.230 -0.1247 -0.0123 -1.1406
 1081TIP3   OH224733   4.627   3.254   4.802  0.2642 -0.1987  0.3212
 1081TIP3    H124734   4.586   3.197   4.867  0.1016  0.2231  0.5888
 1081TIP3    H224735   4.580   3.337   4.809 -2.1971 -1.2085 -2.8356
 1082TIP3   OH224736   2.641   4.839   6.241  0.4623 -0.1574 -0.3970
 1082TIP3    H124737   2.624   4.923   6.284 -0.2082 -0.4327 -0.1158
 1082TIP3    H224738   2.627   4.774   6.310 -3.5295 -0.8286 -1.6985
 1083TIP3   OH224739   4.894   1.228  12.881  0.3019  0.2933 -0.3511
 1083TIP3    H124740   4.805   1.236  12.846 -0.1382  1.2663  0.9603
 1083TIP3    H224741   4.950   1.258  12.810 -0.5856  2.2502 -0.2627
 1084TIP3   OH224742   0.750   5.358   1.109  0.9940  0.4915  0.5117
 1084TIP3    H124743   0.736   5.281   1.054  1.6564 -0.8124  2.1340
 1084TIP3    H224744   0.687   5.348   1.181 -0.0122  2.2849 -0.0744
 1085TIP3   OH224745   4.984   1.259  16.062 -0.0768 -0.3530  0.8057
 1085TIP3    H124746   5.018   1.331  16.008 -2.6213 -0.1686 -0.6326
 1085TIP3    H224747   4.970   1.297  16.148  0.5669  0.2994  0.6275
 1086TIP3   OH224748   6.587   5.217  10.721  0.7600 -0.3558  0.1301
 1086TIP3    H124749   6.664   5.223  10.665 -0.4948 -0.4451 -1.6731
 1086TIP3    H224750   6.518   5.185  10.662 -0.9200  0.8610  1.4115
 1087TIP3   OH224751   1.859   1.712  12.980  0.2003  0.1823  0.6053
 1087TIP3    H124752   1.807   1.785  12.947  1.1985  1.2373  1.3354
 1087TIP3    H224753   1.807   1.677  13.053  0.4148  1.0981  1.2000
 1088TIP3   OH224754   2.432   1.282  15.638 -0.1691  0.2841 -0.1888
 1088TIP3    H124755   2.339   1.261  15.633 -0.6681  1.6343  2.4690
 1088TIP3    H224756   2.447   1.344  15.566 -1.4438  0.4905 -0.2773
 1089TIP3   OH224757   1.970   2.181  13.485 -0.5623 -0.1075 -0.1978
 1089TIP3    H124758   1.988   2.178  13.579 -0.5900  0.2379 -0.1786
 1089TIP3    H224759   1.945   2.272  13.469 -0.6635 -0.1919 -0.5202
 1090TIP3   OH224760   4.862   4.414  16.963  0.6422  0.1830  0.1578
 1090TIP3    H124761   4.866   4.487  17.025 -0.2395 -0.8748  1.4985
 1090TIP3    H224762   4.926   4.351  16.996  0.7094 -0.0578 -0.4387
 1091TIP3   OH224763   2.929   5.426   4.092  0.2789 -0.3970 -0.4007
 1091TIP3    H124764   2.873   5.394   4.021 -0.5672 -1.0680  0.5621
 1091TIP3    H224765   2.873   5.422   4.170  0.8265  1.4118  0.1181
 1092TIP3   OH224766   4.921   5.092  13.658 -0.5582 -0.4722 -0.0446
 1092TIP3    H124767   4.949   5.034  13.729  1.4787  0.1680 -0.2874
 1092TIP3    H224768   4.828   5.106  13.674 -0.6879 -2.4042  1.0158
 1093TIP3   OH224769   2.216   5.421   0.588  0.2245  0.3856 -0.2274
 1093TIP3    H124770   2.283   5.353   0.586  0.0011  0.1328  0.7020
 1093TIP3    H224771   2.153   5.395   0.520  0.2929 -0.1793 -0.0765
 1094TIP3   OH224772   0.927   1.172  12.684 -0.0511 -0.1272  0.2258
 1094TIP3    H124773   0.941   1.095  12.628 -0.2513  0.2441 -0.3267
 1094TIP3    H224774   0.859   1.144  12.746 -0.6414 -0.1429 -0.4357
 1095TIP3   OH224775   3.228   6.060   2.287 -0.4378 -0.7433  0.1337
 1095TIP3    H124776   3.197   6.138   2.334  1.1758 -0.4348  0.7264
 1095TIP3    H224777   3.155   6.035   2.231 -1.0738  1.0638  0.1152
 1096TIP3   OH224778   5.142   2.174  12.137 -0.0701 -0.3172  0.0119
 1096TIP3    H124779   5.133   2.269  12.149 -1.0598 -0.4556  0.4590
 1096TIP3    H224780   5.099   2.137  12.214  1.5556 -1.1164  0.5315
 1097TIP3   OH224781   0.952   0.577  14.939 -0.6280 -0.0821  0.1609
 1097TIP3    H124782   0.927   0.494  14.978 -2.0789 -0.2529 -1.0562
 1097TIP3    H224783   0.944   0.641  15.010  2.8591 -1.3049  1.7522
 1098TIP3   OH224784   6.174   1.902   4.468  0.4063 -0.7124  0.1291
 1098TIP3    H124785   6.146   1.918   4.558  0.6198 -1.2386  0.2901
 1098TIP3    H224786   6.156   1.985   4.422 -2.1663 -1.2917  0.0401
 1099TIP3   OH224787   2.619   2.293  11.622 -0.2435  0.0756  0.2730
 1099TIP3    H124788   2.574   2.239  11.686 -1.0629  1.0336  0.5120
 1099TIP3    H224789   2.701   2.319  11.666  0.0473 -0.7646  0.2399
 1100TIP3   OH224790   2.504   3.155  14.120  0.1423 -1.0901  0.0893
 1100TIP3    H124791   2.519   3.103  14.041 -1.3484 -1.3874 -0.0217
 1100TIP3    H224792   2.442   3.103  14.171 -1.4167  0.5555 -0.0387
 1101TIP3   OH224793   0.274   5.739   3.904  0.0884  0.2714  0.3432
 1101TIP3    H124794   0.315   5.733   3.990  0.7111 -2.1998 -0.0835
 1101TIP3    H224795   0.197   5.682   3.910  1.2296 -1.5314 -1.2867
 1102TIP3   OH224796   3.076   3.633   3.252 -0.0772 -0.1664 -0.3863
 1102TIP3    H124797   3.069   3.697   3.182 -1.2137  1.2982  1.0401
 1102TIP3    H224798   3.012   3.661   3.317 -0.3462 -2.5445  0.4276
 1103TIP3   OH224799   2.117   5.198  16.233 -0.1486  0.4476  0.0410
 1103TIP3    H124800   2.100   5.104  16.243 -0.0533  0.3497 -0.7068
 1103TIP3    H224801   2.032   5.236  16.213  0.1800  0.2107 -1.8655
 1104TIP3   OH224802   5.588   2.680  14.896  0.3043 -0.2088 -0.1719
 1104TIP3    H124803   5.581   2.618  14.969 -2.5522  0.8206  0.4906
 1104TIP3    H224804   5.545   2.759  14.928 -0.5121  0.4587 -2.8151
 1105TIP3   OH224805   6.376   0.872  16.075 -0.4931  0.2611 -0.2396
 1105TIP3    H124806   6.320   0.946  16.052 -1.7374 -1.0920 -1.7877
 1105TIP3    H224807   6.436   0.863  16.001 -0.9787 -0.8216 -0.5264
 1106TIP3   OH224808   0.798   5.107  11.571  0.1231 -0.1443  0.6291
 1106TIP3    H124809   0.770   5.194  11.598 -0.2077 -0.4552  1.2917
 1106TIP3    H224810   0.754   5.047  11.631 -0.0411 -0.7994 -0.1279
 1107TIP3   OH224811   2.611   2.855  12.303 -0.4112  0.2505  0.1502
 1107TIP3    H124812   2.547   2.849  12.232 -0.3388 -0.9483  0.1758
 1107TIP3    H224813   2.670   2.781  12.289  0.2934  0.6828  0.7932
 1108TIP3   OH224814   2.836   2.979   5.288  0.5592 -0.4072  0.1646
 1108TIP3    H124815   2.910   2.997   5.229 -0.6834  1.6584 -0.8296
 1108TIP3    H224816   2.876   2.972   5.374  1.8704  1.3913 -0.2596
 1109TIP3   OH224817   3.156   0.323  17.059  0.5758 -0.5666  0.6006
 1109TIP3    H124818   3.124   0.412  17.051  1.9455 -0.1379 -0.1900
 1109TIP3    H224819   3.219   0.326  17.132 -0.7316 -1.2899  1.7931
 1110TIP3   OH224820   0.964   4.643  16.506 -0.2379  0.5635 -0.1714
 1110TIP3    H124821   1.031   4.596  16.457 -0.8274  0.4452 -0.8707
 1110TIP3    H224822   1.010   4.678  16.582  0.9885  1.9011 -1.5120
 1111TIP3   OH224823   5.866   0.146  13.606 -0.0763  0.4098  0.0761
 1111TIP3    H124824   5.938   0.158  13.545  0.2565  0.5053  0.4887
 1111TIP3    H224825   5.855   0.232  13.647 -0.9551  0.6123 -0.5727
 1112TIP3   OH224826   5.466   5.876  12.188  0.5327  0.6525 -0.2321
 1112TIP3    H124827   5.496   5.924  12.266 -1.1064  1.3133  0.0219
 1112TIP3    H224828   5.478   5.937  12.116  0.5499  0.6236 -0.2541
 1113TIP3   OH224829   3.914   0.790   4.697 -0.3829  0.2713 -0.2947
 1113TIP3    H124830   3.947   0.879   4.709 -2.2262  1.2132 -1.8426
 1113TIP3    H224831   3.887   0.787   4.605 -0.9813 -1.6786 -0.0789
 1114TIP3   OH224832   1.425   5.355   1.194  0.1800 -0.1711 -0.2965
 1114TIP3    H124833   1.489   5.375   1.263  0.7296  1.7969 -1.3450
 1114TIP3    H224834   1.457   5.273   1.156  0.6844 -0.5034  0.7969
 1115TIP3   OH224835   2.705   1.045   6.170  0.5336  0.7075  0.0006
 1115TIP3    H124836   2.778   1.107   6.176  1.7652 -0.8382  1.3422
 1115TIP3    H224837   2.741   0.969   6.125 -0.4300  0.1787  0.1126
 1116TIP3   OH224838   5.276   3.416   6.416  0.0782  0.1512 -0.3348
 1116TIP3    H124839   5.256   3.392   6.326 -1.3179  0.4902 -0.1255
 1116TIP3    H224840   5.292   3.510   6.413 -0.5131  0.2609 -0.1451
 1117TIP3   OH224841   6.068   4.974   3.024 -0.1900 -0.0031 -0.6609
 1117TIP3    H124842   6.064   4.911   2.951  1.2750  1.3164 -1.9306
 1117TIP3    H224843   6.081   4.920   3.102 -2.3312 -1.4825 -1.2803
 1118TIP3   OH224844   1.837   6.367   2.934 -0.2644 -0.4362 -0.0180
 1118TIP3    H124845   1.775   6.399   2.869  0.1333 -1.0234 -0.6904
 1118TIP3    H224846   1.845   6.273   2.917  0.0121 -0.5554  0.7326
 1119TIP3   OH224847   6.443   6.544  16.751  0.3030 -0.8437 -0.0607
 1119TIP3    H124848   6.410   6.469  16.801 -0.3270  1.0961  2.5182
 1119TIP3    H224849   6.369   6.572  16.697  0.0371 -1.0801  0.1848
 1120TIP3   OH224850   2.925   0.322   5.676  0.1397 -0.1758  0.7423
 1120TIP3    H124851   2.912   0.411   5.643  3.0404 -0.1097 -0.3622
 1120TIP3    H224852   2.874   0.267   5.616  3.0574  0.2308 -2.3285
 1121TIP3   OH224853   3.241   3.502  11.198  0.8504  0.2164  0.3142
 1121TIP3    H124854   3.323   3.463  11.168  0.2988 -0.4873 -0.2947
 1121TIP3    H224855   3.217   3.451  11.275  0.9264  0.3691  0.4426
 1122TIP3   OH224856   4.015   3.994   5.635 -0.6564  0.3307  0.1085
 1122TIP3    H124857   4.105   3.965   5.653 -0.8114  0.9596  2.0582
 1122TIP3    H224858   4.025   4.079   5.592 -0.3156  0.0386 -0.3980
 1123TIP3   OH224859   1.828   5.693   4.991  0.0480 -0.2526  0.4262
 1123TIP3    H124860   1.790   5.679   4.904  0.3109 -1.1073  0.4426
 1123TIP3    H224861   1.771   5.644   5.050 -1.0001  1.5355  0.9410
 1124TIP3   OH224862   3.549   5.755  17.188  0.1186 -0.4362  0.2049
 1124TIP3    H124863   3.522   5.683  17.130  2.0100 -0.7519 -0.3246
 1124TIP3    H224864   3.512   5.833  17.148 -1.7811 -1.0700  0.6638
 1125TIP3   OH224865   1.361   6.746   4.832 -0.7218 -0.0755 -0.6217
 1125TIP3    H124866   1.423   6.742   4.759  0.9335 -0.9184  0.8192
 1125TIP3    H224867   1.279   6.775   4.791  0.5823  1.0402 -2.5452
 1126TIP3   OH224868   2.716   2.177  13.746  0.2281  0.3146  0.2447
 1126TIP3    H124869   2.804   2.196  13.714 -0.1447  0.8135 -0.5138
 1126TIP3    H224870   2.699   2.243  13.813  0.2300  0.5582  0.0061
 1127TIP3   OH224871   3.253   4.938   0.118 -0.2013  0.4646  0.4861
 1127TIP3    H124872   3.333   4.976   0.156 -0.3390  0.5381  0.7024
 1127TIP3    H224873   3.270   4.844   0.118  0.6023  0.5969 -1.1064
 1128TIP3   OH224874   2.754   3.013  16.670  0.5163 -0.0490  0.3376
 1128TIP3    H124875   2.827   3.067  16.639  0.8873 -0.9736 -0.4049
 1128TIP3    H224876   2.773   2.925  16.638 -0.4191 -0.5011  0.9942
 1129TIP3   OH224877   0.010   3.417  13.552 -0.2541  0.2788  0.3275
 1129TIP3    H124878   0.038   3.375  13.633 -0.5551 -1.1617 -0.2898
 1129TIP3    H224879  -0.073   3.374  13.531  0.1549  0.1609 -1.0930
 1130TIP3   OH224880   5.861   4.971  17.257 -0.0204  0.1658 -0.3744
 1130TIP3    H124881   5.884   4.931  17.341 -0.0622 -1.0525 -0.9461
 1130TIP3    H224882   5.945   4.991  17.216  0.0372 -1.6058 -1.1663
 1131TIP3   OH224883   2.201   5.022  15.253  0.3476 -0.2983 -0.0339
 1131TIP3    H124884   2.248   5.106  15.258 -1.9227  1.0541 -0.8224
 1131TIP3    H224885   2.182   5.000  15.344 -0.7168  1.0425  0.0901
 1132TIP3   OH224886   4.951   4.806   5.359  0.0145 -0.1193 -0.3191
 1132TIP3    H124887   4.937   4.856   5.439 -0.2036 -0.4950 -0.1177
 1132TIP3    H224888   4.871   4.755   5.349  0.8459 -1.5789  0.3157
 1133TIP3   OH224889   4.931   1.273   0.500 -0.4173  0.0998  0.5509
 1133TIP3    H124890   4.915   1.268   0.594 -1.2992 -0.7404  0.3669
 1133TIP3    H224891   4.994   1.204   0.482 -2.7406 -1.9345  0.0278
 1134TIP3   OH224892   1.972   6.216  13.327  0.6152  0.4192  0.2706
 1134TIP3    H124893   1.881   6.190  13.343  0.6041  1.2975  1.6915
 1134TIP3    H224894   1.985   6.200  13.234 -0.6493 -0.7816  0.2874
 1135TIP3   OH224895   3.754   0.668   5.119  0.5169 -0.1144  0.0849
 1135TIP3    H124896   3.711   0.716   5.190  0.0093 -1.5458  0.7643
 1135TIP3    H224897   3.794   0.593   5.162 -1.8406 -2.3266 -1.4555
 1136TIP3   OH224898   2.640   6.760  13.951  0.3272 -0.1208  0.0013
 1136TIP3    H124899   2.602   6.773  14.038  0.5187 -0.8289  0.1970
 1136TIP3    H224900   2.734   6.768  13.964  0.4184 -1.1503  0.0398
 1137TIP3   OH224901   2.785   2.640  16.319 -0.3850 -0.2057  0.6375
 1137TIP3    H124902   2.844   2.685  16.258 -0.7068 -0.2899  0.2627
 1137TIP3    H224903   2.742   2.574  16.265 -0.6162 -0.3282  0.9758
 1138TIP3   OH224904   0.660   0.521  15.749 -0.1284 -0.1704 -0.0258
 1138TIP3    H124905   0.717   0.499  15.822  0.8414  1.2437 -0.3457
 1138TIP3    H224906   0.617   0.603  15.775 -1.7451 -1.0220  0.0570
 1139TIP3   OH224907   0.113   6.559  12.893 -0.6654  0.1460 -0.1518
 1139TIP3    H124908   0.028   6.543  12.934  0.6123 -1.0843  2.1420
 1139TIP3    H224909   0.172   6.575  12.967  0.7599  2.7299 -1.7852
 1140TIP3   OH224910   5.284   6.682   4.230 -0.7112  0.0485  0.5280
 1140TIP3    H124911   5.289   6.768   4.187  0.1368  0.1230  0.7556
 1140TIP3    H224912   5.200   6.646   4.202 -0.3553  0.2725 -0.8825
 1141TIP3   OH224913   4.961   5.068  11.693  0.1304 -0.1502 -0.1725
 1141TIP3    H124914   4.889   5.113  11.736 -1.1476 -0.2229 -2.1483
 1141TIP3    H224915   4.919   5.004  11.636  1.7499 -0.1391 -1.4359
 1142TIP3   OH224916   6.140   2.188  12.002 -0.0381 -0.0303 -0.5997
 1142TIP3    H124917   6.080   2.259  11.982 -0.1777  0.2854  0.8638
 1142TIP3    H224918   6.084   2.112  12.018  0.0362 -0.1023 -0.6754
 1143TIP3   OH224919   3.069   3.504   5.219 -0.1845  0.1535 -0.3739
 1143TIP3    H124920   3.074   3.410   5.230  0.3079  0.3552  1.2737
 1143TIP3    H224921   2.979   3.526   5.244  0.1444  0.2895  0.7210
 1144TIP3   OH224922   3.937   4.625  15.560  0.4068  0.3901  0.4440
 1144TIP3    H124923   3.919   4.715  15.585  1.4218  1.0390 -1.1266
 1144TIP3    H224924   4.030   4.624  15.537  0.0974 -0.7573 -0.8404
 1145TIP3   OH224925   2.146   5.810  14.284  0.3837 -0.0070 -0.1291
 1145TIP3    H124926   2.232   5.811  14.325  0.6713  0.4484 -0.7365
 1145TIP3    H224927   2.097   5.742  14.331  0.5039  0.9281  1.3674
 1146TIP3   OH224928   0.009   0.671  14.489  0.2235  0.0087  0.1850
 1146TIP3    H124929   0.103   0.677  14.502  0.5617 -1.5237 -1.3258
 1146TIP3    H224930  -0.028   0.673  14.578  1.7205 -0.0515  0.8185
 1147TIP3   OH224931   3.127   0.292  15.020 -0.6456  0.3847 -0.0499
 1147TIP3    H124932   3.128   0.227  15.090  1.7802 -0.3462 -0.7163
 1147TIP3    H224933   3.113   0.376  15.064  0.0768 -0.1603  1.2176
 1148TIP3   OH224934   0.072   3.068   1.127  0.2128  0.1725 -0.4769
 1148TIP3    H124935   0.113   2.983   1.121 -1.2965 -0.9153  3.1164
 1148TIP3    H224936   0.145   3.130   1.129  1.4777 -1.3216  0.8267
 1149TIP3   OH224937   1.239   6.275   1.499 -0.1185  0.3027  0.3240
 1149TIP3    H124938   1.278   6.359   1.475  1.5015 -0.3104  0.6814
 1149TIP3    H224939   1.149   6.295   1.523  0.3835  2.0114  0.8475
 1150TIP3   OH224940   2.212   0.438  14.752 -0.1954  0.5672  0.3531
 1150TIP3    H124941   2.167   0.383  14.817 -1.6770  1.0343 -0.2612
 1150TIP3    H224942   2.208   0.526  14.789  1.3258  0.4431  0.8753
 1151TIP3   OH224943   1.648   3.630   4.922 -0.0135 -0.0006  0.4351
 1151TIP3    H124944   1.686   3.692   4.859  1.6636  0.1592  1.5602
 1151TIP3    H224945   1.667   3.544   4.885 -1.9261  0.1418 -0.8943
 1152TIP3   OH224946   2.176   5.368  13.457 -0.2757  0.4584  0.1870
 1152TIP3    H124947   2.151   5.410  13.539 -3.6375  2.1829 -1.6523
 1152TIP3    H224948   2.228   5.433  13.411 -1.9857  1.0875 -0.8737
 1153TIP3   OH224949   3.056   4.063  11.413  0.0144 -0.3507 -0.0423
 1153TIP3    H124950   3.028   4.072  11.504 -1.1555  0.4839 -0.4664
 1153TIP3    H224951   2.979   4.028  11.368  0.7004 -1.0916 -0.6463
 1154TIP3   OH224952   4.312   3.496  14.632  0.6142 -0.3555 -0.4628
 1154TIP3    H124953   4.382   3.479  14.570 -0.1451 -1.1068 -1.1256
 1154TIP3    H224954   4.354   3.542  14.705  2.0303 -1.9790 -0.2469
 1155TIP3   OH224955   6.480   2.681  16.119 -0.4824  0.7601  0.3255
 1155TIP3    H124956   6.539   2.748  16.154  0.8780 -0.4953  0.4500
 1155TIP3    H224957   6.417   2.666  16.190 -0.8804  1.9927  0.2427
 1156TIP3   OH224958   1.645   1.640   1.831 -0.0088  0.1264  0.0195
 1156TIP3    H124959   1.593   1.604   1.903  0.2065  0.7218  0.4743
 1156TIP3    H224960   1.701   1.706   1.872  0.7837 -0.1869 -0.5384
 1157TIP3   OH224961   3.475   6.574  13.589 -0.1896 -0.4940 -0.5635
 1157TIP3    H124962   3.393   6.540  13.555  0.3004 -1.6004 -0.6880
 1157TIP3    H224963   3.534   6.498  13.589  0.7964  0.2538 -0.3841
 1158TIP3   OH224964   3.865   3.809   0.456 -0.1236 -0.3955 -0.9470
 1158TIP3    H124965   3.881   3.881   0.396  0.8996  1.9463  2.0197
 1158TIP3    H224966   3.769   3.805   0.463 -0.1773  0.8533 -0.9264
 1159TIP3   OH224967   5.464   3.788   5.560 -0.5418  0.6306  0.5847
 1159TIP3    H124968   5.412   3.855   5.603  1.2722  1.0239  2.2916
 1159TIP3    H224969   5.463   3.811   5.467  0.8545  3.6407  1.2480
 1160TIP3   OH224970   0.581   4.894  16.198  0.5084  0.1402 -0.3034
 1160TIP3    H124971   0.505   4.846  16.230  1.2977  0.2568  1.8478
 1160TIP3    H224972   0.544   4.970  16.153 -0.6530  0.5924  1.3583
 1161TIP3   OH224973   4.221   1.466   4.748 -0.5373  0.0738 -0.0446
 1161TIP3    H124974   4.262   1.417   4.820 -3.1996 -1.9673  0.1373
 1161TIP3    H224975   4.135   1.491   4.782  0.0499  3.3519 -0.8151
 1162TIP3   OH224976   2.254   0.886  17.111  0.1837 -0.3040  0.3474
 1162TIP3    H124977   2.348   0.869  17.116  0.2439  0.0202  0.3881
 1162TIP3    H224978   2.213   0.815  17.160  0.3978 -0.5398  0.1800
 1163TIP3   OH224979   2.221   5.939   1.414 -0.8034  0.2386  0.0694
 1163TIP3    H124980   2.189   5.900   1.495 -1.0850 -1.0266 -0.6376
 1163TIP3    H224981   2.155   5.917   1.349 -0.9408  1.8735 -0.3530
 1164TIP3   OH224982   4.676   5.140   0.332 -0.6981  0.4566 -0.3056
 1164TIP3    H124983   4.584   5.118   0.317  0.0632 -2.0677 -1.6404
 1164TIP3    H224984   4.715   5.139   0.244  1.0888 -1.0121  0.4816
 1165TIP3   OH224985   4.705   3.058   2.371 -0.6100 -0.2584  0.5567
 1165TIP3    H124986   4.702   3.109   2.451  1.6076 -1.6081  1.5587
 1165TIP3    H224987   4.727   3.121   2.302  1.1559  0.3049  1.6164
 1166TIP3   OH224988   6.256   5.897   0.330 -0.2129  0.2337  0.2983
 1166TIP3    H124989   6.292   5.913   0.418 -1.0366  2.1714  0.3146
 1166TIP3    H224990   6.328   5.916   0.271 -0.1398  0.5679  0.4911
 1167TIP3   OH224991   6.321   1.449  15.248  0.0789 -0.2243  0.1096
 1167TIP3    H124992   6.232   1.472  15.222 -0.1371 -1.9446 -0.7515
 1167TIP3    H224993   6.366   1.533  15.257 -1.1145  0.5960 -1.3179
 1168TIP3   OH224994   3.559   4.976  12.913  0.0446  0.2683  0.0888
 1168TIP3    H124995   3.653   4.984  12.897  0.3784  0.3039  1.9877
 1168TIP3    H224996   3.521   4.958  12.827  1.7856  0.2879 -0.6884
 1169TIP3   OH224997   2.754   0.096   6.670 -0.2008  0.3903 -0.6102
 1169TIP3    H124998   2.816   0.169   6.682 -1.1249  0.7984  1.9291
 1169TIP3    H224999   2.669   0.134   6.692 -0.7447 -1.3457  0.2885
 1170TIP3   OH225000   3.284   0.575   0.124  0.1921 -0.1870 -0.2361
 1170TIP3    H125001   3.268   0.670   0.125 -0.3209 -0.2424 -1.7709
 1170TIP3    H225002   3.226   0.540   0.191 -1.4233  0.3201 -1.3448
 1171TIP3   OH225003   3.271   2.431  12.471  0.1143  0.0865  0.3442
 1171TIP3    H125004   3.325   2.476  12.406 -1.1173 -0.5163 -1.1339
 1171TIP3    H225005   3.207   2.498  12.497  0.1674  0.1129  0.4066
 1172TIP3   OH225006   6.001   1.087  11.384  0.5736 -0.1501  0.1248
 1172TIP3    H125007   6.035   1.100  11.472  0.4874  0.0128  0.1326
 1172TIP3    H225008   5.928   1.026  11.394 -0.3660  1.0145  0.3458
 1173TIP3   OH225009   2.179   2.042   3.589  1.1532 -0.1062 -0.1433
 1173TIP3    H125010   2.089   2.013   3.579  0.7285  1.1357 -0.0429
 1173TIP3    H225011   2.209   2.003   3.671 -0.2613  1.8202  1.3395
 1174TIP3   OH225012   4.257   2.894  13.439 -0.9029 -0.2604  0.1646
 1174TIP3    H125013   4.204   2.959  13.486 -2.0679 -0.7156 -0.4877
 1174TIP3    H225014   4.256   2.923  13.348  1.1236  0.4713  0.3469
 1175TIP3   OH225015   0.168   2.515   4.245 -0.2539  0.6784 -1.1406
 1175TIP3    H125016   0.201   2.597   4.283  0.0568 -0.3064  0.7728
 1175TIP3    H225017   0.246   2.469   4.217 -0.3843  0.7729 -1.6523
 1176TIP3   OH225018   1.486   2.958   0.946  0.4237  0.4319  0.0525
 1176TIP3    H125019   1.421   3.015   0.987  0.5840 -0.6132  1.8439
 1176TIP3    H225020   1.437   2.912   0.878 -0.4364  0.5004  0.6112
 1177TIP3   OH225021   4.150   3.356  16.123  0.4777 -0.0303  0.2099
 1177TIP3    H125022   4.088   3.299  16.169  0.9779  0.5062  1.5729
 1177TIP3    H225023   4.236   3.332  16.159  0.9962 -0.2760 -1.1549
 1178TIP3   OH225024   6.115   4.227  16.435 -0.4955 -0.2887 -0.4576
 1178TIP3    H125025   6.099   4.169  16.360 -0.4806  0.9278 -1.4269
 1178TIP3    H225026   6.098   4.314  16.401 -1.5528  0.2069  1.2684
 1179TIP3   OH225027   0.969   0.609   0.521 -0.9930 -0.3250  0.4213
 1179TIP3    H125028   1.049   0.645   0.483 -2.5718  1.9989 -0.8492
 1179TIP3    H225029   0.962   0.521   0.484 -0.2965  0.3584 -1.3796
 1180TIP3   OH225030   3.806   5.553   0.696  0.3830 -0.1603  0.1241
 1180TIP3    H125031   3.767   5.473   0.662  0.0931  0.7670 -1.8072
 1180TIP3    H225032   3.849   5.526   0.777 -0.0300 -2.1876 -0.2960
 1181TIP3   OH225033   2.228   6.544   6.433  0.1883 -0.2299  0.3166
 1181TIP3    H125034   2.216   6.497   6.516  0.1894 -1.2606 -0.2722
 1181TIP3    H225035   2.319   6.575   6.437 -0.1718  0.7428  1.2234
 1182TIP3   OH225036   0.644   0.235   4.124  0.0304 -0.2134  1.2099
 1182TIP3    H125037   0.624   0.275   4.039 -0.5218  0.3858  1.6129
 1182TIP3    H225038   0.734   0.206   4.116  0.9003  2.2833  1.3222
 1183TIP3   OH225039   5.572   4.915  15.774 -0.1125  0.1312  0.4362
 1183TIP3    H125040   5.495   4.884  15.821  0.2089  0.5574  1.2605
 1183TIP3    H225041   5.540   4.937  15.687 -0.3052 -2.7077 -0.2536
 1184TIP3   OH225042   1.290   2.700   5.021 -0.4674  0.4476 -0.0575
 1184TIP3    H125043   1.240   2.717   4.941  0.7273  0.5013 -0.8013
 1184TIP3    H225044   1.353   2.633   4.996  1.3334  1.9740  0.2404
 1185TIP3   OH225045   2.059   3.545   4.821 -0.2347  0.6733  0.2930
 1185TIP3    H125046   2.136   3.528   4.876  1.5945 -3.5776 -3.2157
 1185TIP3    H225047   2.062   3.639   4.804  2.6609  1.0403  2.3862
 1186TIP3   OH225048   5.481   1.865  17.188 -0.4170  0.4654  0.8375
 1186TIP3    H125049   5.521   1.813  17.117 -0.6231  2.5944 -0.8762
 1186TIP3    H225050   5.472   1.953  17.151 -4.0103  0.7444  2.2083
 1187TIP3   OH225051   5.879   5.049   1.753 -0.0096 -0.4654 -0.0533
 1187TIP3    H125052   5.836   4.988   1.693 -1.3146  0.3737  0.0052
 1187TIP3    H225053   5.831   5.040   1.835  1.0265 -0.7585  0.5213
 1188TIP3   OH225054   2.964   0.981  15.996  0.3311  0.2129  0.2070
 1188TIP3    H125055   2.941   1.051  16.056  0.3802  1.3105 -1.0380
 1188TIP3    H225056   2.891   0.977  15.934  1.4238  0.7657 -1.1390
 1189TIP3   OH225057   4.978   5.680   2.821  0.2603 -0.3841 -0.0631
 1189TIP3    H125058   4.956   5.696   2.913 -0.2480  0.2135 -0.2834
 1189TIP3    H225059   4.907   5.721   2.772 -0.7082 -2.7536 -0.6946
 1190TIP3   OH225060   1.197   4.091   3.844 -0.1683 -0.1057 -0.0493
 1190TIP3    H125061   1.258   4.017   3.838  0.5752  0.5710 -1.2702
 1190TIP3    H225062   1.134   4.076   3.774  1.1867  1.4349 -1.6664
 1191TIP3   OH225063   4.098   0.641  12.899 -0.5928  0.2253 -0.5196
 1191TIP3    H125064   4.007   0.635  12.870 -0.6613  1.5611 -0.5920
 1191TIP3    H225065   4.149   0.627  12.819 -0.7080 -1.2977 -0.3472
 1192TIP3   OH225066   2.345   2.719   0.523  0.2831 -0.2612 -0.0662
 1192TIP3    H125067   2.280   2.677   0.466 -0.7286 -0.9074  1.5189
 1192TIP3    H225068   2.292   2.768   0.586  1.3321 -0.7958  1.2490
 1193TIP3   OH225069   1.940   0.152   0.830  0.1319  0.4796 -0.4303
 1193TIP3    H125070   1.924   0.219   0.897  1.0040  0.3747 -0.1136
 1193TIP3    H225071   2.023   0.112   0.855 -0.3398 -0.6616 -0.6819
 1194TIP3   OH225072   4.367   2.799  15.337  0.1515 -0.4731  0.4324
 1194TIP3    H125073   4.425   2.795  15.414 -1.3319  0.8469  1.6605
 1194TIP3    H225074   4.423   2.775  15.263  2.3186  0.9656  1.5575
 1195TIP3   OH225075   5.803   6.306   2.421 -0.3044 -0.3416 -0.2317
 1195TIP3    H125076   5.741   6.365   2.378 -0.3154 -0.5825 -0.5522
 1195TIP3    H225077   5.761   6.220   2.415  0.2058 -0.5567 -0.7293
 1196TIP3   OH225078   5.977   2.968  14.581 -0.3248 -0.1389  0.1787
 1196TIP3    H125079   5.926   2.968  14.499 -1.1320 -0.4422  0.6710
 1196TIP3    H225080   5.913   2.943  14.648  0.4000 -0.1604  0.8591
 1197TIP3   OH225081   4.488   3.728   1.548 -0.6598  0.1054  0.0076
 1197TIP3    H125082   4.522   3.668   1.614  2.0584  0.3103 -1.1511
 1197TIP3    H225083   4.424   3.676   1.499  0.2458 -1.2622  0.2580
 1198TIP3   OH225084   5.746   6.466  10.931  0.4712 -0.0295 -0.6011
 1198TIP3    H125085   5.714   6.378  10.910  0.1359  0.0593 -0.4749
 1198TIP3    H225086   5.720   6.519  10.855  2.5511 -0.4659 -1.6597
 1199TIP3   OH225087   1.836   5.651   2.370  0.6385 -0.0483  0.1882
 1199TIP3    H125088   1.906   5.623   2.311  0.9655  2.1511 -0.5027
 1199TIP3    H225089   1.768   5.584   2.359  1.9389 -1.3080 -0.3710
 1200TIP3   OH225090   2.226   3.642   1.240  0.3893 -0.3989 -0.7536
 1200TIP3    H125091   2.295   3.589   1.281 -0.3881 -2.7763 -2.3922
 1200TIP3    H225092   2.273   3.698   1.178  0.9785 -1.2096 -1.0597
 1201TIP3   OH225093   1.782   0.236  13.756 -0.3859 -0.3662  0.3266
 1201TIP3    H125094   1.710   0.220  13.695 -0.4267 -1.5420  0.6527
 1201TIP3    H225095   1.817   0.148  13.774  0.5365  0.1107  0.8778
 1202TIP3   OH225096   1.648   0.391   3.204 -0.3127  0.0372  0.0615
 1202TIP3    H125097   1.691   0.401   3.289  1.3152  1.1371 -0.8453
 1202TIP3    H225098   1.585   0.463   3.200 -0.2718  0.0839  0.2669
 1203TIP3   OH225099   3.899   3.514   6.681  0.7791 -1.0254  0.3047
 1203TIP3    H125100   3.863   3.534   6.595 -0.6667 -0.1197  1.1002
 1203TIP3    H225101   3.841   3.560   6.743  2.6874 -0.3651  1.6718
 1204TIP3   OH225102   4.696   5.721  13.603 -0.2438  0.2359 -0.0440
 1204TIP3    H125103   4.744   5.641  13.623  0.9567  0.9416 -0.0403
 1204TIP3    H225104   4.659   5.749  13.686  1.5495  1.0917  0.5111
 1205TIP3   OH225105   6.769   3.587   4.752  0.3209  0.4022  0.2876
 1205TIP3    H125106   6.861   3.607   4.770  0.6400 -0.5727 -0.2499
 1205TIP3    H225107   6.759   3.495   4.777 -0.7839  0.7942  1.3678
 1206TIP3   OH225108   4.598   2.445   4.232  0.6784  0.2018 -0.2622
 1206TIP3    H125109   4.620   2.353   4.218 -0.7072 -0.1765  0.0189
 1206TIP3    H225110   4.675   2.493   4.201  0.7896 -0.9843 -1.8763
 1207TIP3   OH225111   5.257   0.113  11.774 -0.1863 -0.1852  0.4668
 1207TIP3    H125112   5.210   0.152  11.700  2.3501  0.5717 -0.7997
 1207TIP3    H225113   5.292   0.031  11.739  3.4025  1.4899 -0.1289
 1208TIP3   OH225114   1.763   4.652  13.572  0.4211 -0.1655  0.2988
 1208TIP3    H125115   1.828   4.585  13.550 -0.9028 -1.4920  0.3017
 1208TIP3    H225116   1.754   4.645  13.667  0.6325  0.3480  0.3556
 1209TIP3   OH225117   6.760   3.489   5.631 -0.4952  0.2929 -0.3680
 1209TIP3    H125118   6.804   3.522   5.710 -1.5574 -1.1083  0.8282
 1209TIP3    H225119   6.712   3.565   5.598  1.5000  1.4244 -0.8082
 1210TIP3   OH225120   0.346   3.086   0.209 -0.1641  0.0185 -0.6219
 1210TIP3    H125121   0.404   3.077   0.133  1.1115  1.2532  0.1623
 1210TIP3    H225122   0.258   3.082   0.172  0.3997  3.4248 -2.6141
 1211TIP3   OH225123   0.488   5.554   1.529 -0.1276  0.3181 -0.0865
 1211TIP3    H125124   0.465   5.543   1.437 -0.0132 -0.4218 -0.0322
 1211TIP3    H225125   0.405   5.544   1.576  0.0583 -0.8349 -0.0001
 1212TIP3   OH225126   0.285   3.171  11.136 -0.5491 -0.1092  0.0896
 1212TIP3    H125127   0.250   3.198  11.052  0.5770  0.9050 -0.0671
 1212TIP3    H225128   0.231   3.218  11.201 -0.7787 -0.1288 -0.0859
 1213TIP3   OH225129   5.547   5.684   4.811 -0.1418  0.4375  0.4756
 1213TIP3    H125130   5.635   5.670   4.847 -0.2725 -0.9509  0.2698
 1213TIP3    H225131   5.514   5.761   4.858  0.9231  0.5688  1.0267
 1214TIP3   OH225132   4.846   6.402  13.257  0.0961 -0.4603  0.0628
 1214TIP3    H125133   4.891   6.381  13.339  1.0277  0.0780 -0.3026
 1214TIP3    H225134   4.892   6.349  13.191 -0.1570 -0.3112 -0.2323
 1215TIP3   OH225135   1.832   4.819   2.852 -0.8650 -0.3483 -0.0909
 1215TIP3    H125136   1.923   4.838   2.871 -1.6034  2.3364  0.9092
 1215TIP3    H225137   1.814   4.863   2.769 -1.1562 -1.2464 -0.5217
 1216TIP3   OH225138   6.555   4.771  15.244 -0.6529  0.3234 -0.1881
 1216TIP3    H125139   6.554   4.684  15.285 -0.0764  0.1058 -0.6513
 1216TIP3    H225140   6.538   4.754  15.152 -1.6980  0.8035 -0.0937
 1217TIP3   OH225141   6.813   3.255   3.214  0.2366  0.0902  0.0267
 1217TIP3    H125142   6.733   3.266   3.266  0.1244 -1.3753  0.1922
 1217TIP3    H225143   6.868   3.196   3.266  0.9971  0.2728 -0.5596
 1218TIP3   OH225144   2.242   6.437   4.208  0.1357  0.1753  0.5588
 1218TIP3    H125145   2.237   6.414   4.115  1.4446 -1.9961  0.9893
 1218TIP3    H225146   2.219   6.356   4.254 -1.4814  1.4973  2.1522
 1219TIP3   OH225147   4.872   4.747   1.711  0.2828  0.0634  0.5522
 1219TIP3    H125148   4.804   4.780   1.770 -0.6169  1.1006 -1.0278
 1219TIP3    H225149   4.867   4.804   1.634  3.7462  0.9108  0.8623
 1220TIP3   OH225150   2.439   3.168   2.270 -0.1893 -0.1507 -0.1577
 1220TIP3    H125151   2.491   3.112   2.328 -2.0443 -1.6204  0.1395
 1220TIP3    H225152   2.348   3.149   2.294 -0.8961  3.0761  0.0238
 1221TIP3   OH225153   1.897   6.698   3.469 -0.7112  0.0645 -0.3471
 1221TIP3    H125154   1.968   6.667   3.525 -0.0922  0.1707 -1.0556
 1221TIP3    H225155   1.846   6.757   3.524  1.8023  2.7980 -0.7966
 1222TIP3   OH225156   2.381   4.238  16.826  0.1073  0.0839 -0.1293
 1222TIP3    H125157   2.300   4.194  16.853 -0.2266 -0.1042 -1.4235
 1222TIP3    H225158   2.361   4.331  16.831  0.4506  0.0850  1.4934
 1223TIP3   OH225159   5.416   5.864  14.149  0.3974  0.6347  0.1784
 1223TIP3    H125160   5.331   5.825  14.170 -0.1383  0.8125 -1.5617
 1223TIP3    H225161   5.480   5.806  14.191 -0.5988  0.9865  2.2505
 1224TIP3   OH225162   6.784   4.905  15.187  0.0639 -0.0667  0.1630
 1224TIP3    H125163   6.746   4.993  15.195 -0.6898 -0.4825  1.4021
 1224TIP3    H225164   6.708   4.846  15.195  0.4308 -0.8179 -1.6153
 1225TIP3   OH225165   6.559   6.078   2.935 -0.2912  0.0708 -0.2194
 1225TIP3    H125166   6.501   6.025   2.879  0.8804 -0.2838 -1.1168
 1225TIP3    H225167   6.608   6.132   2.873  2.4021 -1.6994  0.3153
 1226TIP3   OH225168   4.732   0.948  14.708 -0.5291 -0.0854  0.2433
 1226TIP3    H125169   4.698   0.875  14.656 -0.1506  0.4177 -0.7133
 1226TIP3    H225170   4.821   0.922  14.730 -0.3345  0.1707 -0.2479
 1227TIP3   OH225171   3.915   4.463  10.377  0.1021  0.0724  0.4737
 1227TIP3    H125172   3.977   4.451  10.305  0.1351 -1.1520  0.6947
 1227TIP3    H225173   3.944   4.401  10.444 -0.4835  0.5388  1.1704
 1228TIP3   OH225174   3.305   4.788  14.063 -0.2321 -0.1390  0.3618
 1228TIP3    H125175   3.255   4.858  14.105  1.6079 -0.9309  4.0656
 1228TIP3    H225176   3.395   4.801  14.093  0.9486 -1.6473 -2.2785
 1229TIP3   OH225177   6.276   5.921  16.661 -0.0600  0.0270 -0.8476
 1229TIP3    H125178   6.258   5.834  16.627  2.1337 -1.5363  1.7991
 1229TIP3    H225179   6.269   5.979  16.585 -0.0256 -2.6335 -2.9305
 1230TIP3   OH225180   4.829   3.764   2.884 -0.2500  0.3752  0.1512
 1230TIP3    H125181   4.771   3.705   2.836  1.4920 -1.4448  0.1704
 1230TIP3    H225182   4.818   3.849   2.842  1.7132 -1.2661 -4.0462
 1231TIP3   OH225183   1.944   5.879  12.745 -0.1053 -0.2748 -0.2731
 1231TIP3    H125184   1.915   5.969  12.728 -0.5826 -0.3588  0.0622
 1231TIP3    H225185   1.866   5.836  12.781  0.8006 -0.1533  1.8859
 1232TIP3   OH225186   5.661   1.294   5.074  0.0193  0.4797 -0.2257
 1232TIP3    H125187   5.739   1.262   5.119  0.6785 -0.4887 -2.0134
 1232TIP3    H225188   5.626   1.217   5.028 -1.7275  1.0013  0.1770
 1233TIP3   OH225189   3.291   4.026   2.021  0.5949  0.0222  0.1075
 1233TIP3    H125190   3.280   3.960   2.089  0.8051  0.7350  0.8516
 1233TIP3    H225191   3.350   3.986   1.957  0.3844 -0.6594  0.3379
 1234TIP3   OH225192   0.484   2.514  16.046 -0.1890 -0.0067 -0.1422
 1234TIP3    H125193   0.438   2.450  16.099  0.5118 -0.8671 -0.5635
 1234TIP3    H225194   0.543   2.463  15.991  3.7217  1.2147  2.6929
 1235TIP3   OH225195   1.725   6.137  13.455 -0.0154  0.6430  0.2664
 1235TIP3    H125196   1.633   6.113  13.443  0.1691  0.6235 -1.2584
 1235TIP3    H225197   1.722   6.217  13.507 -0.9082  0.7232  0.1019
 1236TIP3   OH225198   5.178   5.175   3.020  0.0441 -0.1496 -0.5874
 1236TIP3    H125199   5.195   5.126   3.101 -2.1720 -0.6365 -0.3673
 1236TIP3    H225200   5.159   5.264   3.050  2.2517  0.4168 -0.8363
 1237TIP3   OH225201   6.523   3.922   0.790 -0.2285 -0.4647 -0.3540
 1237TIP3    H125202   6.470   4.001   0.777  0.6335  0.1368 -0.2502
 1237TIP3    H225203   6.598   3.934   0.732  0.5441 -0.6245  0.6032
 1238TIP3   OH225204   3.789   6.384  14.702  0.3385  0.1628  0.3265
 1238TIP3    H125205   3.839   6.408  14.624 -0.9139  0.6376 -0.3486
 1238TIP3    H225206   3.824   6.439  14.772 -0.5964  1.9470 -0.5866
 1239TIP3   OH225207   4.715   5.405   4.361  0.3138  0.3203 -0.1252
 1239TIP3    H125208   4.735   5.478   4.302 -1.6072  1.9292  1.1744
 1239TIP3    H225209   4.719   5.327   4.305  0.3189  1.6310 -1.9767
 1240TIP3   OH225210   1.345   2.027   6.360  0.8538 -0.1527 -0.0783
 1240TIP3    H125211   1.258   2.036   6.400  0.1355 -2.0743 -1.1318
 1240TIP3    H225212   1.402   2.083   6.412 -1.3632  2.5523 -0.4458
 1241TIP3   OH225213   3.515   6.211   2.808  0.6019  0.0824  0.2469
 1241TIP3    H125214   3.532   6.198   2.715 -1.6730  0.7642 -0.2979
 1241TIP3    H225215   3.598   6.191   2.851  1.7854  0.1203 -1.9589
 1242TIP3   OH225216   1.129   2.399   1.351  0.0367 -0.4007  0.1650
 1242TIP3    H125217   1.181   2.418   1.428  0.9641  1.6856 -0.9265
 1242TIP3    H225218   1.093   2.484   1.325 -0.1770 -1.0447 -1.7404
 1243TIP3   OH225219   3.513   6.507  16.037  0.2121  0.0325 -0.0581
 1243TIP3    H125220   3.544   6.506  15.946 -1.1401 -0.9822 -0.5162
 1243TIP3    H225221   3.587   6.472  16.088 -0.0715 -2.1825 -1.1164
 1244TIP3   OH225222   1.192   0.962  11.570  0.1467  0.0058 -0.4432
 1244TIP3    H125223   1.196   0.906  11.648 -2.2141 -0.8057 -0.8778
 1244TIP3    H225224   1.123   1.025  11.589  0.7670  0.9115 -1.1681
 1245TIP3   OH225225   2.633   0.476   5.116 -0.1170  0.0869 -0.0456
 1245TIP3    H125226   2.603   0.540   5.052  0.8362  0.6327  0.0373
 1245TIP3    H225227   2.569   0.483   5.188  0.0765  1.0852  0.0433
 1246TIP3   OH225228   6.467   4.818   3.384  0.0354  0.4017  0.6950
 1246TIP3    H125229   6.496   4.863   3.305  0.3752  0.5645  0.9100
 1246TIP3    H225230   6.420   4.886   3.434 -1.3131 -0.0240  0.0439
 1247TIP3   OH225231   6.685   3.819  12.030 -0.5228 -0.5706 -0.7896
 1247TIP3    H125232   6.735   3.899  12.046  0.3593 -1.2409 -0.1074
 1247TIP3    H225233   6.594   3.845  12.041 -0.2567  0.4179 -0.9032
 1248TIP3   OH225234   0.280   0.397   4.719 -0.1051 -0.3582 -0.4092
 1248TIP3    H125235   0.186   0.416   4.727 -0.4156 -1.6172 -0.8989
 1248TIP3    H225236   0.323   0.482   4.730 -1.3536  0.3699 -1.0313
 1249TIP3   OH225237   4.216   6.004  16.425  0.1412 -0.2053 -0.0081
 1249TIP3    H125238   4.280   5.956  16.373 -0.2128 -0.5745 -0.1022
 1249TIP3    H225239   4.265   6.080  16.458 -0.1105  1.0474 -2.3990
 1250TIP3   OH225240   1.956   6.617  15.930 -0.9728 -0.5921  0.3158
 1250TIP3    H125241   1.964   6.652  15.841  0.6825  0.7333  0.9472
 1250TIP3    H225242   1.893   6.675  15.973 -1.9532 -1.3769 -0.0575
 1251TIP3   OH225243   3.575   3.898  13.943  0.1218 -0.2603 -0.3986
 1251TIP3    H125244   3.575   3.931  14.032 -2.0790 -1.8912  0.2437
 1251TIP3    H225245   3.487   3.864  13.929  0.4295 -0.0984 -3.1822
 1252TIP3   OH225246   3.733   0.295  17.101  1.2332  0.1981 -0.2639
 1252TIP3    H125247   3.788   0.271  17.026  2.8494  1.7371  0.4081
 1252TIP3    H225248   3.763   0.239  17.172 -0.1249 -1.0752 -0.6531
 1253TIP3   OH225249   5.287   3.682   3.525 -0.6089  0.2338 -0.0216
 1253TIP3    H125250   5.337   3.677   3.444 -0.0758  0.3667  0.3007
 1253TIP3    H225251   5.274   3.591   3.551 -1.9657  0.1233 -0.9750
 1254TIP3   OH225252   2.952   5.304  14.133  0.0541 -0.1858 -0.0253
 1254TIP3    H125253   2.917   5.316  14.222 -0.0298 -1.3776  0.1107
 1254TIP3    H225254   2.904   5.368  14.080 -3.0518 -2.3968 -0.0260
 1255TIP3   OH225255   1.872   3.881  15.982  0.0896  0.0867 -0.3558
 1255TIP3    H125256   1.929   3.847  15.913 -1.6621 -2.3705 -0.6681
 1255TIP3    H225257   1.929   3.889  16.058  0.5952 -3.9225 -0.2000
 1256TIP3   OH225258   5.230   4.545  13.700  0.5141  0.1557  0.3304
 1256TIP3    H125259   5.150   4.502  13.669  0.4138  0.3773  0.2802
 1256TIP3    H225260   5.199   4.624  13.744  0.6616 -0.1168  0.9214
 1257TIP3   OH225261   4.990   6.158  14.390  0.0562 -0.5044 -0.5527
 1257TIP3    H125262   4.937   6.225  14.346 -0.9783 -0.2455  1.0616
 1257TIP3    H225263   5.043   6.120  14.319 -0.3474  1.0483 -1.7337
 1258TIP3   OH225264   4.561   3.462  15.241  0.0475  0.3087 -0.4189
 1258TIP3    H125265   4.559   3.558  15.232 -1.8534  0.5588  1.9327
 1258TIP3    H225266   4.625   3.446  15.310 -1.0407  0.0416  0.5380
 1259TIP3   OH225267   5.114   3.088   1.050 -0.5813 -0.2301 -0.9284
 1259TIP3    H125268   5.181   3.147   1.014  1.1369 -1.8344 -0.4471
 1259TIP3    H225269   5.059   3.067   0.975 -0.9566  1.6214 -1.1999
 1260TIP3   OH225270   6.763   1.609   0.509  0.2278 -0.0263  0.3833
 1260TIP3    H125271   6.759   1.685   0.452 -0.2155 -0.8812 -0.7454
 1260TIP3    H225272   6.769   1.534   0.449 -0.9170 -0.9806  1.4281
 1261TIP3   OH225273   1.759   1.244  15.399  0.1560 -0.4273 -0.3779
 1261TIP3    H125274   1.687   1.186  15.377  0.0035 -0.3497 -0.0834
 1261TIP3    H225275   1.762   1.245  15.494  3.1206 -3.6113 -0.3486
 1262TIP3   OH225276   2.843   2.066  14.430 -0.2455 -0.1100  0.0353
 1262TIP3    H125277   2.758   2.079  14.472  0.9416 -1.1327  2.8866
 1262TIP3    H225278   2.875   2.154  14.412 -2.1339  0.2756 -1.6155
 1263TIP3   OH225279   3.078   3.956   0.036 -0.0397  0.0719 -0.4919
 1263TIP3    H125280   3.143   3.886   0.040  1.7135  1.6413 -0.8566
 1263TIP3    H225281   3.037   3.956   0.123 -0.9398 -2.2036 -0.9011
 1264TIP3   OH225282   1.402   5.641   1.822 -0.3347  0.5217 -0.1108
 1264TIP3    H125283   1.495   5.655   1.838 -0.7823  2.3216  1.1164
 1264TIP3    H225284   1.393   5.646   1.727  0.5787  2.0465 -0.1339
 1265TIP3   OH225285   5.015   2.870  13.501 -0.3389  0.6044  0.0667
 1265TIP3    H125286   5.045   2.815  13.429 -3.6737 -1.7065  0.3461
 1265TIP3    H225287   5.071   2.846  13.575 -1.2071 -1.8848 -0.0365
 1266TIP3   OH225288   5.981   2.101  13.770  0.5406  0.2511 -0.3146
 1266TIP3    H125289   6.045   2.049  13.721  0.8020 -1.1855  1.5353
 1266TIP3    H225290   5.906   2.043  13.781 -0.7317  1.5892 -1.5766
 1267TIP3   OH225291   5.188   1.361  11.399 -0.0050 -0.1354 -0.0189
 1267TIP3    H125292   5.111   1.329  11.446  0.0337 -1.1429 -0.6185
 1267TIP3    H225293   5.259   1.352  11.462 -0.1250 -0.5614  0.0583
 1268TIP3   OH225294   6.610   3.060   1.761  0.1101  0.2435  0.3458
 1268TIP3    H125295   6.623   3.138   1.814 -0.0590 -0.5858  1.6473
 1268TIP3    H225296   6.642   3.083   1.674 -2.0721  2.5031  0.0870
 1269TIP3   OH225297   1.136   4.560   1.778 -0.0818 -0.4726  0.0183
 1269TIP3    H125298   1.162   4.473   1.809  0.7996 -0.6861 -1.2594
 1269TIP3    H225299   1.205   4.585   1.716 -0.1026  1.3223  0.6766
 1270TIP3   OH225300   0.999   0.303  16.238 -0.8820  0.2654 -0.3280
 1270TIP3    H125301   0.955   0.219  16.225 -0.0695 -0.1070 -0.7182
 1270TIP3    H225302   1.080   0.281  16.284 -2.2242  1.2179  2.6353
 1271TIP3   OH225303   0.579   3.339  16.214  0.1203  0.2149  0.6446
 1271TIP3    H125304   0.631   3.359  16.292 -0.2012 -1.6154  1.3424
 1271TIP3    H225305   0.530   3.420  16.198  1.4781  1.2053  1.2889
 1272TIP3   OH225306   6.113   6.075  13.474 -0.1186  0.1315 -0.0509
 1272TIP3    H125307   6.094   6.164  13.443  2.6088 -0.0708 -2.4737
 1272TIP3    H225308   6.203   6.078  13.506 -0.0303 -1.7362 -0.0374
 1273TIP3   OH225309   2.843   2.620   0.277 -0.0121  0.0774  0.3205
 1273TIP3    H125310   2.776   2.593   0.340 -0.2701  0.7038  0.3174
 1273TIP3    H225311   2.883   2.698   0.316  1.1551 -0.6670  0.6202
 1274TIP3   OH225312   5.730   2.049   4.909  0.5588  0.2392 -0.0334
 1274TIP3    H125313   5.794   2.012   4.969  0.3256  1.5328  1.0280
 1274TIP3    H225314   5.759   2.140   4.896  1.0912 -0.2426 -2.5523
 1275TIP3   OH225315   5.676   0.096   0.829  0.3811  0.1743  0.0293
 1275TIP3    H125316   5.687   0.112   0.923 -0.4795 -1.0408  0.3482
 1275TIP3    H225317   5.642   0.178   0.795 -2.2320 -0.3185  1.3239
 1276TIP3   OH225318   3.342   5.242  12.213  0.1394  0.3828 -0.3129
 1276TIP3    H125319   3.368   5.311  12.275 -0.3371 -1.0655  1.5744
 1276TIP3    H225320   3.410   5.243  12.146  1.8266  0.6513  1.3497
 1277TIP3   OH225321   1.094   2.857   0.933 -0.9237  0.1999 -0.2177
 1277TIP3    H125322   1.149   2.842   1.010 -1.0615 -1.6524 -0.4628
 1277TIP3    H225323   1.007   2.827   0.960 -1.4629  1.6233 -0.3615
 1278TIP3   OH225324   6.657   5.658  10.890  0.3869 -0.0472  0.1932
 1278TIP3    H125325   6.657   5.686  10.982 -2.2089  0.4429  0.0958
 1278TIP3    H225326   6.672   5.739  10.841  1.5077 -0.2654  0.1734
 1279TIP3   OH225327   3.883   0.106   0.828  0.1624  0.1323  0.1147
 1279TIP3    H125328   3.885   0.133   0.736 -0.1366  1.2488  0.4362
 1279TIP3    H225329   3.816   0.038   0.832 -1.0510  1.3078 -0.1580
 1280TIP3   OH225330   2.007   3.814  13.741 -0.2484  0.9601  0.1480
 1280TIP3    H125331   2.076   3.750  13.723 -0.8368 -0.0454  1.3793
 1280TIP3    H225332   1.966   3.830  13.656  0.0422 -0.1377 -0.2065
 1281TIP3   OH225333   3.786   2.068   1.788 -0.4899  0.0387  0.1572
 1281TIP3    H125334   3.741   1.988   1.760 -1.0379  0.1886  0.6054
 1281TIP3    H225335   3.755   2.083   1.877 -0.1219  0.5606  0.1994
 1282TIP3   OH225336   2.940   6.764  11.223  0.2112  0.4751  0.3513
 1282TIP3    H125337   3.016   6.819  11.205 -0.3666  0.3932 -2.4784
 1282TIP3    H225338   2.866   6.811  11.186 -0.7048 -0.8755  0.4157
 1283TIP3   OH225339   2.410   4.043  13.043 -0.5308 -0.3408 -0.4280
 1283TIP3    H125340   2.441   3.990  12.970 -0.5318 -0.9105 -0.0211
 1283TIP3    H225341   2.476   4.031  13.111 -0.3784  0.4203 -0.4345
 1284TIP3   OH225342   0.719   4.112  10.819  0.4792  0.0536  0.0954
 1284TIP3    H125343   0.777   4.110  10.743 -0.1923 -1.8429 -0.4100
 1284TIP3    H225344   0.632   4.131  10.782  0.0092 -1.6877  0.2587
 1285TIP3   OH225345   4.605   6.398   3.979  0.2245  0.6184  0.0840
 1285TIP3    H125346   4.650   6.452   3.914  0.5760  1.9647  1.4277
 1285TIP3    H225347   4.660   6.321   3.989  0.5794  0.7776 -0.6126
 1286TIP3   OH225348   4.545   4.902   3.320  0.1916  0.1710 -0.0400
 1286TIP3    H125349   4.580   4.864   3.240 -0.0447  0.7698 -0.4364
 1286TIP3    H225350   4.515   4.827   3.371 -0.7128 -0.1568 -1.0216
 1287TIP3   OH225351   1.556   1.907   5.320 -0.4555  0.2000  0.4289
 1287TIP3    H125352   1.495   1.962   5.369  0.0167 -0.1661  1.4506
 1287TIP3    H225353   1.541   1.819   5.354 -0.8084 -0.2210 -0.7960
 1288TIP3   OH225354   1.077   6.816   5.210  0.8030 -0.5628  0.2719
 1288TIP3    H125355   1.162   6.851   5.183  0.8860 -0.7247  0.3184
 1288TIP3    H225356   1.099   6.744   5.269  0.6150 -0.1015  0.9004
 1289TIP3   OH225357   2.642   4.683  16.078 -0.2488 -0.3907  0.3951
 1289TIP3    H125358   2.607   4.637  16.002 -1.6765  1.1458  0.0952
 1289TIP3    H225359   2.724   4.722  16.047  0.4808 -1.8902  0.3875
 1290TIP3   OH225360   6.594   0.320  13.014  0.2845 -0.4149  0.0319
 1290TIP3    H125361   6.530   0.252  13.033  0.4190 -0.5426  0.0260
 1290TIP3    H225362   6.634   0.341  13.098  0.2074 -0.3056  0.0417
 1291TIP3   OH225363   3.831   1.483   5.963  0.8951 -0.7531 -0.6539
 1291TIP3    H125364   3.923   1.511   5.967  0.8054  0.0923 -3.3526
 1291TIP3    H225365   3.811   1.481   5.870 -2.2308  0.3148 -0.0601
 1292TIP3   OH225366   0.811   3.964   4.532 -0.0758  0.5089 -0.2381
 1292TIP3    H125367   0.877   4.033   4.542 -0.0046  0.1975  1.5636
 1292TIP3    H225368   0.860   3.882   4.540 -0.4384  0.2666 -0.5143
 1293TIP3   OH225369   5.984   5.253  11.958  0.1511 -0.3119 -0.2017
 1293TIP3    H125370   5.944   5.281  12.040  0.6482 -0.4800  0.0982
 1293TIP3    H225371   5.970   5.327  11.898 -0.9959 -0.5484 -0.2282
 1294TIP3   OH225372   5.343   3.066  16.902 -0.0304 -0.2132  0.3587
 1294TIP3    H125373   5.253   3.053  16.871 -0.0905  1.6241 -0.2727
 1294TIP3    H225374   5.338   3.050  16.996 -0.8333 -1.0364  0.1850
 1295TIP3   OH225375   3.924   2.283  16.792  0.4970 -0.2040 -0.5338
 1295TIP3    H125376   3.974   2.343  16.847 -1.2530  0.2528  0.6261
 1295TIP3    H225377   3.948   2.196  16.824  2.6121 -0.1221 -1.8442
 1296TIP3   OH225378   5.991   2.625   0.757  0.0862 -0.2976 -0.0645
 1296TIP3    H125379   5.996   2.689   0.687 -1.0969 -1.7940 -1.5774
 1296TIP3    H225380   6.077   2.583   0.757  0.0935 -0.2906 -0.6368
 1297TIP3   OH225381   3.731   5.147  11.742 -0.0244  0.0848 -0.2184
 1297TIP3    H125382   3.736   5.071  11.684  0.6212 -0.1223  0.1014
 1297TIP3    H225383   3.682   5.212  11.692  2.5198  0.7363 -1.9191
 1298TIP3   OH225384   3.967   2.283   6.620  0.2730  0.1867 -0.3220
 1298TIP3    H125385   3.894   2.235   6.581 -0.4780  0.5169  0.6629
 1298TIP3    H225386   3.942   2.375   6.613  0.3074  0.2656  0.6150
 1299TIP3   OH225387   3.153   5.703  15.146 -0.1777  0.1110 -0.0559
 1299TIP3    H125388   3.137   5.797  15.152  0.4583  0.2544 -0.4921
 1299TIP3    H225389   3.142   5.683  15.053  1.2454  0.0478 -0.2170
 1300TIP3   OH225390   2.347   1.353  16.958 -0.7024  0.4798 -0.3273
 1300TIP3    H125391   2.431   1.389  16.931  0.3717  0.4944  2.8462
 1300TIP3    H225392   2.321   1.295  16.887  1.2920  1.5814 -1.9761
 1301TIP3   OH225393   0.795   0.723  11.513  0.1658 -0.2334 -0.0270
 1301TIP3    H125394   0.763   0.636  11.491 -1.6995 -0.1999  2.2773
 1301TIP3    H225395   0.853   0.709  11.588 -0.2276  0.5161  0.4250
 1302TIP3   OH225396   1.182   1.389  14.582 -0.4025  0.1495  0.3220
 1302TIP3    H125397   1.106   1.359  14.533  0.2714 -0.2051 -0.5180
 1302TIP3    H225398   1.218   1.461  14.530  0.6744 -0.6273 -0.0164
 1303TIP3   OH225399   2.841   4.634   3.140 -0.1278  0.5657  0.3678
 1303TIP3    H125400   2.838   4.542   3.112 -1.2768  0.8778 -0.5688
 1303TIP3    H225401   2.882   4.631   3.227 -0.1994 -0.8323  0.3699
 1304TIP3   OH225402   5.130   1.221   3.436 -0.2186  0.4932  0.1424
 1304TIP3    H125403   5.200   1.270   3.391 -2.5376  3.3230 -0.5775
 1304TIP3    H225404   5.175   1.168   3.501  2.6673  1.5601 -0.9158
 1305TIP3   OH225405   3.524   6.140  17.162 -0.0153  0.5631  0.5261
 1305TIP3    H125406   3.618   6.134  17.177  0.0794  2.6201  0.8965
 1305TIP3    H225407   3.511   6.097  17.077  0.8735 -1.9841  1.6567
 1306TIP3   OH225408   3.231   6.595  10.882  0.2971  0.1735 -0.5399
 1306TIP3    H125409   3.276   6.520  10.843 -2.5860 -1.3381 -1.0499
 1306TIP3    H225410   3.198   6.645  10.807 -0.5087  0.2300 -0.1511
 1307TIP3   OH225411   5.592   5.423  12.939 -0.6729 -0.0474  0.3470
 1307TIP3    H125412   5.529   5.450  13.006 -0.2567 -0.6994  1.0105
 1307TIP3    H225413   5.540   5.420  12.858 -0.7520  2.5555  0.2747
 1308TIP3   OH225414   6.127   2.019   2.237  0.3665  0.0278 -0.3938
 1308TIP3    H125415   6.118   2.025   2.142  0.3747  2.0494 -0.3000
 1308TIP3    H225416   6.216   1.987   2.251  0.1960 -0.7446 -1.0742
 1309TIP3   OH225417   4.051   0.336  15.840 -0.1945  0.4723 -0.2396
 1309TIP3    H125418   3.964   0.346  15.802 -0.9111 -1.0905  0.8981
 1309TIP3    H225419   4.053   0.397  15.913 -0.1197  0.9324 -0.6268
 1310TIP3   OH225420   1.544   0.490  11.368 -0.3660  0.0957 -0.1733
 1310TIP3    H125421   1.457   0.450  11.364 -0.5462  0.5230 -0.6205
 1310TIP3    H225422   1.563   0.498  11.461 -1.2434  0.9413 -0.0626
 1311TIP3   OH225423   5.375   1.371  16.132  0.4678 -0.4709  0.1229
 1311TIP3    H125424   5.433   1.369  16.056  0.1144  0.9554 -0.2029
 1311TIP3    H225425   5.293   1.405  16.099  0.4352  0.5605  1.2207
 1312TIP3   OH225426   0.381   5.556  12.175 -0.3740  0.0689 -0.1852
 1312TIP3    H125427   0.345   5.640  12.203 -2.0351 -1.2555  1.8076
 1312TIP3    H225428   0.358   5.550  12.082 -2.6319  0.6608  0.2883
 1313TIP3   OH225429   0.004   3.626   1.356 -0.6423  0.0279 -0.5854
 1313TIP3    H125430   0.066   3.557   1.378 -2.5612 -1.4175  0.4438
 1313TIP3    H225431   0.048   3.707   1.383  1.3825 -0.8132 -1.2587
 1314TIP3   OH225432   2.311   1.791  13.569  0.0530  0.0938  0.2381
 1314TIP3    H125433   2.387   1.849  13.572  0.4627 -0.4276 -0.2342
 1314TIP3    H225434   2.268   1.805  13.654  0.1672  1.0671  0.1437
 1315TIP3   OH225435   2.464   1.155   6.239  0.3645 -0.4272  0.1969
 1315TIP3    H125436   2.537   1.123   6.185 -0.2754 -2.8661  0.7094
 1315TIP3    H225437   2.506   1.212   6.304  1.5253  0.0198 -0.9232
 1316TIP3   OH225438   1.320   4.878   5.016  0.6898  0.1821 -0.4686
 1316TIP3    H125439   1.301   4.812   5.083  1.4117  0.3177 -0.1212
 1316TIP3    H225440   1.311   4.962   5.061 -2.8361  0.4497 -1.5721
 1317TIP3   OH225441   2.682   6.444  13.410  0.0071  0.0234  0.2077
 1317TIP3    H125442   2.661   6.534  13.386  1.5345  0.2928 -0.1818
 1317TIP3    H225443   2.621   6.422  13.481 -1.6762  0.6894 -1.0078
 1318TIP3   OH225444   4.929   1.925   2.109 -0.1310 -0.1547  0.0539
 1318TIP3    H125445   4.948   2.019   2.111 -1.3893  0.0969  1.2891
 1318TIP3    H225446   4.952   1.894   2.197 -0.3890 -0.8657 -0.1222
 1319TIP3   OH225447   2.085   5.235  15.655 -0.2066  0.1274  0.3828
 1319TIP3    H125448   2.135   5.297  15.709  3.4131 -1.2984 -1.1538
 1319TIP3    H225449   2.055   5.287  15.581  0.6567  0.6536  0.3866
 1320TIP3   OH225450   6.086   4.109   2.444 -0.0615  0.0733 -0.0049
 1320TIP3    H125451   6.120   4.065   2.367 -0.9830  1.7337 -1.3980
 1320TIP3    H225452   6.111   4.053   2.517  0.5603 -1.6737 -1.5329
 1321TIP3   OH225453   4.242   3.265  10.519  0.5431 -0.2929  0.0185
 1321TIP3    H125454   4.176   3.202  10.550  0.7166  0.4219  1.9215
 1321TIP3    H225455   4.322   3.241  10.567  0.4389  1.7658  1.2730
 1322TIP3   OH225456   2.745   0.049  16.004  0.3375 -0.2378  0.6903
 1322TIP3    H125457   2.743   0.125  16.062 -1.7119  1.2755 -1.2661
 1322TIP3    H225458   2.769   0.085  15.918 -0.8775 -1.7689 -0.3167
 1323TIP3   OH225459   6.315   0.199  14.669 -0.2451 -0.2687  0.7450
 1323TIP3    H125460   6.402   0.200  14.629  0.7790 -3.9759  2.6349
 1323TIP3    H225461   6.259   0.158  14.603 -0.5131  1.7581 -0.3200
 1324TIP3   OH225462   3.908   2.601   1.358  0.5359  0.1077  0.2160
 1324TIP3    H125463   3.899   2.525   1.299  1.6414 -1.3463  1.8677
 1324TIP3    H225464   3.869   2.571   1.440  3.4515  0.3546  1.7160
 1325TIP3   OH225465   0.712   3.844   3.293  0.3178  0.5978  0.2525
 1325TIP3    H125466   0.642   3.823   3.231  0.8097 -0.2289 -0.0252
 1325TIP3    H225467   0.777   3.891   3.240  1.3631 -1.2828 -0.1901
 1326TIP3   OH225468   5.807   1.208   6.060 -0.2915 -0.0046  0.5236
 1326TIP3    H125469   5.748   1.261   6.007  0.5630 -0.0537 -0.4891
 1326TIP3    H225470   5.888   1.203   6.009  0.8288  0.6408  2.2008
 1327TIP3   OH225471   4.898   4.363  16.405 -0.7748 -0.1882  0.4438
 1327TIP3    H125472   4.820   4.308  16.399 -0.0031 -1.1547 -1.5826
 1327TIP3    H225473   4.953   4.320  16.470 -0.5380 -1.3729 -0.5236
 1328TIP3   OH225474   1.515   6.001   2.435 -0.4760  0.4679  0.4775
 1328TIP3    H125475   1.456   6.066   2.397 -2.0753  0.1275  2.2540
 1328TIP3    H225476   1.480   5.986   2.523  0.5195 -1.9535  0.5083
 1329TIP3   OH225477   0.753   3.273  12.660 -0.4333 -0.4197 -0.3641
 1329TIP3    H125478   0.701   3.292  12.739 -0.4011  1.7507 -0.8529
 1329TIP3    H225479   0.781   3.358  12.628 -2.1349 -1.0852 -3.8977
 1330TIP3   OH225480   3.337   2.435  15.366  0.0014  0.3396  0.1503
 1330TIP3    H125481   3.374   2.510  15.318  2.0796  0.3560  1.7034
 1330TIP3    H225482   3.244   2.455  15.374  0.5398  2.8430  0.6379
 1331TIP3   OH225483   4.695   2.729   0.077  0.0793 -0.0959  0.2280
 1331TIP3    H125484   4.772   2.753   0.130  0.3853 -0.5435 -0.0093
 1331TIP3    H225485   4.628   2.791   0.104  0.4449  0.1331  0.6334
 1332TIP3   OH225486   3.236   3.507  11.816  0.1904  0.0785 -0.2332
 1332TIP3    H125487   3.163   3.560  11.849  0.4818  1.1782 -1.3393
 1332TIP3    H225488   3.194   3.439  11.763 -0.1017  0.0229  0.0670
 1333TIP3   OH225489   1.219   5.590   4.320  0.7682 -0.1338 -0.4233
 1333TIP3    H125490   1.221   5.675   4.276 -1.0412  0.6808  1.0519
 1333TIP3    H225491   1.309   5.556   4.310  1.6047  2.0966 -0.6909
 1334TIP3   OH225492   1.249   4.319  14.967 -0.2051 -0.5490  0.2028
 1334TIP3    H125493   1.232   4.413  14.973  1.6243 -0.2155  0.4978
 1334TIP3    H225494   1.182   4.279  15.023 -0.7406  0.6115  0.4005
 1335TIP3   OH225495   0.278   6.515  11.521 -0.0856 -0.0391  1.1089
 1335TIP3    H125496   0.308   6.521  11.430 -0.2046 -1.5180  0.9524
 1335TIP3    H225497   0.349   6.553  11.573  0.6708 -0.6325  0.5177
 1336TIP3   OH225498   4.722   2.933  17.135 -0.1723 -0.0066  0.3144
 1336TIP3    H125499   4.644   2.919  17.188 -0.7035 -0.8022 -0.6548
 1336TIP3    H225500   4.780   2.860  17.158 -1.1177 -1.3475 -1.4567
 1337TIP3   OH225501   3.585   1.393  16.855 -0.0987  0.1539 -0.8504
 1337TIP3    H125502   3.674   1.359  16.849  0.2137  0.3756  1.9380
 1337TIP3    H225503   3.585   1.470  16.797  1.2710 -0.3223 -1.5082
 1338TIP3   OH225504   3.956   0.448   0.384  0.0887 -0.5333  0.3288
 1338TIP3    H125505   4.016   0.455   0.310  0.2162  0.3752  0.5183
 1338TIP3    H225506   3.873   0.480   0.351  0.1659 -0.0491  0.6066
 1339TIP3   OH225507   5.096   1.087  14.695  0.1774  0.1016 -0.2238
 1339TIP3    H125508   5.157   1.140  14.746 -1.1715  1.1673  0.3245
 1339TIP3    H225509   5.019   1.078  14.751 -0.9183  0.4012 -1.6201
 1340TIP3   OH225510   6.507   0.298  13.902 -0.6624  0.6155 -0.2204
 1340TIP3    H125511   6.534   0.232  13.837 -2.8905 -0.4618 -0.0849
 1340TIP3    H225512   6.496   0.248  13.983  0.2697  1.6432  0.5534
 1341TIP3   OH225513   2.701   2.410  13.550 -0.4720 -0.1421  0.5254
 1341TIP3    H125514   2.747   2.327  13.563  0.3661  0.4382  1.3129
 1341TIP3    H225515   2.741   2.469  13.613 -1.1092  0.8513 -0.0002
 1342TIP3   OH225516   2.537   4.817  16.597  0.9742  0.5001  0.3473
 1342TIP3    H125517   2.492   4.760  16.660  0.1998 -0.2837 -0.8970
 1342TIP3    H225518   2.535   4.904  16.638  0.3754  0.0279  1.3536
 1343TIP3   OH225519   0.877   0.901  13.893  0.2547  0.3825 -0.5019
 1343TIP3    H125520   0.794   0.897  13.940 -0.0829  1.7941 -0.9620
 1343TIP3    H225521   0.898   0.994  13.889 -0.4098  0.4537 -4.3085
 1344TIP3   OH225522   5.313   3.633   4.670 -0.2875  0.5417  0.0489
 1344TIP3    H125523   5.379   3.657   4.605  0.3112 -0.5439  0.2311
 1344TIP3    H225524   5.246   3.586   4.620  0.5962 -1.0633  0.3136
 1345TIP3   OH225525   4.865   1.067   5.555 -0.1236  0.1609  0.1189
 1345TIP3    H125526   4.799   1.026   5.500 -0.3556  0.7053 -0.0068
 1345TIP3    H225527   4.877   1.155   5.519  0.1349  0.3237  0.5858
 1346TIP3   OH225528   6.235   5.170   4.333  0.5618  0.1134  0.0061
 1346TIP3    H125529   6.186   5.189   4.413  1.3649 -1.9860  1.0347
 1346TIP3    H225530   6.325   5.197   4.352  0.1375  2.5901 -1.3532
 1347TIP3   OH225531   1.474   1.125  11.811  0.1814 -0.5321  0.2997
 1347TIP3    H125532   1.471   1.056  11.746  0.5466 -0.6141  0.3701
 1347TIP3    H225533   1.395   1.177  11.795  0.1166 -0.7290 -0.0092
 1348TIP3   OH225534   4.908   4.113  12.973 -0.1825 -0.5549 -0.5983
 1348TIP3    H125535   4.877   4.201  12.994 -0.3573 -0.5581 -0.8457
 1348TIP3    H225536   4.834   4.056  12.992  1.0227 -1.0861  2.9390
 1349TIP3   OH225537   1.697   1.563  14.128  0.7089 -0.4733  0.3238
 1349TIP3    H125538   1.681   1.469  14.139  2.2574 -0.9544 -1.2692
 1349TIP3    H225539   1.756   1.585  14.200  0.1011 -0.6325  0.8856
 1350TIP3   OH225540   1.207   2.313   6.689  0.4439  0.1555  0.3402
 1350TIP3    H125541   1.116   2.326   6.713  0.6122  0.2090  0.9400
 1350TIP3    H225542   1.205   2.304   6.593  0.0280  1.9169  0.1765
 1351TIP3   OH225543   1.243   0.723  12.247  0.1359 -0.1103  0.7015
 1351TIP3    H125544   1.305   0.731  12.320  1.3529  2.0225 -0.5108
 1351TIP3    H225545   1.157   0.731  12.289  0.7491 -0.6790  2.1128
 1352TIP3   OH225546   1.045   3.901  12.048  0.3154  0.0046  0.3730
 1352TIP3    H125547   1.052   3.990  12.082 -3.6418  1.0455 -1.1894
 1352TIP3    H225548   1.024   3.848  12.124  0.5025  0.7789  0.9678
 1353TIP3   OH225549   3.233   2.843  15.062 -0.1825  0.0042 -0.3847
 1353TIP3    H125550   3.161   2.886  15.016 -2.0656  0.4932  2.8366
 1353TIP3    H225551   3.207   2.750  15.066 -0.3363  0.0681  0.2011
 1354TIP3   OH225552   6.678   4.595  12.726  0.8926 -0.2872  0.3400
 1354TIP3    H125553   6.730   4.626  12.800  1.1993 -0.3606  0.1552
 1354TIP3    H225554   6.602   4.552  12.767  1.3333 -0.8045  0.6260
 1355TIP3   OH225555   1.998   1.010   2.642  0.1467  0.1281  0.0703
 1355TIP3    H125556   1.997   0.964   2.558  0.1000  0.2091  0.0265
 1355TIP3    H225557   2.034   1.096   2.622  0.7976 -0.0931  0.2571
 1356TIP3   OH225558   3.241   6.739  14.098  0.6685 -0.3666 -0.1527
 1356TIP3    H125559   3.237   6.834  14.087  0.2916 -0.2662  0.7666
 1356TIP3    H225560   3.272   6.706  14.014  1.9661  0.6678 -0.0966
 1357TIP3   OH225561   6.037   6.564   0.256 -0.3505 -0.2040  0.4082
 1357TIP3    H125562   6.111   6.612   0.218 -1.4135  1.6126  0.5715
 1357TIP3    H225563   6.063   6.550   0.347 -0.4604  1.0241  0.6483
 1358TIP3   OH225564   4.701   0.303   3.745 -0.6507  0.6106  0.0948
 1358TIP3    H125565   4.776   0.247   3.726 -0.7037  0.6443 -0.2122
 1358TIP3    H225566   4.717   0.335   3.834 -0.3818  0.4909  0.0905
 1359TIP3   OH225567   3.699   5.301  15.160 -0.3237  0.4036 -0.1549
 1359TIP3    H125568   3.782   5.345  15.145 -0.4869  0.8524  0.2476
 1359TIP3    H225569   3.681   5.254  15.079 -0.7040  1.9728 -0.9920
 1360TIP3   OH225570   6.464   3.551   5.936  0.2306  0.2519 -0.3682
 1360TIP3    H125571   6.522   3.478   5.916  0.4539  0.9820 -2.5102
 1360TIP3    H225572   6.414   3.522   6.012  2.0324 -1.1520  0.3077
 1361TIP3   OH225573   1.757   0.386  16.233  0.6467 -0.1515  0.3543
 1361TIP3    H125574   1.828   0.430  16.279  0.4125  0.5140  0.0867
 1361TIP3    H225575   1.680   0.403  16.287  0.5890 -0.3761  0.3420
 1362TIP3   OH225576   2.925   5.424  15.596  0.2267  0.4808  0.5117
 1362TIP3    H125577   2.961   5.369  15.666  1.4114  2.2218  1.3025
 1362TIP3    H225578   2.864   5.482  15.641  1.5970  2.1537  0.2588
 1363TIP3   OH225579   0.369   6.321  11.021  0.9628  0.1333 -0.0696
 1363TIP3    H125580   0.292   6.304  10.967  0.0330  0.6184  1.1007
 1363TIP3    H225581   0.432   6.361  10.960 -0.1559  0.9034 -0.7455
 1364TIP3   OH225582   4.635   2.514  15.345 -0.3275 -0.6622  0.2727
 1364TIP3    H125583   4.611   2.551  15.260  1.6748  0.2500  0.0803
 1364TIP3    H225584   4.674   2.587  15.393 -0.7578 -1.3515  1.7104
 1365TIP3   OH225585   6.694   5.519  12.087 -0.3493  0.0593  0.0787
 1365TIP3    H125586   6.725   5.564  12.166 -2.0778  0.5844  0.4668
 1365TIP3    H225587   6.680   5.428  12.116  3.2317 -0.8342 -0.7298
 1366TIP3   OH225588   2.697   0.762   2.303 -0.0211  0.5994  0.0162
 1366TIP3    H125589   2.696   0.722   2.216 -0.3267 -0.6244  0.5768
 1366TIP3    H225590   2.605   0.784   2.321  0.2693  2.5732 -0.7344
 1367TIP3   OH225591   5.681   1.310  13.346  0.7790  0.3607  0.2970
 1367TIP3    H125592   5.654   1.219  13.332 -0.0414  0.4971  0.9052
 1367TIP3    H225593   5.641   1.333  13.430  0.1840  1.5731 -0.3118
 1368TIP3   OH225594   4.457   3.021  10.992 -0.5114 -0.3510  0.4865
 1368TIP3    H125595   4.551   3.008  10.981 -0.6143  0.0738 -0.9169
 1368TIP3    H225596   4.426   2.938  11.027  0.4292 -0.3903  1.2659
 1369TIP3   OH225597   3.656   2.337  14.467 -0.0363  0.4511  0.3578
 1369TIP3    H125598   3.746   2.307  14.451  0.0946  0.6253  0.7735
 1369TIP3    H225599   3.664   2.400  14.538 -0.6110 -0.1711  0.9725
 1370TIP3   OH225600   2.179   0.825  14.189 -0.0147 -0.2896  0.4334
 1370TIP3    H125601   2.133   0.834  14.106 -0.6200 -1.1544  0.6728
 1370TIP3    H225602   2.125   0.872  14.252 -0.2971 -0.8662  0.6180
 1371TIP3   OH225603   3.122   1.451   0.002 -1.0328  1.0372 -0.3730
 1371TIP3    H125604   3.184   1.398   0.052 -1.2992  0.3777 -0.7337
 1371TIP3    H225605   3.173   1.526  -0.027 -0.3455  0.3901 -0.8591
 1372TIP3   OH225606   6.016   6.009  13.762 -0.1193 -0.1729  0.2888
 1372TIP3    H125607   5.963   5.941  13.719 -0.1869  0.0955 -0.0535
 1372TIP3    H225608   6.057   6.056  13.690  2.4709 -1.8615  0.5990
 1373TIP3   OH225609   0.457   0.528  16.872 -0.0022  0.1337  0.7674
 1373TIP3    H125610   0.545   0.552  16.843  0.4676 -1.3885  0.9011
 1373TIP3    H225611   0.469   0.499  16.963 -0.1015 -3.0336 -0.1626
 1374TIP3   OH225612   0.007   4.806   3.749 -0.3142 -0.1233  0.5700
 1374TIP3    H125613   0.078   4.765   3.798  0.2132  0.1701  0.0525
 1374TIP3    H225614  -0.068   4.803   3.809 -0.2000 -1.5459  0.6616
 1375TIP3   OH225615   1.846   5.361   3.946 -0.1985  0.1231 -0.0756
 1375TIP3    H125616   1.829   5.284   4.000 -0.3942  1.8245  2.3101
 1375TIP3    H225617   1.817   5.335   3.858 -0.0151 -2.6068  0.6346
 1376TIP3   OH225618   5.548   1.976   6.484 -0.1278  0.0646 -0.3388
 1376TIP3    H125619   5.613   1.906   6.494 -0.0476  0.3080  0.9254
 1376TIP3    H225620   5.464   1.933   6.500 -0.0538  0.3103  0.7555
 1377TIP3   OH225621   4.916   5.351  15.124 -0.4004  0.3203 -0.2383
 1377TIP3    H125622   4.837   5.402  15.107 -0.3784  0.2033 -0.6882
 1377TIP3    H225623   4.988   5.414  15.115 -0.5293  0.7672  1.6154
 1378TIP3   OH225624   2.817   0.900  13.330  0.5191  0.4116  0.0372
 1378TIP3    H125625   2.844   0.809  13.334 -1.3403 -0.2770 -1.9627
 1378TIP3    H225626   2.835   0.935  13.418  0.0358 -2.2153  1.2153
 1379TIP3   OH225627   4.916   0.661   3.907  0.3051 -0.0466 -0.3130
 1379TIP3    H125628   4.865   0.648   3.987  1.1943  0.2075  0.3089
 1379TIP3    H225629   4.944   0.573   3.881 -1.1402 -0.2714 -1.1254
 1380TIP3   OH225630   6.695   6.792   4.567 -0.5721  0.3881  0.7903
 1380TIP3    H125631   6.643   6.728   4.616  0.7711 -0.6834  0.8534
 1380TIP3    H225632   6.749   6.739   4.509  1.6500  1.3653  1.8946
 1381TIP3   OH225633   0.185   1.743  14.070  0.1906 -0.4228  0.5615
 1381TIP3    H125634   0.274   1.728  14.101  0.8308  1.0196 -0.5184
 1381TIP3    H225635   0.130   1.726  14.147  1.5436  0.5570  1.7943
 1382TIP3   OH225636   3.724   3.092  14.377 -0.1871  0.1818 -0.0542
 1382TIP3    H125637   3.812   3.074  14.343  0.2789  0.6081  0.9177
 1382TIP3    H225638   3.739   3.145  14.455 -1.3532  0.9972 -0.3789
 1383TIP3   OH225639   5.584   4.914  11.221  0.0743 -0.5884 -0.3712
 1383TIP3    H125640   5.518   4.862  11.266  0.1592 -1.5977 -1.4035
 1383TIP3    H225641   5.666   4.868  11.237  0.1279 -0.8485 -1.4203
 1384TIP3   OH225642   4.246   2.165   1.551 -0.4438  0.1843 -0.1463
 1384TIP3    H125643   4.327   2.130   1.588 -1.6166 -0.7014  1.6889
 1384TIP3    H225644   4.177   2.131   1.609 -2.1507  0.6551 -1.8573
 1385TIP3   OH225645   3.726   5.640  14.696 -0.2024  0.1285 -0.1672
 1385TIP3    H125646   3.686   5.706  14.754 -0.3108 -0.2508  0.1884
 1385TIP3    H225647   3.733   5.562  14.750 -0.8444 -0.4051 -0.8468
 1386TIP3   OH225648   2.863   5.347  14.380 -0.4709  0.1122  0.1915
 1386TIP3    H125649   2.893   5.344  14.471  0.2607  0.2638 -0.0473
 1386TIP3    H225650   2.804   5.423  14.377 -0.1857  0.3432  0.4409
 1387TIP3   OH225651   4.991   4.749  11.500 -0.2352 -0.0220  0.3177
 1387TIP3    H125652   5.000   4.714  11.411 -0.5839 -1.9024  0.9793
 1387TIP3    H225653   5.053   4.822  11.504 -1.2271  0.9754 -1.8935
 1388TIP3   OH225654   1.139   4.138  16.723  0.3757 -0.2457  0.2301
 1388TIP3    H125655   1.044   4.136  16.714  0.5242  0.0648 -1.5123
 1388TIP3    H225656   1.172   4.095  16.644  1.6781 -0.8360  1.0749
 1389TIP3   OH225657   0.923   0.827   6.484 -0.4200  0.0150 -0.3744
 1389TIP3    H125658   0.900   0.792   6.570 -1.1869  0.7263 -0.2776
 1389TIP3    H225659   0.850   0.799   6.428 -0.4678  0.4852 -0.5461
 1390TIP3   OH225660   3.546   0.211  13.512 -0.2673 -0.0196  0.0014
 1390TIP3    H125661   3.588   0.268  13.576 -0.7934 -0.3272  0.6181
 1390TIP3    H225662   3.491   0.152  13.563  0.8503 -1.6088 -0.5582
 1391TIP3   OH225663   4.065   4.828  14.908 -0.1560 -0.1191 -0.4495
 1391TIP3    H125664   4.042   4.735  14.902 -0.4405 -0.1212  0.5530
 1391TIP3    H225665   4.155   4.829  14.940  0.5813 -0.0708 -2.4148
 1392TIP3   OH225666   1.535   4.126  13.999 -0.0832 -0.1301 -0.2181
 1392TIP3    H125667   1.609   4.166  13.953  0.1606 -0.4495 -0.1015
 1392TIP3    H225668   1.515   4.188  14.070 -1.5898  1.2406 -1.7968
 1393TIP3   OH225669   1.223   2.573   5.282 -0.2183  0.2411  0.0655
 1393TIP3    H125670   1.242   2.615   5.198 -1.0557  0.8129  0.1591
 1393TIP3    H225671   1.258   2.484   5.273 -0.9759  0.0617 -1.1530
 1394TIP3   OH225672   6.601   2.605   6.045  0.1237  0.1699  0.2116
 1394TIP3    H125673   6.577   2.696   6.026  0.2951  0.5357  1.6648
 1394TIP3    H225674   6.618   2.604   6.139 -0.1273 -1.4329  0.2533
 1395TIP3   OH225675   2.177   3.501  13.577  0.0627  0.2703  0.0948
 1395TIP3    H125676   2.105   3.535  13.524  0.7765 -0.2787 -1.2627
 1395TIP3    H225677   2.141   3.423  13.619 -0.3874  0.4814  0.1098
 1396TIP3   OH225678   3.952   2.044   4.573 -0.0210 -0.5720  0.4910
 1396TIP3    H125679   3.892   2.114   4.597 -0.5643 -0.4518 -1.1486
 1396TIP3    H225680   3.928   2.021   4.483  1.5403 -1.3974  0.2548
 1397TIP3   OH225681   3.753   6.004  16.301 -0.2244 -0.2675 -0.6774
 1397TIP3    H125682   3.682   6.045  16.349  0.5003 -0.6750  0.8038
 1397TIP3    H225683   3.732   6.016  16.209 -2.6139 -1.1037 -0.2562
 1398TIP3   OH225684   2.022   6.565  14.843 -0.0405 -0.3700 -0.1825
 1398TIP3    H125685   1.997   6.526  14.759  0.2268  0.8038 -0.8204
 1398TIP3    H225686   2.036   6.490  14.901 -1.1112 -1.1591 -0.9290
 1399TIP3   OH225687   1.288   3.470   4.349 -0.1037  0.0718  0.3856
 1399TIP3    H125688   1.203   3.505   4.375  0.7168  0.5784  2.5021
 1399TIP3    H225689   1.273   3.377   4.335 -1.3149  0.4178 -0.7983
 1400TIP3   OH225690   4.770   3.868   3.464 -0.2967 -0.0620  0.5325
 1400TIP3    H125691   4.822   3.851   3.386  0.7401 -0.4053  1.2834
 1400TIP3    H225692   4.697   3.921   3.433 -0.0423 -0.4136 -0.7092
 1401TIP3   OH225693   6.093   0.797   2.930  0.4895  0.1807  0.4213
 1401TIP3    H125694   6.014   0.748   2.954 -0.7943  0.2241 -3.3784
 1401TIP3    H225695   6.070   0.889   2.943 -0.2562  0.2107 -0.9612
 1402TIP3   OH225696   0.930   6.517  12.523 -0.0318  0.5769 -0.6569
 1402TIP3    H125697   0.908   6.458  12.450 -0.2029  2.1710 -1.9091
 1402TIP3    H225698   0.848   6.561  12.544 -0.1056 -0.2502  0.8740
 1403TIP3   OH225699   3.073   4.661  13.424 -0.7836 -0.0361  0.1868
 1403TIP3    H125700   3.155   4.676  13.471 -2.1322  2.4458  1.8770
 1403TIP3    H225701   3.028   4.594  13.475 -0.5771 -0.0952  0.2947
 1404TIP3   OH225702   1.115   6.117   5.454  0.1953  0.3625 -0.0294
 1404TIP3    H125703   1.130   6.068   5.373  1.4690  0.9869 -0.1876
 1404TIP3    H225704   1.027   6.091   5.482  0.2215 -0.7807 -0.9620
 1405TIP3   OH225705   2.752   2.896  15.556  0.0343 -0.3874  0.8029
 1405TIP3    H125706   2.678   2.838  15.541 -0.6695  0.6261  0.3310
 1405TIP3    H225707   2.720   2.983  15.533  1.9425 -0.1816 -1.2638
 1406TIP3   OH225708   1.474   0.369  15.826  0.4583 -0.1388  0.2811
 1406TIP3    H125709   1.534   0.344  15.896  0.4628  0.7346  0.5956
 1406TIP3    H225710   1.419   0.292  15.812  1.4084 -0.8158  0.2458
 1407TIP3   OH225711   2.253   0.657   3.471  0.1669 -0.3634  0.2996
 1407TIP3    H125712   2.229   0.729   3.412  0.1035 -0.3857  0.2974
 1407TIP3    H225713   2.348   0.660   3.476  0.3460 -1.8092 -1.6467
 1408TIP3   OH225714   5.468   2.070  11.657 -0.4161 -0.0996 -0.1623
 1408TIP3    H125715   5.450   2.114  11.573 -2.0925  0.0684  0.2711
 1408TIP3    H225716   5.381   2.044  11.689  0.1744  0.2598  1.7550
 1409TIP3   OH225717   0.614   5.478  15.253 -0.2371  0.2789  0.9283
 1409TIP3    H125718   0.539   5.419  15.239  0.2419 -0.2234  0.4753
 1409TIP3    H225719   0.689   5.429  15.221 -0.0429  1.7404 -0.8950
 1410TIP3   OH225720   2.898   3.894   5.668 -0.2389 -0.1391  0.4811
 1410TIP3    H125721   2.828   3.919   5.728 -0.7092 -0.4592  0.0721
 1410TIP3    H225722   2.925   3.975   5.626 -0.5458 -0.0527  0.4514
 1411TIP3   OH225723   3.412   6.046   6.342 -0.7476 -0.1347 -0.1602
 1411TIP3    H125724   3.412   5.997   6.260  0.7719  1.0213 -0.8697
 1411TIP3    H225725   3.504   6.070   6.356 -0.7391 -1.5069  2.6083
 1412TIP3   OH225726   0.585   4.913  12.368  0.0518 -0.0905 -0.2930
 1412TIP3    H125727   0.622   4.973  12.433  1.1071 -0.1138 -0.8606
 1412TIP3    H225728   0.494   4.941  12.358 -0.0034  0.1700  0.8850
 1413TIP3   OH225729   3.309   3.949  14.233 -0.4776  0.3114 -0.1686
 1413TIP3    H125730   3.403   3.932  14.231 -0.4329  0.5186  0.0783
 1413TIP3    H225731   3.302   4.035  14.274 -0.7428  0.5425 -0.7024
 1414TIP3   OH225732   6.531   4.790  11.232 -0.2516  0.4396  0.4196
 1414TIP3    H125733   6.488   4.749  11.306 -0.9988  0.9363  0.2673
 1414TIP3    H225734   6.496   4.744  11.155 -0.8158  1.1092  0.2722
 1415TIP3   OH225735   5.196   1.015   2.978 -0.1226  0.1717 -0.2832
 1415TIP3    H125736   5.288   1.012   2.954  0.5308  1.8611  1.8221
 1415TIP3    H225737   5.196   1.007   3.074 -2.2313 -0.7383 -0.3209
 1416TIP3   OH225738   3.435   5.172  16.561  0.4420  0.5986 -0.0886
 1416TIP3    H125739   3.419   5.084  16.525  2.4730  0.7964 -1.5993
 1416TIP3    H225740   3.350   5.201  16.592  0.1218 -2.7938  2.4967
 1417TIP3   OH225741   5.050   4.866  16.106  0.6007 -0.1692  0.4521
 1417TIP3    H125742   5.081   4.880  16.017  3.0136  0.2435  1.3294
 1417TIP3    H225743   4.968   4.916  16.111  0.5202 -0.0798 -1.4686
 1418TIP3   OH225744   4.975   1.435  16.960  0.3319  0.6274  0.5736
 1418TIP3    H125745   5.058   1.482  16.957  1.9528 -2.1554  0.5270
 1418TIP3    H225746   4.969   1.402  17.049  1.2061 -2.4704 -0.4617
 1419TIP3   OH225747   1.246   2.178   0.132 -0.4314  0.5825  0.3553
 1419TIP3    H125748   1.290   2.233   0.068 -0.7297  0.6859  0.2403
 1419TIP3    H225749   1.309   2.168   0.203 -0.3961  1.1070  0.3961
 1420TIP3   OH225750   2.127   5.892   6.092 -0.2952  0.2442 -0.0436
 1420TIP3    H125751   2.172   5.809   6.080  2.3242  1.6472 -0.3885
 1420TIP3    H225752   2.128   5.907   6.186  0.8750  0.7438 -0.1304
 1421TIP3   OH225753   6.079   0.982  14.851  0.0355 -0.8204  0.0373
 1421TIP3    H125754   6.099   0.969  14.758 -1.4540  0.0036 -0.4126
 1421TIP3    H225755   5.991   0.945  14.861  0.2762 -1.0922  1.1729
 1422TIP3   OH225756   4.146   6.203  11.694 -0.2887 -0.7886  0.2100
 1422TIP3    H125757   4.122   6.139  11.627 -1.8014  0.9754 -0.9720
 1422TIP3    H225758   4.181   6.278  11.645  2.7586 -1.1918  1.6419
 1423TIP3   OH225759   6.115   6.429  14.686 -0.0057  0.4136  0.8466
 1423TIP3    H125760   6.157   6.487  14.623 -0.0416 -0.6528 -0.1858
 1423TIP3    H225761   6.112   6.479  14.767 -1.4004  2.4269 -0.3924
 1424TIP3   OH225762   4.386   3.619   3.925  0.2864 -0.6098 -0.0693
 1424TIP3    H125763   4.412   3.531   3.898  0.5262 -0.6478  0.2801
 1424TIP3    H225764   4.336   3.605   4.006  0.1094 -0.4462 -0.1505
 1425TIP3   OH225765   2.729   1.928   4.427 -0.1788 -0.0787 -0.1094
 1425TIP3    H125766   2.733   1.943   4.522  1.4007  0.7549 -0.3012
 1425TIP3    H225767   2.636   1.916   4.409 -0.3956 -1.3664  1.7249
 1426TIP3   OH225768   0.838   6.028   3.494  0.0632  0.6502  0.5437
 1426TIP3    H125769   0.816   5.977   3.572  1.4843 -0.1886  0.4072
 1426TIP3    H225770   0.777   6.102   3.497 -2.6245 -1.4614  0.2814
 1427TIP3   OH225771   0.940   1.831   3.696 -0.0301  0.3942  0.0491
 1427TIP3    H125772   0.873   1.766   3.715 -1.1190  1.0783 -1.3174
 1427TIP3    H225773   0.920   1.904   3.756 -0.4698  0.5758 -0.3199
 1428TIP3   OH225774   1.857   0.824  14.983 -0.1580 -0.1151 -0.6050
 1428TIP3    H125775   1.827   0.755  14.924 -0.9350 -0.4290  0.1518
 1428TIP3    H225776   1.776   0.865  15.015  0.2479 -0.1285  0.4496
 1429TIP3   OH225777   2.830   0.575  13.863  0.3542 -0.8298 -0.3114
 1429TIP3    H125778   2.804   0.667  13.870  1.1269 -0.5942 -0.5323
 1429TIP3    H225779   2.748   0.526  13.869  0.0371 -0.1765  0.9121
 1430TIP3   OH225780   4.932   1.326   1.201  0.1005 -0.1477 -0.5307
 1430TIP3    H125781   4.929   1.270   1.279  1.7406 -0.2148 -0.4923
 1430TIP3    H225782   4.898   1.411   1.231 -1.8748 -0.9497 -0.4541
 1431TIP3   OH225783   0.677   0.331   1.741  0.1566  0.1732 -0.2333
 1431TIP3    H125784   0.608   0.304   1.801 -0.6057  2.9555  0.1935
 1431TIP3    H225785   0.742   0.260   1.745 -0.3107 -0.1194  3.1419
 1432TIP3   OH225786   2.134   6.662  13.149  0.0335  0.3907 -0.3483
 1432TIP3    H125787   2.079   6.659  13.227 -1.0938  2.2211 -1.0153
 1432TIP3    H225788   2.088   6.722  13.090  1.2994 -0.2856 -2.0770
 1433TIP3   OH225789   1.066   2.637  14.427  0.1358 -0.1172  0.4396
 1433TIP3    H125790   1.002   2.680  14.370  0.2502 -1.3008 -0.6027
 1433TIP3    H225791   1.134   2.703  14.441 -0.9427  0.9098  0.9769
 1434TIP3   OH225792   3.735   5.065  13.230  0.4744 -0.4654  0.0628
 1434TIP3    H125793   3.752   4.998  13.164 -0.8019  0.7238 -1.5075
 1434TIP3    H225794   3.649   5.043  13.266 -0.4639  0.9115 -1.2481
 1435TIP3   OH225795   0.646   5.683  12.205  0.1218  0.4469 -0.4739
 1435TIP3    H125796   0.637   5.735  12.284  0.2583  1.7595 -1.3120
 1435TIP3    H225797   0.568   5.628  12.203  0.0752  0.4715  0.5170
 1436TIP3   OH225798   6.756   3.248   2.607  0.3983 -0.2357 -0.3208
 1436TIP3    H125799   6.739   3.315   2.673 -2.6825 -0.8957 -0.3978
 1436TIP3    H225800   6.764   3.297   2.525 -0.1968  0.2041 -0.1228
 1437TIP3   OH225801   1.745   3.563   5.668 -0.0800 -0.0676  0.0977
 1437TIP3    H125802   1.779   3.641   5.712 -0.7620 -0.7338  1.8787
 1437TIP3    H225803   1.767   3.575   5.576  2.6700  0.7158  0.8235
 1438TIP3   OH225804   4.989   5.101   2.323 -0.0304  0.4562  0.3372
 1438TIP3    H125805   5.057   5.160   2.289 -0.0924 -0.7774 -2.0401
 1438TIP3    H225806   5.031   5.057   2.397  2.2004 -1.0049 -1.6835
 1439TIP3   OH225807   2.904   6.690   4.138 -0.1126  0.1729  0.0247
 1439TIP3    H125808   2.817   6.668   4.173 -0.6387 -0.5556 -1.7177
 1439TIP3    H225809   2.900   6.785   4.124 -1.4597 -0.1712 -2.2033
 1440TIP3   OH225810   1.554   2.187   4.323  0.5980 -0.7140 -0.2214
 1440TIP3    H125811   1.468   2.212   4.358  0.9164 -1.1141  0.8704
 1440TIP3    H225812   1.534   2.148   4.238 -0.1218  0.9412 -0.8304
 1441TIP3   OH225813   6.126   2.024   1.970 -0.1030 -0.4002  0.2124
 1441TIP3    H125814   6.056   1.972   1.931  0.4746  0.4097 -1.9690
 1441TIP3    H225815   6.205   1.971   1.958  0.1071 -0.0678  0.1228
 1442TIP3   OH225816   0.890   2.357   0.582 -0.1289  0.0410  0.3112
 1442TIP3    H125817   0.845   2.348   0.498 -2.9610  2.3812  1.4819
 1442TIP3    H225818   0.865   2.279   0.631  2.7748 -2.1086 -1.4794
 1443TIP3   OH225819   6.174   5.687  15.230  0.0122  0.0236  0.1920
 1443TIP3    H125820   6.137   5.613  15.278 -3.7646 -0.3072 -3.0047
 1443TIP3    H225821   6.178   5.757  15.294 -2.6667 -1.0598  1.6335
 1444TIP3   OH225822   5.431   4.477  11.951  0.4863  0.0829  0.3236
 1444TIP3    H125823   5.372   4.548  11.926 -0.1451 -0.9780 -1.3387
 1444TIP3    H225824   5.491   4.516  12.015 -1.0003  1.6014  0.8282
 1445TIP3   OH225825   3.628   5.676  15.416 -0.4407 -0.5866  0.0810
 1445TIP3    H125826   3.652   5.705  15.328  1.4346 -0.4543  0.6033
 1445TIP3    H225827   3.639   5.581  15.413  1.1462 -0.4409  0.5789
 1446TIP3   OH225828   1.094   3.484  15.107  0.0385 -0.4594  0.2475
 1446TIP3    H125829   1.087   3.398  15.147  2.2112 -0.2639  1.1505
 1446TIP3    H225830   1.173   3.522  15.146 -1.0408  2.0561  0.1044
 1447TIP3   OH225831   0.860   6.027   3.105 -0.0298 -0.4716  0.2750
 1447TIP3    H125832   0.775   6.001   3.141 -1.2792 -0.4160 -2.5039
 1447TIP3    H225833   0.839   6.088   3.035  2.3730  0.3164  0.1971
 1448TIP3   OH225834   3.271   4.370  16.030  0.9550  0.0657 -0.3021
 1448TIP3    H125835   3.330   4.321  16.088  1.3559  1.4449  0.4892
 1448TIP3    H225836   3.286   4.332  15.944 -0.0591 -2.3989  0.5468
 1449TIP3   OH225837   4.247   4.963   0.505 -0.4626  0.0691  0.6876
 1449TIP3    H125838   4.315   4.899   0.524  0.2521  0.7990  0.6538
 1449TIP3    H225839   4.228   5.004   0.589 -0.2077  0.4929  0.5410
 1450TIP3   OH225840   1.504   5.622  16.890  0.6173  0.0787 -0.3119
 1450TIP3    H125841   1.491   5.675  16.812 -2.6831  1.0523  0.7871
 1450TIP3    H225842   1.472   5.535  16.865 -0.0758  0.2940 -0.2067
 1451TIP3   OH225843   5.516   4.664  16.997 -0.3217  0.1095 -0.4873
 1451TIP3    H125844   5.556   4.726  17.058 -1.3682  0.6001 -0.2875
 1451TIP3    H225845   5.523   4.579  17.041 -0.6593  0.3911  0.1195
 1452TIP3   OH225846   5.574   1.533  10.712  0.1299 -0.0563  0.1794
 1452TIP3    H125847   5.627   1.582  10.649 -1.3197 -1.8796 -2.5904
 1452TIP3    H225848   5.635   1.472  10.752  0.5849 -0.6923 -1.4342
 1453TIP3   OH225849   3.528   5.343   4.012  0.3963  0.6519  1.3721
 1453TIP3    H125850   3.513   5.248   4.016 -0.3255  0.6943  0.0021
 1453TIP3    H225851   3.473   5.373   3.940  1.8439  1.8784  0.7413
 1454TIP3   OH225852   1.054   3.051   0.320 -0.5306  0.2099 -0.4286
 1454TIP3    H125853   1.009   3.034   0.237 -0.1627  0.7653 -0.7426
 1454TIP3    H225854   0.994   3.018   0.387  0.1106 -2.2735 -1.0183
 1455TIP3   OH225855   3.380   0.790  11.490  0.3396  0.2111  0.1145
 1455TIP3    H125856   3.325   0.749  11.424  0.6165  3.4310 -2.2457
 1455TIP3    H225857   3.320   0.846  11.540  0.5899 -0.2144  0.9011
 1456TIP3   OH225858   6.094   1.691  11.513 -0.2940  0.0074 -0.4026
 1456TIP3    H125859   6.180   1.709  11.552 -1.2834 -1.9427  2.9047
 1456TIP3    H225860   6.067   1.774  11.475  0.8792  2.0499  2.9602
 1457TIP3   OH225861   0.293   6.720  14.679 -0.2536  0.3052  0.0230
 1457TIP3    H125862   0.334   6.693  14.761  0.0489 -0.2228 -0.3036
 1457TIP3    H225863   0.241   6.797  14.703  2.3755  2.1425  0.1095
 1458TIP3   OH225864   5.767   2.824  15.173 -0.0740  0.2643 -0.1662
 1458TIP3    H125865   5.807   2.844  15.258  0.5108 -1.9726  0.1094
 1458TIP3    H225866   5.834   2.847  15.109  0.5164 -0.5779  0.1357
 1459TIP3   OH225867   4.329   4.058  15.281  0.3112 -0.2005  0.0429
 1459TIP3    H125868   4.291   3.988  15.229  0.6381 -1.9233  2.0998
 1459TIP3    H225869   4.259   4.084  15.342  0.7361  0.1436  0.3856
 1460TIP3   OH225870   4.602   1.032   1.088 -0.4987 -0.2449  0.5523
 1460TIP3    H125871   4.623   0.949   1.131  0.8594 -0.9008 -1.3467
 1460TIP3    H225872   4.687   1.070   1.065 -1.1718  0.6098 -0.5713
 1461TIP3   OH225873   0.364   5.992   2.204  0.2957 -0.6741 -0.1917
 1461TIP3    H125874   0.320   6.072   2.232  1.2163 -0.5926  1.0520
 1461TIP3    H225875   0.314   5.962   2.128  0.9938  2.0434 -1.7809
 1462TIP3   OH225876   0.197   4.174  15.738 -0.8583  0.6652  0.3822
 1462TIP3    H125877   0.150   4.123  15.672  1.0593 -1.3373  0.4763
 1462TIP3    H225878   0.136   4.182  15.811 -1.6164 -0.5156 -0.1042
 1463TIP3   OH225879   4.575   1.459  12.808 -0.4532  0.2170  0.5780
 1463TIP3    H125880   4.482   1.467  12.787 -0.0536 -0.7725 -1.8206
 1463TIP3    H225881   4.599   1.371  12.776  1.1632  0.2335  1.6841
 1464TIP3   OH225882   4.277   2.574   5.770 -0.2051  0.6410  0.5629
 1464TIP3    H125883   4.355   2.533   5.808 -0.0831  1.0303  0.7348
 1464TIP3    H225884   4.302   2.596   5.681 -0.1779  0.6040  0.5611
 1465TIP3   OH225885   1.997   6.607  16.978 -0.6928 -0.9106  0.1001
 1465TIP3    H125886   1.963   6.668  17.043 -0.5807 -0.6510 -0.0816
 1465TIP3    H225887   2.085   6.638  16.959 -0.9041 -0.6941 -0.5441
 1466TIP3   OH225888   5.585   2.985   1.386  0.7270  0.2392  0.4934
 1466TIP3    H125889   5.546   3.072   1.380 -0.2696 -0.3186 -2.1354
 1466TIP3    H225890   5.535   2.941   1.454 -1.2649  0.5658 -0.7086
 1467TIP3   OH225891   6.357   1.698  11.543  0.7094  0.2394  0.2768
 1467TIP3    H125892   6.398   1.695  11.630 -1.6111  2.3258  1.5034
 1467TIP3    H225893   6.427   1.726  11.484  1.8225  0.7144  1.8033
 1468TIP3   OH225894   0.171   3.456  12.262 -0.6698 -0.1354 -0.1063
 1468TIP3    H125895   0.125   3.519  12.206 -1.5924 -0.9010 -0.2166
 1468TIP3    H225896   0.192   3.383  12.204  0.0218 -0.1291  0.1241
 1469TIP3   OH225897   4.199   2.366   3.732 -0.0584  0.4251  0.9319
 1469TIP3    H125898   4.289   2.335   3.737 -0.1551  0.1854  1.2031
 1469TIP3    H225899   4.162   2.323   3.655  0.3782  1.3682  0.1786
 1470TIP3   OH225900   6.193   2.687   4.301 -0.2512  0.0930 -0.4809
 1470TIP3    H125901   6.192   2.592   4.310  1.4628  0.1909  0.9341
 1470TIP3    H225902   6.243   2.703   4.220 -0.9598 -0.2210 -0.9799
 1471TIP3   OH225903   4.340   4.719   4.276  0.5702  0.2381 -0.4185
 1471TIP3    H125904   4.362   4.713   4.183 -0.0774  0.5024 -0.5948
 1471TIP3    H225905   4.249   4.690   4.281  0.0925  1.7342 -0.0999
 1472TIP3   OH225906   4.377   1.363  11.242 -0.4279 -0.2404  0.0846
 1472TIP3    H125907   4.458   1.313  11.251 -1.0648 -1.3430 -0.1746
 1472TIP3    H225908   4.404   1.454  11.251  0.7502 -0.6268  0.5986
 1473TIP3   OH225909   5.271   5.075  16.916  0.2158 -0.2561 -0.2748
 1473TIP3    H125910   5.207   5.138  16.949 -0.5219 -1.6477  0.9886
 1473TIP3    H225911   5.336   5.068  16.986 -0.3312 -1.7725  0.0917
 1474TIP3   OH225912   3.314   6.064  13.551 -0.1794  0.0624 -0.1147
 1474TIP3    H125913   3.263   6.094  13.627 -0.9194 -0.9632 -0.1949
 1474TIP3    H225914   3.401   6.047  13.587  0.0155  1.4386  0.1054
 1475TIP3   OH225915   0.874   5.129   3.700 -0.8695  0.6178 -0.6093
 1475TIP3    H125916   0.872   5.216   3.741 -1.7235  0.4544 -0.2766
 1475TIP3    H225917   0.816   5.076   3.755 -1.8948  0.3430 -1.9222
 1476TIP3   OH225918   0.467   0.672   4.841 -0.4046 -0.6033  0.3878
 1476TIP3    H125919   0.494   0.621   4.917  0.3947 -2.2692 -0.9650
 1476TIP3    H225920   0.543   0.725   4.819 -0.4811 -0.4549  0.4810
 1477TIP3   OH225921   5.549   4.513   4.075 -0.2330  0.3608  0.3044
 1477TIP3    H125922   5.572   4.590   4.127  1.7103 -1.3194  1.9984
 1477TIP3    H225923   5.630   4.462   4.069 -1.1799 -0.9670 -1.8378
 1478TIP3   OH225924   6.184   0.796   3.980  0.2832 -0.1682 -0.2441
 1478TIP3    H125925   6.275   0.771   3.968  1.5881  2.5799  3.0851
 1478TIP3    H225926   6.151   0.812   3.892  3.1788 -0.6185 -1.4583
 1479TIP3   OH225927   0.098   5.541   1.307 -0.3182  0.3597 -0.3279
 1479TIP3    H125928   0.185   5.510   1.283 -0.7171  0.2807 -1.7132
 1479TIP3    H225929   0.060   5.470   1.359  1.0733  1.0942  1.7556
 1480TIP3   OH225930   3.926   0.554   3.641 -0.2607  0.3390 -0.0229
 1480TIP3    H125931   3.933   0.478   3.698  0.1258  0.5413  0.2021
 1480TIP3    H225932   4.012   0.562   3.601 -0.2655  0.7268  0.0420
 1481TIP3   OH225933   3.244   4.363  14.235  0.5175  0.1843 -0.0609
 1481TIP3    H125934   3.265   4.442  14.284  2.7047 -0.4115 -0.0069
 1481TIP3    H225935   3.219   4.299  14.303  0.9323  0.1541  0.0623
 1482TIP3   OH225936   1.130   2.936   4.523 -0.0273 -0.3893  0.0906
 1482TIP3    H125937   1.087   2.927   4.437  1.8108  1.5146 -1.0753
 1482TIP3    H225938   1.091   3.016   4.560  0.5720 -0.1301  0.1649
 1483TIP3   OH225939   3.152   5.290   6.918  1.0747  0.3340 -0.3292
 1483TIP3    H125940   3.208   5.360   6.884  1.4290  0.0790 -0.2794
 1483TIP3    H225941   3.067   5.303   6.876  1.5912 -0.1566 -1.5313
 1484TIP3   OH225942   1.144   2.259   6.439 -0.0941  0.1006 -0.3243
 1484TIP3    H125943   1.054   2.288   6.427 -0.5799  1.0010  4.3267
 1484TIP3    H225944   1.139   2.163   6.433 -1.1246  0.2049 -1.2522
 1485TIP3   OH225945   4.061   4.330  14.587 -0.1911 -0.3295 -0.4491
 1485TIP3    H125946   4.035   4.289  14.504  1.2060  1.9243 -2.0592
 1485TIP3    H225947   3.991   4.391  14.607  0.6264  0.9302 -1.3179
 1486TIP3   OH225948   1.909   3.307   2.711 -0.5819 -0.5329  0.2576
 1486TIP3    H125949   1.906   3.401   2.731 -0.4774 -0.8050  1.6197
 1486TIP3    H225950   1.978   3.299   2.646 -2.3992  0.6657 -1.9001
 1487TIP3   OH225951   6.633   1.698  12.109  0.1700 -0.0644 -0.5812
 1487TIP3    H125952   6.646   1.709  12.014  0.4062  0.6579 -0.4730
 1487TIP3    H225953   6.558   1.753  12.129 -0.2961 -0.7459 -0.4584
 1488TIP3   OH225954   6.267   5.300   5.166 -0.0464  0.3222  0.2666
 1488TIP3    H125955   6.358   5.321   5.185  0.0280 -1.1708  1.6483
 1488TIP3    H225956   6.217   5.365   5.215  0.2376 -0.4463  1.5878
 1489TIP3   OH225957   3.586   5.881   5.744  0.6108 -0.3130  0.3204
 1489TIP3    H125958   3.550   5.812   5.799  0.5667 -0.9475 -0.4893
 1489TIP3    H225959   3.595   5.841   5.657  1.8341  0.2938  0.1476
 1490TIP3   OH225960   0.353   6.755   0.355 -0.1752  0.0497  0.2776
 1490TIP3    H125961   0.351   6.718   0.266 -0.0600 -0.8088  0.6287
 1490TIP3    H225962   0.315   6.842   0.345  0.1715  0.1019 -0.6833
 1491TIP3   OH225963   4.467   2.391   6.206  0.7045 -0.2542  0.1929
 1491TIP3    H125964   4.485   2.485   6.202 -0.6357  0.0301  0.4773
 1491TIP3    H225965   4.533   2.356   6.266  0.2005  0.7743  1.3782
 1492TIP3   OH225966   4.454   1.946   0.640 -0.1629 -0.0345 -0.0906
 1492TIP3    H125967   4.360   1.961   0.650 -0.5993 -1.4034 -1.7846
 1492TIP3    H225968   4.488   1.946   0.729 -1.9174 -0.3622  0.5967
 1493TIP3   OH225969   3.891   6.729  12.429  0.1579  0.8980  0.2966
 1493TIP3    H125970   3.803   6.746  12.395  0.3544  1.3895  0.0386
 1493TIP3    H225971   3.882   6.647  12.477  0.0670 -0.2855 -1.6679
 1494TIP3   OH225972   5.705   5.553   3.962 -0.0163  0.4350  0.6763
 1494TIP3    H125973   5.746   5.582   3.880 -1.4686 -1.8004 -0.8720
 1494TIP3    H225974   5.621   5.598   3.964 -0.2412  0.0163  0.6483
 1495TIP3   OH225975   2.867   5.788  11.990 -0.2166  0.7382  0.0064
 1495TIP3    H125976   2.779   5.756  12.006  0.4669 -1.2003  0.0523
 1495TIP3    H225977   2.890   5.754  11.904  0.9931  0.0430  0.5878
 1496TIP3   OH225978   4.714   3.617   6.681  0.3597  0.2818 -0.9936
 1496TIP3    H125979   4.708   3.682   6.750  0.1426 -0.0024 -0.7439
 1496TIP3    H225980   4.777   3.654   6.619 -1.2598  1.6459 -1.8579
 1497TIP3   OH225981   2.942   6.058  14.788 -0.6643 -0.3916 -0.0586
 1497TIP3    H125982   2.912   6.083  14.700  0.5299 -0.0624 -0.3804
 1497TIP3    H225983   2.934   6.139  14.839 -1.0644 -0.5046  0.0615
 1498TIP3   OH225984   6.401   6.739   1.388  0.0638 -0.7193  0.4909
 1498TIP3    H125985   6.475   6.728   1.328 -0.1519 -0.5510  0.1955
 1498TIP3    H225986   6.328   6.766   1.332 -0.3204 -1.2668  0.7322
 1499TIP3   OH225987   6.254   2.530   0.738  0.6181 -0.4494 -0.5915
 1499TIP3    H125988   6.319   2.589   0.777 -0.1120  0.1007 -0.2136
 1499TIP3    H225989   6.261   2.545   0.644  1.6323 -1.0105 -0.6236
 1500TIP3   OH225990   4.167   6.760   0.487  0.3796  0.0725 -0.0386
 1500TIP3    H125991   4.080   6.800   0.490 -0.3640 -1.6192  2.6321
 1500TIP3    H225992   4.213   6.796   0.563  2.1388  1.0978 -1.5286
 1501TIP3   OH225993   0.793   6.013  11.821  0.3030  0.0698 -0.2939
 1501TIP3    H125994   0.761   5.981  11.906  3.8060 -0.6519  0.8289
 1501TIP3    H225995   0.876   6.054  11.841 -0.1935  2.5384 -3.0108
 1502TIP3   OH225996   1.629   2.754   2.955 -0.1695 -0.2965  0.1272
 1502TIP3    H125997   1.581   2.704   3.021  2.1644 -0.2389  1.9209
 1502TIP3    H225998   1.649   2.837   2.998  1.3211 -0.2290 -0.6656
 1503TIP3   OH225999   4.716   3.021   0.795  0.3470  0.1168 -0.0357
 1503TIP3    H126000   4.680   2.955   0.735  0.2472  1.2025 -1.1863
 1503TIP3    H226001   4.810   3.002   0.798 -0.0161 -1.6065  1.5744
 1504TIP3   OH226002   0.306   1.626   6.349 -0.4233  0.4535  0.1744
 1504TIP3    H126003   0.381   1.637   6.292 -0.2115 -1.4736  0.0755
 1504TIP3    H226004   0.238   1.588   6.293 -0.9788  0.7629  0.6281
 1505TIP3   OH226005   4.076   2.078   6.021 -0.4811 -0.1890  0.0716
 1505TIP3    H126006   3.987   2.062   5.990 -0.1536 -1.8564 -0.0436
 1505TIP3    H226007   4.124   2.103   5.942 -0.6388 -0.1191 -0.0055
 1506TIP3   OH226008   3.099   4.177   1.878 -0.1953  0.3942  0.3215
 1506TIP3    H126009   3.026   4.218   1.925 -0.4993  0.0553  0.1421
 1506TIP3    H226010   3.154   4.141   1.947 -0.5355  0.0764  0.4278
 1507TIP3   OH226011   5.988   3.512  14.489 -0.1431  0.0217 -0.5806
 1507TIP3    H126012   5.977   3.513  14.584  0.2553  0.2520 -0.5372
 1507TIP3    H226013   5.943   3.432  14.460  0.2262 -0.3466 -0.1393
 1508TIP3   OH226014   5.446   5.963   4.657 -0.3462 -0.0387  0.1849
 1508TIP3    H126015   5.450   6.053   4.624  0.0708  0.1656  0.7737
 1508TIP3    H226016   5.481   5.910   4.586  1.2016  0.4701  0.5308
 1509TIP3   OH226017   5.718   6.085  16.073 -0.2315 -0.6906 -0.7134
 1509TIP3    H126018   5.662   6.058  16.146 -0.0900  3.0479  0.9118
 1509TIP3    H226019   5.667   6.152  16.027  0.2893 -1.9582 -3.2208
 1510TIP3   OH226020   6.746   1.609   2.443 -0.1102 -0.4052 -0.2744
 1510TIP3    H126021   6.760   1.518   2.420 -0.6125 -0.5525 -0.0042
 1510TIP3    H226022   6.830   1.638   2.478  0.4296 -0.3918 -1.5597
 1511TIP3   OH226023   5.722   0.538  11.549  0.2718  0.0123  0.6288
 1511TIP3    H126024   5.663   0.477  11.595  1.9280 -0.8424  1.6855
 1511TIP3    H226025   5.799   0.485  11.529  1.2403  1.4712  0.4707
 1512TIP3   OH226026   3.611   0.035  15.935 -0.2178 -0.0066 -0.5983
 1512TIP3    H126027   3.651   0.118  15.960  3.1958 -1.0123 -2.4512
 1512TIP3    H226028   3.607  -0.015  16.017  0.8191  0.7365 -0.0872
 1513TIP3   OH226029   3.126   1.353   3.583  0.5314  0.4921 -0.1671
 1513TIP3    H126030   3.188   1.294   3.541  0.8268 -0.1375  1.1134
 1513TIP3    H226031   3.181   1.421   3.622  0.3588  0.3841  0.2684
 1514TIP3   OH226032   6.676   0.140   1.792 -0.1700  0.1827  0.1682
 1514TIP3    H126033   6.688   0.170   1.882 -0.4662  0.8767 -0.0195
 1514TIP3    H226034   6.677   0.220   1.740 -0.3329 -0.1880 -0.4129
 1515TIP3   OH226035   5.435   4.167  16.739  0.0266 -0.0366  0.0752
 1515TIP3    H126036   5.394   4.219  16.808  0.4778  0.3044  0.0888
 1515TIP3    H226037   5.362   4.138  16.684 -0.1897  0.9380 -0.1532
 1516TIP3   OH226038   6.092   5.457  10.754  0.9247 -0.2523 -0.2441
 1516TIP3    H126039   6.115   5.365  10.749  0.0800 -0.5094  0.4652
 1516TIP3    H226040   6.121   5.494  10.670  0.1959 -1.4021 -1.0167
 1517TIP3   OH226041   3.371   3.853  15.273 -0.2010  0.3451  0.1467
 1517TIP3    H126042   3.454   3.832  15.316 -0.3994 -4.4646 -1.5175
 1517TIP3    H226043   3.304   3.828  15.336 -0.4017  0.9919  0.1871
 1518TIP3   OH226044   3.102   1.994  14.559  0.1898 -0.2437 -0.0151
 1518TIP3    H126045   3.166   2.065  14.570 -0.7076  0.2093  2.4268
 1518TIP3    H226046   3.026   2.036  14.520  0.5681 -0.3722 -0.9109
 1519TIP3   OH226047   3.647   6.523  11.662 -0.4017 -0.7528  0.0901
 1519TIP3    H126048   3.713   6.558  11.723 -0.0191 -0.1517 -0.6642
 1519TIP3    H226049   3.615   6.599  11.615 -1.6817 -1.0367  0.4692
 1520TIP3   OH226050   3.706   6.107  15.450 -0.1743 -0.2233 -0.1773
 1520TIP3    H126051   3.685   6.070  15.364  1.5035  1.5216 -1.3939
 1520TIP3    H226052   3.740   6.033  15.500 -0.3406 -1.0950 -1.3238
 1521TIP3   OH226053   5.658   6.425   1.564 -0.0938  0.5048  0.0955
 1521TIP3    H126054   5.667   6.349   1.621 -1.0145  1.4384  1.5314
 1521TIP3    H226055   5.747   6.458   1.554  0.2964 -0.6897 -0.4474
 1522TIP3   OH226056   5.672   3.197  12.263  0.1493 -0.2548  0.2450
 1522TIP3    H126057   5.646   3.170  12.175 -1.2663  3.7195 -0.6657
 1522TIP3    H226058   5.758   3.237  12.252 -0.5089  1.2630  0.4079
 1523TIP3   OH226059   0.961   2.236  14.706 -0.0913  0.0269 -0.1963
 1523TIP3    H126060   0.983   2.167  14.644  0.0915  0.3290 -0.4695
 1523TIP3    H226061   1.022   2.307  14.685 -0.4614  0.3743 -0.0997
 1524TIP3   OH226062   2.956   0.626  14.194  0.1715  0.5531  0.0594
 1524TIP3    H126063   3.027   0.690  14.206  1.5366 -0.9050 -0.0124
 1524TIP3    H226064   2.997   0.542  14.214 -1.1532 -0.4671 -1.4332
 1525TIP3   OH226065   0.549   5.688  14.706 -0.4652 -0.4474  0.2264
 1525TIP3    H126066   0.639   5.715  14.693 -0.5110 -0.7838 -0.8865
 1525TIP3    H226067   0.521   5.655  14.620 -1.7763  0.0511  0.4436
 1526TIP3   OH226068   4.531   6.605   4.558 -0.1478  0.2448  0.1146
 1526TIP3    H126069   4.467   6.656   4.508 -0.0757 -0.4187 -0.6690
 1526TIP3    H226070   4.489   6.520   4.572 -0.2415  0.4852  1.3638
 1527TIP3   OH226071   1.149   6.317  12.258  0.5343  0.4096  0.3134
 1527TIP3    H126072   1.150   6.254  12.330 -2.0392 -1.6929 -1.4357
 1527TIP3    H226073   1.219   6.288  12.199  1.2592  0.9328  0.8894
 1528TIP3   OH226074   3.955   6.149   5.057  0.3604 -0.5328 -0.3321
 1528TIP3    H126075   3.863   6.124   5.045  0.3993 -1.3464  0.8914
 1528TIP3    H226076   4.003   6.099   4.991  0.2192 -2.2566  0.8433
 1529TIP3   OH226077   4.469   1.183  16.394  0.2698 -0.2784 -0.4177
 1529TIP3    H126078   4.440   1.092  16.382 -1.4826  0.0383  1.0978
 1529TIP3    H226079   4.468   1.196  16.489 -0.5058  1.6259 -0.6582
 1530TIP3   OH226080   2.777   1.963   0.743 -0.3162  0.3750  0.0113
 1530TIP3    H126081   2.762   1.872   0.770  1.1491  0.5032  1.3087
 1530TIP3    H226082   2.691   2.004   0.750 -0.9209 -0.8249 -0.2675
 1531TIP3   OH226083   0.239   1.973   5.643 -0.1798 -0.1815 -0.1989
 1531TIP3    H126084   0.233   1.928   5.727  1.5164  1.0253  0.6016
 1531TIP3    H226085   0.298   1.918   5.592 -0.6474 -0.5414 -0.3547
 1532TIP3   OH226086   3.092   5.950  13.363  0.2621 -0.3191  0.7094
 1532TIP3    H126087   3.122   6.036  13.391  0.2588 -0.3138  0.6990
 1532TIP3    H226088   3.081   5.958  13.268  1.4821 -0.6905  0.5250
 1533TIP3   OH226089   1.958   2.784   1.558  0.9128 -0.3645  0.0220
 1533TIP3    H126090   2.016   2.788   1.482  1.4501  1.4508  0.4981
 1533TIP3    H226091   1.899   2.858   1.547  0.5434 -0.5068  1.0112
 1534TIP3   OH226092   1.728   1.320   4.450  0.1556  0.4354 -0.1908
 1534TIP3    H126093   1.775   1.396   4.414  1.1669  0.3521  0.9363
 1534TIP3    H226094   1.791   1.278   4.509 -0.7396 -0.7065 -0.0297
 1535TIP3   OH226095   2.778   3.045  15.191 -0.3274 -0.0785  0.2701
 1535TIP3    H126096   2.745   3.076  15.275  0.4001  0.6204  0.3055
 1535TIP3    H226097   2.700   3.043  15.135 -0.5226  1.1633  0.4714
 1536TIP3   OH226098   0.144   4.490  14.035  0.0209  0.5046  0.0435
 1536TIP3    H126099   0.148   4.401  14.071 -0.4211 -0.1848 -1.5780
 1536TIP3    H226100   0.236   4.519  14.033  0.6759 -1.4712 -3.1529
 1537TIP3   OH226101   4.011   4.420  16.987  0.2391 -0.2478 -0.4468
 1537TIP3    H126102   3.944   4.352  16.996 -0.6875  0.8786  1.4800
 1537TIP3    H226103   4.063   4.412  17.067  1.2877  0.0966 -1.0874
 1538TIP3   OH226104   6.419   3.311  14.235  0.0193 -0.5501  0.0112
 1538TIP3    H126105   6.366   3.386  14.205 -0.2309 -0.9212 -0.4865
 1538TIP3    H226106   6.373   3.234  14.201  0.1201 -0.9458  0.7657
 1539TIP3   OH226107   6.655   5.863   1.762 -0.3753 -0.4625 -0.2749
 1539TIP3    H126108   6.572   5.884   1.720 -1.0032 -1.0107  0.6605
 1539TIP3    H226109   6.676   5.941   1.813 -1.1585 -0.9291  0.7830
 1540TIP3   OH226110   4.682   1.902   1.789 -0.6052 -0.4093  0.2731
 1540TIP3    H126111   4.589   1.898   1.768 -1.0402  1.1404  1.8169
 1540TIP3    H226112   4.686   1.901   1.884  0.8423  1.6399  0.2596
 1541TIP3   OH226113   3.214   2.640   6.277 -0.2422  0.3551  0.2485
 1541TIP3    H126114   3.278   2.695   6.323 -1.0684  1.0863  0.5475
 1541TIP3    H226115   3.154   2.611   6.346 -1.9286  2.0594 -0.4513
 1542TIP3   OH226116   3.543   3.480  13.503  0.3670  0.2674 -0.4913
 1542TIP3    H126117   3.548   3.573  13.522  0.6495 -0.1075  1.3348
 1542TIP3    H226118   3.451   3.464  13.482  0.3219  0.9599 -0.8139
 1543TIP3   OH226119   2.997   3.421  11.344  0.5814  0.3025  0.2336
 1543TIP3    H126120   2.978   3.329  11.325  0.6788  0.6363 -1.5108
 1543TIP3    H226121   2.945   3.469  11.281  0.2595  1.4759  1.3752
 1544TIP3   OH226122   6.084   6.772  13.009 -0.3890  0.4839  0.1466
 1544TIP3    H126123   6.077   6.787  12.915 -1.9235 -1.3847 -0.0600
 1544TIP3    H226124   6.113   6.856  13.044  0.2655  1.1795 -1.9943
 1545TIP3   OH226125   6.224   0.756   2.058 -0.2842  0.4762  0.2079
 1545TIP3    H126126   6.318   0.765   2.044 -0.3248 -1.7320 -1.8105
 1545TIP3    H226127   6.216   0.697   2.133 -0.0721  1.1883  0.7941
 1546TIP3   OH226128   5.103   1.979  12.337 -0.0498 -0.4636  0.2381
 1546TIP3    H126129   5.164   2.013  12.403 -1.7008 -0.2904  1.7001
 1546TIP3    H226130   5.089   1.888  12.361  2.0734 -1.4223 -1.9660
 1547TIP3   OH226131   1.632   3.420   5.925 -0.2350 -0.2624  0.1437
 1547TIP3    H126132   1.689   3.487   5.963  1.7831 -1.6668 -0.2767
 1547TIP3    H226133   1.559   3.413   5.986 -0.4620  2.2533  0.2180
 1548TIP3   OH226134   6.357   0.386  15.366 -0.8464 -0.2456  0.3078
 1548TIP3    H126135   6.361   0.481  15.356  0.7062 -0.0577  2.4084
 1548TIP3    H226136   6.438   0.355  15.325 -1.0424 -0.6172  0.1955
 1549TIP3   OH226137   6.793   1.546  16.143 -0.4546 -0.7224  0.3702
 1549TIP3    H126138   6.824   1.459  16.117 -3.0005 -1.9811  1.4113
 1549TIP3    H226139   6.705   1.552  16.105 -0.2649  1.4565  0.2181
 1550TIP3   OH226140   2.531   0.676   3.136 -0.5840  0.2285 -0.2304
 1550TIP3    H126141   2.612   0.658   3.088  0.6516  0.0483  1.8796
 1550TIP3    H226142   2.485   0.592   3.138  0.3122 -0.2468  0.6516
 1551TIP3   OH226143   3.192   1.985  12.059  0.1960  0.1892  0.3278
 1551TIP3    H126144   3.221   1.964  12.148  0.2261 -0.0731  0.2563
 1551TIP3    H226145   3.199   1.902  12.011 -1.9256 -0.2159  0.6422
 1552TIP3   OH226146   4.806   4.681   5.651  0.6308 -0.7520  0.0033
 1552TIP3    H126147   4.788   4.636   5.733  0.3669 -0.2771  0.1994
 1552TIP3    H226148   4.801   4.611   5.585 -0.9336 -0.8066  0.1668
 1553TIP3   OH226149   2.376   5.647  12.770  0.3489 -0.5867 -0.0290
 1553TIP3    H126150   2.311   5.670  12.705  0.6254  1.1321  0.2815
 1553TIP3    H226151   2.447   5.606  12.721  0.5315  0.6506 -0.8218
 1554TIP3   OH226152   3.477   0.683   6.001  0.6980 -0.2270  0.3479
 1554TIP3    H126153   3.442   0.598   5.974 -2.3881  1.3290 -0.8344
 1554TIP3    H226154   3.443   0.695   6.090 -1.7807  1.2293 -0.7532
 1555TIP3   OH226155   5.720   6.277  15.484 -0.0896 -0.0517  0.7192
 1555TIP3    H126156   5.721   6.183  15.469 -2.1382 -0.1652  1.0405
 1555TIP3    H226157   5.640   6.292  15.535 -0.7523  2.0516 -0.8448
 1556TIP3   OH226158   1.940   4.382   3.764  0.5519  0.7238 -0.5369
 1556TIP3    H126159   2.013   4.396   3.824 -1.2457  1.8238  1.4520
 1556TIP3    H226160   1.878   4.329   3.813  0.2954 -0.8476 -2.4735
 1557TIP3   OH226161   3.669   5.247   6.429  0.6817 -0.1051  0.3108
 1557TIP3    H126162   3.751   5.292   6.409  1.4135 -1.1794  0.8646
 1557TIP3    H226163   3.684   5.208   6.515 -1.0261  1.1355  1.2153
 1558TIP3   OH226164   2.663   3.432  11.569  0.4158 -0.3687 -0.1115
 1558TIP3    H126165   2.634   3.401  11.484 -0.1468 -0.2237  0.0255
 1558TIP3    H226166   2.617   3.514  11.583  0.5385 -0.3668  0.3123
 1559TIP3   OH226167   2.338   5.965   5.864 -0.2084 -0.4864  0.2973
 1559TIP3    H126168   2.330   5.891   5.924 -1.1810 -1.9431 -1.5728
 1559TIP3    H226169   2.277   6.030   5.898 -1.7965 -1.8516  0.1516
 1560TIP3   OH226170   1.994   2.743  14.342 -0.4789 -0.0498 -0.0866
 1560TIP3    H126171   1.904   2.755  14.372  0.2777  2.1550  1.3659
 1560TIP3    H226172   2.000   2.794  14.262 -0.5486 -0.2950 -0.2497
 1561TIP3   OH226173   2.222   5.668  17.135  0.4261 -0.5871  0.4051
 1561TIP3    H126174   2.163   5.627  17.198  1.0918 -0.9617  0.7891
 1561TIP3    H226175   2.163   5.711  17.072 -0.2304  0.3623  1.6419
 1562TIP3   OH226176   5.749   1.569  16.165  0.1944  0.0517 -0.3852
 1562TIP3    H126177   5.721   1.660  16.148  1.8270  1.0061  1.7825
 1562TIP3    H226178   5.821   1.554  16.102  1.0838  0.8833  0.4177
 1563TIP3   OH226179   0.193   2.651   0.499  0.7088  0.0120 -0.4742
 1563TIP3    H126180   0.223   2.622   0.585  0.9176  0.4923 -0.3838
 1563TIP3    H226181   0.259   2.715   0.471  0.1676  0.5214 -0.6048
 1564TIP3   OH226182   5.640   1.031  15.341 -0.4294 -0.3768 -0.5726
 1564TIP3    H126183   5.612   1.104  15.285  0.9647  1.1451  0.6411
 1564TIP3    H226184   5.735   1.038  15.344 -0.4529 -0.4574  1.8956
 1565TIP3   OH226185   2.800   5.244   2.253 -0.3041  0.8463  0.2626
 1565TIP3    H126186   2.732   5.220   2.191  0.5146  0.1250 -0.3674
 1565TIP3    H226187   2.864   5.293   2.202  0.1573  0.6350  0.6286
 1566TIP3   OH226188   5.751   2.595   3.842  0.2052 -0.0296  0.4021
 1566TIP3    H126189   5.832   2.592   3.791 -0.6318  1.0662 -1.0185
 1566TIP3    H226190   5.706   2.514   3.818  0.4492 -0.1892  0.4754
 1567TIP3   OH226191   2.297   4.981   2.055  0.4835 -0.1384  0.1601
 1567TIP3    H126192   2.392   4.980   2.043  0.7925 -0.8635  2.3559
 1567TIP3    H226193   2.276   5.074   2.063  0.7433  0.1304 -2.0667
 1568TIP3   OH226194   4.409   6.576  12.989  0.2471  0.0898  0.1538
 1568TIP3    H126195   4.406   6.637  13.063  1.5697 -0.2424  0.4868
 1568TIP3    H226196   4.395   6.631  12.912 -0.7015  0.5014  0.6116
 1569TIP3   OH226197   3.443   3.414   3.354 -0.0133 -0.0637  0.3603
 1569TIP3    H126198   3.500   3.343   3.382 -1.1087 -0.9161  0.4463
 1569TIP3    H226199   3.441   3.408   3.259  1.0629  0.7716  0.2782
 1570TIP3   OH226200   4.709   5.030  11.911  0.2772  0.1767  0.0798
 1570TIP3    H126201   4.701   5.116  11.950 -0.8269  0.3638 -0.5349
 1570TIP3    H226202   4.652   5.033  11.834  2.0924 -0.3116 -1.3164
 1571TIP3   OH226203   5.356   2.712   3.004  0.5720  0.0554 -0.5489
 1571TIP3    H126204   5.302   2.710   3.083  0.5243  0.2593 -0.5737
 1571TIP3    H226205   5.326   2.638   2.951 -0.2437  0.6505 -0.9253
 1572TIP3   OH226206   1.663   5.337   0.099 -0.2150 -0.3563  0.1219
 1572TIP3    H126207   1.571   5.327   0.075  0.0347 -0.3131 -0.9154
 1572TIP3    H226208   1.697   5.399   0.034  0.3844  0.1497  0.9106
 1573TIP3   OH226209   4.177   5.018  15.124 -0.3950 -0.4217  0.3673
 1573TIP3    H126210   4.229   4.964  15.065  1.2419  0.1729  1.2387
 1573TIP3    H226211   4.167   5.102  15.077 -1.8532 -1.0204 -0.4338
 1574TIP3   OH226212   6.789   5.413  15.350  0.4540  0.1513  0.2584
 1574TIP3    H126213   6.883   5.424  15.341  0.3796  0.9342  0.3506
 1574TIP3    H226214   6.752   5.491  15.309 -0.0983  0.6001  1.5659
 1575TIP3   OH226215   2.090   1.445   1.470  0.1284  0.0927 -0.3102
 1575TIP3    H126216   2.101   1.517   1.408 -0.4506 -0.2583 -0.8325
 1575TIP3    H226217   2.125   1.368   1.425 -2.3268 -0.6018 -1.1193
 1576TIP3   OH226218   0.147   4.548  17.260  0.0046  0.4622  0.1599
 1576TIP3    H126219   0.147   4.639  17.231  1.1269  0.7829  1.1192
 1576TIP3    H226220   0.068   4.510  17.222  0.5467  1.3244 -1.8719
 1577TIP3   OH226221   3.168   4.103  13.788 -0.5225 -0.2008  0.0321
 1577TIP3    H126222   3.099   4.072  13.848 -1.6219 -1.2501 -1.7022
 1577TIP3    H226223   3.132   4.183  13.749  0.2636  0.5779  0.8949
 1578TIP3   OH226224   5.742   5.519   2.514  0.6177  1.0498 -0.0738
 1578TIP3    H126225   5.828   5.512   2.555  0.1903 -1.5269  0.5254
 1578TIP3    H226226   5.742   5.449   2.447 -2.0046 -0.9893  1.9346
 1579TIP3   OH226227   4.620   2.058   2.697 -0.1204 -0.5641 -0.4371
 1579TIP3    H126228   4.598   2.088   2.609 -0.4262 -1.1434 -0.5573
 1579TIP3    H226229   4.588   2.128   2.754 -0.7986 -0.6429 -0.7217
 1580TIP3   OH226230   0.927   1.741  12.936  0.1553  0.0311 -0.0310
 1580TIP3    H126231   0.899   1.769  13.023 -0.1334  0.3224 -0.2191
 1580TIP3    H226232   0.848   1.708  12.894  0.0183  1.2284 -0.7062
 1581TIP3   OH226233   4.220   3.283  12.313 -1.1521  0.4619 -0.3230
 1581TIP3    H126234   4.200   3.363  12.362 -0.9526  0.1864  0.2193
 1581TIP3    H226235   4.149   3.222  12.335 -0.6899  0.0963  0.1943
 1582TIP3   OH226236   2.186   2.264  15.758  0.0983 -0.2287 -0.3810
 1582TIP3    H126237   2.264   2.212  15.779  0.5057  0.3664 -0.3981
 1582TIP3    H226238   2.116   2.200  15.746  0.8307 -0.8260 -1.4343
 1583TIP3   OH226239   3.338   3.831   2.846  0.5581 -0.2155 -0.1418
 1583TIP3    H126240   3.252   3.847   2.806  1.2077  0.5752 -1.2477
 1583TIP3    H226241   3.328   3.749   2.893 -0.3089 -1.0169 -1.7026
 1584TIP3   OH226242   3.501   3.186   3.078 -0.3528 -0.8611  0.2245
 1584TIP3    H126243   3.434   3.232   3.028 -0.9839 -1.2323  0.7156
 1584TIP3    H226244   3.584   3.213   3.038 -0.6635  1.2488  0.9484
 1585TIP3   OH226245   4.203   5.539  15.751  0.4843 -0.1610 -0.1081
 1585TIP3    H126246   4.149   5.466  15.718  1.0674 -0.6656  0.0427
 1585TIP3    H226247   4.140   5.599  15.790 -0.1205 -0.0085 -1.3175
 1586TIP3   OH226248   6.067   3.086  13.685 -0.1912 -0.0545 -0.2403
 1586TIP3    H126249   6.142   3.042  13.727 -1.3565 -0.2854  1.6649
 1586TIP3    H226250   6.004   3.097  13.756 -1.5326  1.1178 -1.5986
 1587TIP3   OH226251   5.292   2.515   6.704  0.2965  0.2098 -0.8144
 1587TIP3    H126252   5.369   2.472   6.665  0.0447 -1.2457  0.2437
 1587TIP3    H226253   5.247   2.554   6.630  1.2943 -0.1632 -1.6427
 1588TIP3   OH226254   0.285   1.934   1.802  0.5387  0.1928  0.3210
 1588TIP3    H126255   0.257   1.844   1.784  1.7968  0.3680 -2.7492
 1588TIP3    H226256   0.374   1.925   1.835  0.0725  0.2240  1.6104
 1589TIP3   OH226257   1.188   6.187  14.838 -0.5080 -0.5954 -0.3385
 1589TIP3    H126258   1.160   6.260  14.893  1.4250  0.5945 -0.8843
 1589TIP3    H226259   1.166   6.215  14.749  0.8030 -0.3803 -0.6062
 1590TIP3   OH226260   6.178   0.198  12.276 -0.6284 -0.0695  0.0745
 1590TIP3    H126261   6.243   0.253  12.319  0.2020  0.0415 -1.2817
 1590TIP3    H226262   6.104   0.197  12.336  0.6559 -0.2810  1.6979
 1591TIP3   OH226263   5.033   4.533   1.049  0.8140  0.8600  0.3257
 1591TIP3    H126264   4.972   4.561   0.981 -1.4665  1.1446  2.4424
 1591TIP3    H226265   5.038   4.608   1.109  1.9194  0.1968  1.0762
 1592TIP3   OH226266   2.777   3.872   0.056  0.1030 -0.1426 -0.2186
 1592TIP3    H126267   2.785   3.807  -0.014 -0.4709  0.0063 -0.4284
 1592TIP3    H226268   2.730   3.827   0.125 -0.4281  0.0946 -0.4246
 1593TIP3   OH226269   6.121   0.517   5.944 -0.4350  0.1495 -0.1140
 1593TIP3    H126270   6.181   0.456   5.988 -1.0883  0.0433  0.6524
 1593TIP3    H226271   6.089   0.574   6.014 -0.1197  1.1385 -0.7652
 1594TIP3   OH226272   5.170   3.599  14.343 -0.4036 -0.6378 -0.3678
 1594TIP3    H126273   5.157   3.675  14.286 -1.5275 -0.2423  0.4048
 1594TIP3    H226274   5.246   3.622  14.396 -0.1399 -0.4652 -0.8158
 1595TIP3   OH226275   3.429   0.083   1.633  0.7355  0.4987 -0.1879
 1595TIP3    H126276   3.481   0.038   1.700 -1.7064 -1.3184  0.5341
 1595TIP3    H226277   3.406   0.014   1.571  0.5472  1.6118 -1.3631
 1596TIP3   OH226278   2.038   0.021   5.814  0.1185  0.2881  0.5921
 1596TIP3    H126279   1.987   0.094   5.850  0.8981  0.9807  0.3171
 1596TIP3    H226280   2.112   0.011   5.874 -0.1478 -0.4889  0.7998
 1597TIP3   OH226281   6.710   1.951  13.148  0.0652  0.6455 -0.1249
 1597TIP3    H126282   6.695   1.879  13.087  0.1431  0.4481  0.0859
 1597TIP3    H226283   6.742   1.908  13.228  3.3408  1.1934 -1.0823
 1598TIP3   OH226284   3.930   2.550   4.136  0.5071  0.1061 -0.5529
 1598TIP3    H126285   3.952   2.517   4.048  1.3959 -2.3289  0.5441
 1598TIP3    H226286   3.979   2.632   4.144 -0.3403  0.8596 -2.6787
 1599TIP3   OH226287   1.431   4.691   3.035 -0.3562 -0.4108 -0.7475
 1599TIP3    H126288   1.389   4.702   3.121 -0.1374 -0.9111 -0.5714
 1599TIP3    H226289   1.487   4.768   3.026  1.8012 -1.7517  0.8350
 1600TIP3   OH226290   5.321   1.751   4.402 -0.2728  0.8551 -0.2085
 1600TIP3    H126291   5.389   1.709   4.349 -0.1015 -1.3843  1.7151
 1600TIP3    H226292   5.239   1.728   4.359 -0.3706 -3.6165  2.1116
 1601TIP3   OH226293   1.012   5.770  12.972 -0.1774  0.6661 -0.5152
 1601TIP3    H126294   0.931   5.737  12.933 -0.7572 -0.7466  1.7609
 1601TIP3    H226295   0.984   5.812  13.053  1.2502  1.0715 -0.2184
 1602TIP3   OH226296   4.406   2.673   2.036 -0.5335 -0.4658 -0.0151
 1602TIP3    H126297   4.357   2.616   2.094 -1.1948 -0.8000 -0.8974
 1602TIP3    H226298   4.389   2.761   2.070 -0.8864 -0.6625  0.3266
 1603TIP3   OH226299   3.058   3.254  15.582 -1.0644 -0.2218  0.2791
 1603TIP3    H126300   3.064   3.296  15.668 -1.1792  0.1815  0.0915
 1603TIP3    H226301   3.089   3.164  15.597  0.0121  0.1710  0.5132
 1604TIP3   OH226302   4.047   3.530  13.790  0.2859 -0.3883 -0.0571
 1604TIP3    H126303   4.020   3.442  13.818  0.4460 -0.8589 -1.3484
 1604TIP3    H226304   4.131   3.544  13.834  0.6305 -1.2000 -0.4295
 1605TIP3   OH226305   5.583   1.210   3.087  0.2490  1.3621 -0.2373
 1605TIP3    H126306   5.580   1.183   2.995 -0.1893 -0.6958  0.3371
 1605TIP3    H226307   5.627   1.138   3.132 -1.9093  1.0626  1.5448
 1606TIP3   OH226308   4.166   4.487   2.542 -0.3464  0.1030 -0.3978
 1606TIP3    H126309   4.135   4.400   2.566 -0.5549 -0.2484 -1.8488
 1606TIP3    H226310   4.258   4.489   2.570 -0.0273 -0.9902 -1.3243
 1607TIP3   OH226311   1.634   2.631   0.745  0.9022  0.3526 -0.5841
 1607TIP3    H126312   1.627   2.714   0.699  2.9450 -0.2867 -2.0917
 1607TIP3    H226313   1.710   2.641   0.802  0.5234 -0.1344  0.0280
 1608TIP3   OH226314   1.132   3.225   5.073  0.3550 -0.6509 -0.1661
 1608TIP3    H126315   1.102   3.140   5.042 -0.9512  0.2107 -1.3513
 1608TIP3    H226316   1.220   3.234   5.036  0.5761 -1.5525  0.1213
 1609TIP3   OH226317   1.547   3.846   2.093 -0.1039  0.0168  0.3878
 1609TIP3    H126318   1.519   3.839   2.002 -1.1016 -0.0966  0.6910
 1609TIP3    H226319   1.629   3.798   2.097 -0.6929 -1.0610 -0.1848
 1610TIP3   OH226320   2.119   0.272  14.951  0.1047 -0.5269  0.3488
 1610TIP3    H126321   2.093   0.183  14.928  0.2220 -0.5998  0.4941
 1610TIP3    H226322   2.038   0.323  14.947  0.1473 -0.5011 -0.3833
 1611TIP3   OH226323   3.238   4.549  11.798  0.8399  0.0862  0.2185
 1611TIP3    H126324   3.195   4.496  11.731  0.1716  0.5352  0.2913
 1611TIP3    H226325   3.209   4.639  11.779  3.3278  0.6802 -1.0086
 1612TIP3   OH226326   2.512   6.818   0.893 -0.0200  0.1476  0.1552
 1612TIP3    H126327   2.512   6.725   0.913 -0.7731  0.0241 -0.3989
 1612TIP3    H226328   2.429   6.850   0.929 -0.6793  0.2149 -1.3908
 1613TIP3   OH226329   1.641   4.859  13.049 -0.2688  0.0873  0.4257
 1613TIP3    H126330   1.557   4.851  13.094 -0.1192  1.2066  0.9315
 1613TIP3    H226331   1.662   4.953  13.054  0.5676 -0.0398 -0.4907
 1614TIP3   OH226332   0.623   5.053   1.459  0.1727  0.0388  0.4518
 1614TIP3    H126333   0.625   4.969   1.504 -0.5483 -0.3647 -0.2636
 1614TIP3    H226334   0.584   5.114   1.522  0.0440 -0.3159  0.7136
 1615TIP3   OH226335   4.122   2.770  16.509  0.4845 -0.2229  0.5338
 1615TIP3    H126336   4.212   2.773  16.477  0.2871  0.2696  0.0362
 1615TIP3    H226337   4.102   2.676  16.513  0.1235 -0.2734 -1.8610
 1616TIP3   OH226338   0.883   3.486   2.694  0.0602  0.7026  0.0492
 1616TIP3    H126339   0.944   3.483   2.767 -0.7227 -0.4295  0.6723
 1616TIP3    H226340   0.920   3.426   2.629 -0.6920 -0.4606  0.6799
 1617TIP3   OH226341   3.681   5.143  10.895 -0.2633 -0.1446 -0.2092
 1617TIP3    H126342   3.732   5.188  10.962 -0.2872 -0.8127  0.2692
 1617TIP3    H226343   3.653   5.212  10.835 -3.6823  1.1288  2.6854
 1618TIP3   OH226344   1.657   3.210   5.745 -0.6384  0.5566  0.0041
 1618TIP3    H126345   1.662   3.243   5.835  1.8506 -3.3281  1.4137
 1618TIP3    H226346   1.600   3.133   5.751 -0.3433  0.1899 -1.7091
 1619TIP3   OH226347   2.836   4.610   3.823 -0.1055 -0.2347  0.5098
 1619TIP3    H126348   2.928   4.637   3.833 -0.6319  0.8739  2.6737
 1619TIP3    H226349   2.787   4.692   3.824 -0.9621 -0.6143 -3.4142
 1620TIP3   OH226350   5.855   1.808  11.767 -0.7449  0.1928  0.2815
 1620TIP3    H126351   5.818   1.811  11.679 -0.7849 -1.2970  0.2362
 1620TIP3    H226352   5.780   1.817  11.825 -0.9133 -0.5701  0.1788
 1621TIP3   OH226353   1.025   0.242   2.558 -0.7363 -0.3347  0.9278
 1621TIP3    H126354   1.042   0.178   2.627 -1.0484 -0.9063  0.4793
 1621TIP3    H226355   1.005   0.189   2.480  1.9915  0.2521 -0.2325
 1622TIP3   OH226356   2.543   6.543  17.246  0.1521 -1.1510 -0.2605
 1622TIP3    H126357   2.496   6.616  17.208  3.4947  0.3752 -1.6845
 1622TIP3    H226358   2.532   6.472  17.183 -0.4727 -0.8914 -0.4446
 1623TIP3   OH226359   2.453   2.167  13.626  0.0069  0.5571  0.5274
 1623TIP3    H126360   2.433   2.252  13.586  1.1667  0.0412 -1.2088
 1623TIP3    H226361   2.532   2.184  13.677  0.1633  0.5620  0.2871
 1624TIP3   OH226362   2.771   2.700   4.624  0.4966  0.3240  0.1527
 1624TIP3    H126363   2.856   2.662   4.644 -1.6301 -5.1241 -0.3028
 1624TIP3    H226364   2.767   2.702   4.528 -0.1572 -0.2445  0.1599
 1625TIP3   OH226365   5.178   1.595   1.791  0.2169  0.2252 -0.0490
 1625TIP3    H126366   5.180   1.674   1.845 -2.5289 -0.1301  0.6052
 1625TIP3    H226367   5.128   1.620   1.714  0.5104 -0.4988 -0.4828
 1626TIP3   OH226368   5.804   4.699  11.334  0.2897  0.2873 -0.0590
 1626TIP3    H126369   5.796   4.609  11.302 -0.2948  0.2183  0.2767
 1626TIP3    H226370   5.841   4.748  11.260 -0.2046 -0.0509 -0.5288
 1627TIP3   OH226371   6.558   1.481  16.732  0.7830 -0.2556 -0.0700
 1627TIP3    H126372   6.468   1.479  16.699  0.5361  0.1481  0.5549
 1627TIP3    H226373   6.612   1.474  16.654  0.2115 -1.1435 -0.4041
 1628TIP3   OH226374   2.054   6.127   1.909 -0.2202  0.3106 -0.4239
 1628TIP3    H126375   2.040   6.047   1.960 -2.0819  2.5193  2.6792
 1628TIP3    H226376   2.142   6.116   1.871 -0.7588 -3.5283 -0.7941
 1629TIP3   OH226377   5.526   4.469  12.422 -0.5607  0.0987 -0.0613
 1629TIP3    H126378   5.465   4.415  12.473  0.9188 -0.8549  0.7445
 1629TIP3    H226379   5.561   4.409  12.356  1.9720 -0.2710  1.5740
 1630TIP3   OH226380   4.492   0.417  12.694  0.1055 -0.5202  0.3300
 1630TIP3    H126381   4.416   0.475  12.690 -0.4765 -1.2808  0.2479
 1630TIP3    H226382   4.509   0.407  12.788  0.7989  0.5369  0.3248
 1631TIP3   OH226383   0.966   2.534  12.808 -0.3258 -0.1552 -0.0492
 1631TIP3    H126384   0.991   2.442  12.799  1.4046  0.2520  0.3316
 1631TIP3    H226385   1.049   2.581  12.812 -1.1932  1.4537 -0.4583
 1632TIP3   OH226386   2.030   0.146   3.055  0.1529 -0.1680 -0.1907
 1632TIP3    H126387   2.009   0.053   3.069  0.8552 -0.4328 -0.8710
 1632TIP3    H226388   2.006   0.188   3.138  0.8851 -1.1367  0.5223
 1633TIP3   OH226389   1.026   1.725  16.491  0.3574 -0.1022  0.4182
 1633TIP3    H126390   0.954   1.713  16.429  0.9924  0.3762 -0.4294
 1633TIP3    H226391   1.084   1.651  16.475  1.6906  1.2426 -1.2165
 1634TIP3   OH226392   3.566   2.712   2.456 -0.4306 -0.2058 -0.3483
 1634TIP3    H126393   3.515   2.792   2.470  0.2789  0.0283  0.9462
 1634TIP3    H226394   3.568   2.669   2.541  0.0712 -1.0977 -0.8007
 1635TIP3   OH226395   1.505   3.011  11.577 -0.1469  0.6115  0.2351
 1635TIP3    H126396   1.411   3.010  11.593 -0.0093 -1.7255  0.9569
 1635TIP3    H226397   1.515   2.981  11.486  0.0319 -1.7226  0.9967
 1636TIP3   OH226398   4.304   2.116  14.912 -0.3519 -0.1213  0.4070
 1636TIP3    H126399   4.290   2.029  14.875 -1.3615  0.7888 -1.3979
 1636TIP3    H226400   4.399   2.124  14.917 -0.1949 -0.5418 -1.3733
 1637TIP3   OH226401   5.231   6.383   1.477 -0.3679  0.5291  0.1367
 1637TIP3    H126402   5.270   6.309   1.432 -0.1195  0.3025  0.7142
 1637TIP3    H226403   5.287   6.458   1.454 -0.3799  0.4593 -0.1161
 1638TIP3   OH226404   1.185   3.881  11.819  0.8340 -0.7297 -0.3396
 1638TIP3    H126405   1.121   3.901  11.888  0.3272 -1.1762 -0.6688
 1638TIP3    H226406   1.241   3.958  11.815 -0.9538  0.5365 -1.4520
 1639TIP3   OH226407   2.679   4.448   0.850  0.0241 -0.5282  0.2929
 1639TIP3    H126408   2.774   4.456   0.846 -0.1056  0.6290 -0.7985
 1639TIP3    H226409   2.647   4.531   0.813 -1.4105 -1.4961 -0.6549
 1640TIP3   OH226410   4.626   3.654   5.809 -0.2353 -0.2413 -0.1502
 1640TIP3    H126411   4.619   3.636   5.903  0.1965 -2.6250 -0.5442
 1640TIP3    H226412   4.562   3.595   5.769  0.8458 -0.5077 -1.4880
 1641TIP3   OH226413   2.115   5.419  13.081 -0.0992  0.0408 -0.5613
 1641TIP3    H126414   2.195   5.470  13.069  0.6383 -1.2048 -1.0636
 1641TIP3    H226415   2.062   5.471  13.140  1.8969 -0.0013  1.3336
 1642TIP3   OH226416   6.121   0.169  16.438  0.2641  0.0045  0.4841
 1642TIP3    H126417   6.098   0.174  16.531  2.0052  0.7580  0.8841
 1642TIP3    H226418   6.085   0.249  16.400  0.0289 -0.0398  0.6127
 1643TIP3   OH226419   4.009   0.067  13.168 -0.0811 -0.4864 -0.4561
 1643TIP3    H126420   4.090   0.050  13.216 -0.8476  0.6816  1.3095
 1643TIP3    H226421   3.949  -0.001  13.197 -0.1134 -0.6395 -0.8719
 1644TIP3   OH226422   4.197   2.396   3.286  0.3939  0.5927 -0.1709
 1644TIP3    H126423   4.141   2.405   3.209 -1.5266  2.0432  1.3406
 1644TIP3    H226424   4.232   2.484   3.300  2.6445 -0.1808 -0.7649
 1645TIP3   OH226425   0.834   4.785   3.001 -0.1948  0.4761 -0.2608
 1645TIP3    H126426   0.860   4.696   2.975  2.3694  0.9606  0.5544
 1645TIP3    H226427   0.852   4.839   2.924  2.1242  0.9527  0.5721
 1646TIP3   OH226428   0.854   4.065   2.253  0.3820  0.0805 -0.3836
 1646TIP3    H126429   0.932   4.119   2.248  2.5173 -2.9140 -0.9049
 1646TIP3    H226430   0.861   4.005   2.178 -1.6293 -1.2294  0.4251
 1647TIP3   OH226431   2.048   6.192   2.598 -0.0166  0.4758  0.4511
 1647TIP3    H126432   2.107   6.264   2.620  0.4171  0.2077  0.1720
 1647TIP3    H226433   2.062   6.128   2.668 -2.4670  1.8408  2.2905
 1648TIP3   OH226434   4.089   3.988  11.073 -0.3259 -0.0228  0.3069
 1648TIP3    H126435   4.170   4.027  11.042  0.7220 -1.5712  1.0486
 1648TIP3    H226436   4.042   4.060  11.117 -1.3495  1.9731 -3.7747
 1649TIP3   OH226437   5.363   1.881  11.161 -0.3036 -0.2242 -0.0050
 1649TIP3    H126438   5.435   1.896  11.099 -0.7240 -0.1323 -0.4751
 1649TIP3    H226439   5.292   1.847  11.107 -0.2934 -1.2390  0.6120
 1650TIP3   OH226440   3.561   2.953   5.645  0.1235  0.1227  0.1746
 1650TIP3    H126441   3.624   2.883   5.662 -0.4203 -0.2308  0.7708
 1650TIP3    H226442   3.526   2.974   5.732  0.3794  1.2283  0.0155
 1651TIP3   OH226443   1.750   5.089  13.550 -0.6312 -0.9453 -0.3828
 1651TIP3    H126444   1.827   5.113  13.601  1.1694  0.9272 -3.7651
 1651TIP3    H226445   1.676   5.123  13.600  0.9890  0.2472  1.2686
 1652TIP3   OH226446   5.235   5.066   1.105 -0.0592  0.3297  0.0691
 1652TIP3    H126447   5.140   5.064   1.114  0.1048  1.4928  2.6191
 1652TIP3    H226448   5.257   5.159   1.103  1.2024  0.1441  2.3906
 1653TIP3   OH226449   0.099   4.723   0.559 -0.0136  0.7057  0.3018
 1653TIP3    H126450   0.035   4.738   0.490 -0.1080 -1.8025 -0.2079
 1653TIP3    H226451   0.184   4.735   0.516 -0.0904  0.5511  0.1083
 1654TIP3   OH226452   1.010   4.759   4.455  0.1189 -0.1553  0.4181
 1654TIP3    H126453   1.007   4.851   4.482 -1.6625  0.6175 -2.2112
 1654TIP3    H226454   0.925   4.743   4.414  0.7204 -2.7569  0.0574
 1655TIP3   OH226455   2.741   6.278  11.112 -0.7042  0.1205  0.1597
 1655TIP3    H126456   2.750   6.372  11.131  0.8295 -0.0585  0.4349
 1655TIP3    H226457   2.829   6.243  11.128 -1.2146 -1.3205 -0.1844
 1656TIP3   OH226458   2.457   4.223   5.971  0.5866  0.3540  0.0890
 1656TIP3    H126459   2.485   4.310   5.942  0.8480  0.1085 -0.4003
 1656TIP3    H226460   2.526   4.194   6.030 -0.4259  1.2629  1.7442
 1657TIP3   OH226461   1.184   0.194  12.518 -0.3504  0.0755  0.6337
 1657TIP3    H126462   1.167   0.103  12.494 -0.8405 -0.1990  1.9584
 1657TIP3    H226463   1.276   0.196  12.544 -0.1104  0.1424 -0.2229
 1658TIP3   OH226464   5.555   1.367  16.458 -1.1139 -0.4296  0.0810
 1658TIP3    H126465   5.492   1.296  16.446  0.8336 -2.0983 -0.6535
 1658TIP3    H226466   5.531   1.433  16.393 -2.5428 -0.7109  0.3245
 1659TIP3   OH226467   4.846   5.362  10.542 -0.4553 -0.4162  0.2193
 1659TIP3    H126468   4.785   5.430  10.514  2.3660  1.8211 -0.6758
 1659TIP3    H226469   4.809   5.281  10.506 -2.0979  1.1013 -1.6130
 1660TIP3   OH226470   0.446   2.201  14.187 -0.1258  0.3573 -1.2424
 1660TIP3    H126471   0.434   2.120  14.138  2.4036 -0.7083 -0.1961
 1660TIP3    H226472   0.534   2.230  14.165  0.0262  1.3210  0.5137
 1661TIP3   OH226473   2.720   4.848  11.261  0.2082 -0.0777 -0.0123
 1661TIP3    H126474   2.774   4.885  11.331  0.3415  2.8701 -1.6062
 1661TIP3    H226475   2.652   4.799  11.307  2.5468 -1.4949  2.0808
 1662TIP3   OH226476   0.708   0.082   3.709 -0.3245 -0.2815 -0.0900
 1662TIP3    H126477   0.632   0.091   3.652  0.2737  0.5517 -0.7727
 1662TIP3    H226478   0.695   0.149   3.776 -1.5520 -1.9444  1.3884
 1663TIP3   OH226479   2.504   1.291   2.031 -0.5207  0.1374 -0.2024
 1663TIP3    H126480   2.510   1.232   1.955  0.8498  0.8037 -0.6212
 1663TIP3    H226481   2.595   1.306   2.056 -0.8507  2.2026 -0.2019
 1664TIP3   OH226482   1.242   2.077  16.734 -0.2721 -0.4288  0.0044
 1664TIP3    H126483   1.232   2.012  16.803  0.3379  0.9738  1.4683
 1664TIP3    H226484   1.174   2.056  16.670 -0.6340 -1.9557  0.8744
 1665TIP3   OH226485   5.399   4.427   3.025  0.1610  0.2312 -0.3508
 1665TIP3    H126486   5.350   4.499   2.986 -0.6027  0.4364  0.9176
 1665TIP3    H226487   5.374   4.350   2.974 -0.8872  0.4782 -0.2338
 1666TIP3   OH226488   5.310   5.003   3.642  0.2348  0.6445  0.2100
 1666TIP3    H126489   5.214   5.005   3.638  0.3202  2.3230 -2.1242
 1666TIP3    H226490   5.330   4.922   3.689 -2.3276  0.7993  1.6501
 1667TIP3   OH226491   5.322   5.534  11.901  0.4397  0.4048 -0.0986
 1667TIP3    H126492   5.243   5.528  11.955 -0.1528 -1.2168 -1.1405
 1667TIP3    H226493   5.292   5.522  11.811  1.7643  0.6179 -0.5917
 1668TIP3   OH226494   4.300   5.653  12.936 -0.1697 -0.7471  0.2128
 1668TIP3    H126495   4.343   5.733  12.907 -2.6892  0.5162 -0.1542
 1668TIP3    H226496   4.330   5.641  13.026 -0.2373  0.9561  0.4826
 1669TIP3   OH226497   5.656   4.103   2.909 -0.1507  0.3747  0.5038
 1669TIP3    H126498   5.580   4.058   2.946 -0.7036  0.5061 -0.4618
 1669TIP3    H226499   5.715   4.033   2.881 -0.5850  0.2533 -0.1205
 1670TIP3   OH226500   3.890   5.102  15.011 -0.2467 -0.1504  0.1125
 1670TIP3    H126501   3.939   5.078  14.932 -1.4239  0.1463 -0.7191
 1670TIP3    H226502   3.801   5.072  14.994 -0.2615 -1.1726  1.8415
 1671TIP3   OH226503   2.739   4.347  13.686  0.1626 -0.0738  0.7258
 1671TIP3    H126504   2.726   4.260  13.723  1.1211 -0.6878 -0.3387
 1671TIP3    H226505   2.685   4.348  13.607  0.7653  0.0010  0.3047
 1672TIP3   OH226506   3.580   4.224  14.093 -0.5417  0.0643  0.6163
 1672TIP3    H126507   3.584   4.130  14.109 -0.8258  0.3175  2.2147
 1672TIP3    H226508   3.503   4.236  14.037 -0.0593 -0.7248 -0.2340
 1673TIP3   OH226509   6.099   1.554   5.935  0.0577  0.2026  0.0401
 1673TIP3    H126510   6.117   1.462   5.916 -2.4427 -0.5148  0.9318
 1673TIP3    H226511   6.049   1.552   6.017  0.9508  2.4346  0.6622
 1674TIP3   OH226512   5.732   6.595  11.611 -0.1137 -0.0861 -0.7421
 1674TIP3    H126513   5.773   6.564  11.692 -0.0201  3.3619  0.6649
 1674TIP3    H226514   5.806   6.620  11.555 -0.1769  0.9958 -0.3705
 1675TIP3   OH226515   6.424   1.091  11.993 -0.4898 -0.7721  0.5477
 1675TIP3    H126516   6.487   1.157  11.964 -1.0227 -0.5904 -0.2267
 1675TIP3    H226517   6.477   1.024  12.036  0.2896 -0.8458 -0.5020
 1676TIP3   OH226518   6.589   1.945  16.178  0.6348  0.0922 -0.2676
 1676TIP3    H126519   6.504   1.981  16.201 -0.0742 -1.2490 -0.7784
 1676TIP3    H226520   6.652   2.006  16.217 -0.5526  0.8395  0.4989
 1677TIP3   OH226521   5.903   2.146  14.221 -0.0042  0.2632  0.4675
 1677TIP3    H126522   5.995   2.170  14.213  0.1277  0.5947  2.5367
 1677TIP3    H226523   5.884   2.092  14.144  2.4082 -1.2949  0.9145
 1678TIP3   OH226524   3.381   1.241   3.253 -0.3170  0.5599 -0.1695
 1678TIP3    H126525   3.429   1.244   3.170 -2.0585  1.0999 -1.2020
 1678TIP3    H226526   3.333   1.159   3.249 -1.4097  1.1922 -0.2996
 1679TIP3   OH226527   1.585   2.063   3.918 -0.2395  0.4066 -0.1669
 1679TIP3    H126528   1.494   2.092   3.923 -0.0861  0.9726 -0.7263
 1679TIP3    H226529   1.582   1.972   3.949 -0.8333  0.7551  0.8251
 1680TIP3   OH226530   1.602   0.380  10.706 -0.3705 -0.2316  0.3798
 1680TIP3    H126531   1.679   0.345  10.750  0.1648 -0.1452 -0.4707
 1680TIP3    H226532   1.635   0.413  10.622 -1.1034  1.0402  0.5817
 1681TIP3   OH226533   2.839   0.871   5.939 -0.4993  0.3093  0.2680
 1681TIP3    H126534   2.878   0.796   5.986 -0.6425  0.8254  1.2337
 1681TIP3    H226535   2.914   0.924   5.913 -0.3559 -0.5026 -1.0083
 1682TIP3   OH226536   0.361   2.353  14.662 -0.3756 -0.1647  0.0378
 1682TIP3    H126537   0.419   2.348  14.738 -0.1402 -0.3309 -0.1525
 1682TIP3    H226538   0.279   2.316  14.693 -0.7253  1.0788  0.6311
 1683TIP3   OH226539   1.142   5.246  17.258  0.3591  0.0650 -0.5448
 1683TIP3    H126540   1.103   5.289  17.335 -1.0149 -0.3382 -1.0027
 1683TIP3    H226541   1.076   5.254  17.190  0.7924 -1.2594 -1.1404
 1684TIP3   OH226542   0.132   2.641  16.687 -0.3000 -0.1940  0.2353
 1684TIP3    H126543   0.124   2.575  16.618 -1.3005  1.3349 -1.1401
 1684TIP3    H226544   0.193   2.706  16.652 -0.7722  0.5765  0.8180
 1685TIP3   OH226545   6.541   4.456   3.328  0.6576 -0.2263 -0.1963
 1685TIP3    H126546   6.553   4.477   3.421 -2.9041  2.2105 -0.1475
 1685TIP3    H226547   6.500   4.370   3.328 -0.9114  0.4960  0.6358
 1686TIP3   OH226548   3.918   2.403   5.472  0.6037 -0.5794 -0.2833
 1686TIP3    H126549   3.899   2.390   5.565  0.7115 -1.9622 -0.4460
 1686TIP3    H226550   3.859   2.474   5.445  0.0857 -0.6349  0.6682
 1687TIP3   OH226551   0.150   0.481  11.158  0.2953 -0.4606  0.2542
 1687TIP3    H126552   0.160   0.527  11.075  0.2298 -1.0610 -0.0943
 1687TIP3    H226553   0.232   0.432  11.168  1.0487  1.0026  1.4284
 1688TIP3   OH226554   2.969   2.721   1.266  0.1201  0.0192  0.0393
 1688TIP3    H126555   2.921   2.648   1.228 -1.6307  1.6395 -1.0021
 1688TIP3    H226556   3.060   2.707   1.239 -0.3457 -1.2890 -0.8943
 1689TIP3   OH226557   2.880   5.619   3.697 -0.4946  0.0415 -0.2127
 1689TIP3    H126558   2.916   5.566   3.627 -0.0213 -0.3943  0.3604
 1689TIP3    H226559   2.791   5.586   3.709  0.1665 -1.3597  0.8837
 1690TIP3   OH226560   6.284   0.042  13.206 -0.1889 -0.1084 -0.5419
 1690TIP3    H126561   6.362   0.018  13.256 -0.7781  1.0927  1.0118
 1690TIP3    H226562   6.289   0.137  13.198 -2.1518  0.1406  0.7806
 1691TIP3   OH226563   2.824   2.902   4.355  0.4352  0.0327 -0.5187
 1691TIP3    H126564   2.754   2.840   4.335 -0.9128  1.2690  0.2674
 1691TIP3    H226565   2.901   2.847   4.370 -0.6417 -1.4311 -0.1932
 1692TIP3   OH226566   5.191   0.012  13.453 -0.5809  0.1618  0.5500
 1692TIP3    H126567   5.265  -0.039  13.422 -0.9100  0.6154 -1.0643
 1692TIP3    H226568   5.224   0.061  13.528  0.3869 -0.6176  0.6264
 1693TIP3   OH226569   5.074   6.671  16.697  0.0515  0.6186  0.0059
 1693TIP3    H126570   5.116   6.700  16.778  1.2666  0.0832 -0.4221
 1693TIP3    H226571   4.986   6.644  16.725  0.1097  1.3931  0.9788
 1694TIP3   OH226572   5.446   0.446  16.179  0.1708  0.6861 -0.1312
 1694TIP3    H126573   5.407   0.366  16.216  0.7345 -0.6019 -2.2788
 1694TIP3    H226574   5.446   0.432  16.085  3.0658  1.9467 -0.3706
 1695TIP3   OH226575   5.208   5.389   5.785 -0.0229  0.6953  0.3074
 1695TIP3    H126576   5.292   5.370   5.743 -0.2118  1.1717 -0.3139
 1695TIP3    H226577   5.200   5.325   5.855 -0.3155 -1.0315 -1.2533
 1696TIP3   OH226578   6.003   0.835  12.422  0.2993  0.5760  0.6156
 1696TIP3    H126579   5.935   0.790  12.371 -0.3455 -0.3313  2.2426
 1696TIP3    H226580   6.069   0.767  12.437 -0.6108  0.1454  2.9614
 1697TIP3   OH226581   0.306   4.181  16.796 -0.5397  0.1220 -0.2578
 1697TIP3    H126582   0.315   4.254  16.735 -2.6564  0.1856 -0.5392
 1697TIP3    H226583   0.212   4.174  16.811 -0.1265 -0.5168  2.2600
 1698TIP3   OH226584   3.536   6.484   1.236  0.1822  0.2528  1.0120
 1698TIP3    H126585   3.482   6.529   1.302 -0.5855  1.5308 -0.4522
 1698TIP3    H226586   3.508   6.393   1.240 -1.1915  0.6677  1.1578
 1699TIP3   OH226587   3.474   1.161  13.317  0.4211 -0.0906  0.3327
 1699TIP3    H126588   3.412   1.211  13.265  0.7988  0.5414  0.4879
 1699TIP3    H226589   3.469   1.200  13.405  1.7166  0.5661  0.1201
 1700TIP3   OH226590   0.754   0.098   4.617 -0.5297 -0.0515  0.2708
 1700TIP3    H126591   0.733   0.171   4.676  0.3052 -0.3852  1.0024
 1700TIP3    H226592   0.734   0.131   4.530 -0.2325  1.0294  0.6003
 1701TIP3   OH226593   5.938   4.918  11.529  0.0258 -0.0040 -0.9043
 1701TIP3    H126594   5.912   4.843  11.476  0.6224 -0.6980 -0.2484
 1701TIP3    H226595   6.000   4.966  11.475 -2.6485  1.7105 -2.5119
 1702TIP3   OH226596   5.899   5.814  15.395 -0.3724 -0.7632 -0.2598
 1702TIP3    H126597   5.988   5.847  15.384 -0.7347 -0.1393 -1.4599
 1702TIP3    H226598   5.910   5.721  15.413  0.5615 -0.4659  0.8083
 1703TIP3   OH226599   5.959   1.264   2.563  0.1751  0.5997  0.0118
 1703TIP3    H126600   5.979   1.192   2.504 -1.4054 -0.3753  0.6178
 1703TIP3    H226601   5.982   1.343   2.514 -1.8521 -0.1499 -2.2148
 1704TIP3   OH226602   2.102   4.196  14.672 -0.4281  0.2065 -0.5221
 1704TIP3    H126603   2.173   4.132  14.669 -2.5713 -2.2829  0.0104
 1704TIP3    H226604   2.064   4.194  14.585 -0.8315  0.3891 -0.3514
 1705TIP3   OH226605   1.372   2.433  12.465  0.2805 -0.1833 -0.2473
 1705TIP3    H126606   1.303   2.369  12.484  0.3785 -0.0588  0.5395
 1705TIP3    H226607   1.326   2.508  12.428  0.3601 -1.5148 -3.2822
 1706TIP3   OH226608   6.128   5.034   3.787  0.2817 -0.5431  0.3341
 1706TIP3    H126609   6.033   5.041   3.784  0.4431  2.5439  0.0933
 1706TIP3    H226610   6.148   4.958   3.733 -1.9396  0.2889 -1.7715
 1707TIP3   OH226611   2.743   3.958   3.352 -0.4096 -0.2473  0.7704
 1707TIP3    H126612   2.680   3.988   3.417 -0.6725  0.9461 -0.0253
 1707TIP3    H226613   2.707   3.986   3.268  0.3579 -1.0099  0.1699
 1708TIP3   OH226614   3.294   0.412  12.185 -0.1764  0.2274  0.1992
 1708TIP3    H126615   3.285   0.389  12.278  1.6383  0.1753  0.3874
 1708TIP3    H226616   3.317   0.505  12.185  0.1433  0.1497 -0.1748
 1709TIP3   OH226617   3.986   6.443  16.363 -0.3388 -0.2560 -0.1915
 1709TIP3    H126618   3.928   6.506  16.319 -1.7645 -0.8164  0.8728
 1709TIP3    H226619   3.982   6.365  16.309 -0.8554 -0.4130  0.0725
 1710TIP3   OH226620   0.607   3.465   2.010  0.0336  0.1608 -0.1139
 1710TIP3    H126621   0.572   3.413   2.083 -2.1674  0.9214 -0.5841
 1710TIP3    H226622   0.607   3.555   2.043  0.9431  0.2573 -0.3680
 1711TIP3   OH226623   4.659   1.623  14.376  0.0369  0.0128  0.5712
 1711TIP3    H126624   4.626   1.534  14.387  1.8273 -0.7656 -0.1456
 1711TIP3    H226625   4.652   1.640  14.282 -0.6676  0.7898  0.7595
 1712TIP3   OH226626   0.976   0.103  13.778 -0.2168  0.3706  0.2213
 1712TIP3    H126627   0.978   0.088  13.873  0.1545  0.8941  0.2959
 1712TIP3    H226628   0.979   0.198  13.769 -0.4033  0.3241 -0.3149
 1713TIP3   OH226629   6.751   0.841   2.088 -0.2469  0.5509  0.3563
 1713TIP3    H126630   6.724   0.753   2.112  0.2498  0.4093  0.4056
 1713TIP3    H226631   6.755   0.889   2.171  2.2075 -0.1414  0.6900
 1714TIP3   OH226632   1.030   1.790  11.752  0.2616  0.5831 -0.0888
 1714TIP3    H126633   0.973   1.811  11.678 -0.3255  1.0004  0.4848
 1714TIP3    H226634   1.028   1.868  11.807  2.1775  1.0004 -0.5586
 1715TIP3   OH226635   1.131   6.504   4.619  0.5512  0.9127  0.1755
 1715TIP3    H126636   1.223   6.492   4.642  0.5958  1.9100  0.5497
 1715TIP3    H226637   1.132   6.522   4.525  0.6710  0.2003  0.0383
 1716TIP3   OH226638   5.056   5.215   5.077 -0.0559  0.1754 -0.6293
 1716TIP3    H126639   5.057   5.157   5.001  0.3389 -0.0493 -0.4524
 1716TIP3    H226640   5.075   5.158   5.152 -1.6606  0.1695 -0.2004
 1717TIP3   OH226641   4.975   1.897  16.206  0.1005  0.3390  0.7781
 1717TIP3    H126642   4.921   1.837  16.153  0.0102  0.7724  0.3751
 1717TIP3    H226643   5.059   1.900  16.161 -0.1750  1.1838  0.3228
 1718TIP3   OH226644   6.279   6.281   3.414  0.2749  0.6855  0.4235
 1718TIP3    H126645   6.299   6.268   3.507 -0.7331  1.2047  0.7177
 1718TIP3    H226646   6.193   6.322   3.414  1.1151  2.4979 -0.6747
 1719TIP3   OH226647   1.205   0.646   5.424 -0.2174 -0.4357  0.4421
 1719TIP3    H126648   1.297   0.656   5.397 -0.3723  0.2722  0.1775
 1719TIP3    H226649   1.164   0.600   5.352 -0.3392  0.3153  0.0257
 1720TIP3   OH226650   1.420   6.730  17.117  0.0679 -0.0782 -0.2799
 1720TIP3    H126651   1.423   6.791  17.043 -0.8482  0.3045 -0.0217
 1720TIP3    H226652   1.492   6.669  17.102  1.1319  1.2033 -0.4289
 1721TIP3   OH226653   2.089   4.684  11.987  0.2409 -0.1784  0.6086
 1721TIP3    H126654   2.011   4.719  12.031  0.1226 -0.6362  0.7641
 1721TIP3    H226655   2.132   4.631  12.054 -0.4488 -1.6588 -0.0987
 1722TIP3   OH226656   0.240   2.568  11.478 -0.3145 -0.0158 -0.2235
 1722TIP3    H126657   0.314   2.563  11.539 -0.5225  0.7175  0.0895
 1722TIP3    H226658   0.280   2.570  11.391  0.0154 -0.0142 -0.0740
 1723TIP3   OH226659   5.672   0.586  15.415  0.1963  0.1017 -0.2913
 1723TIP3    H126660   5.656   0.495  15.391  1.3535 -0.8262  2.2163
 1723TIP3    H226661   5.645   0.636  15.338  0.8546 -2.4308 -2.2623
 1724TIP3   OH226662   1.325   1.671  14.574  0.0780 -0.0969 -0.2511
 1724TIP3    H126663   1.407   1.719  14.561  0.3109 -0.0584  1.2767
 1724TIP3    H226664   1.278   1.722  14.639  0.2723 -1.8601  1.2834
 1725TIP3   OH226665   4.399   3.222  15.168  0.3130  0.3717  0.1473
 1725TIP3    H126666   4.444   3.307  15.162  2.6634 -0.9284 -1.7453
 1725TIP3    H226667   4.390   3.206  15.262  0.2650  2.5087  0.5269
 1726TIP3   OH226668   3.530   2.554   2.674  0.4175 -0.1198  0.2056
 1726TIP3    H126669   3.506   2.472   2.633  1.8265 -1.4513  1.9552
 1726TIP3    H226670   3.612   2.535   2.720 -0.4633  1.5990  2.6088
 1727TIP3   OH226671   2.980   2.628   5.484 -0.0134  0.5999  0.0831
 1727TIP3    H126672   2.952   2.720   5.482 -1.6017  0.1789  1.7417
 1727TIP3    H226673   2.947   2.592   5.401 -2.7427  0.6119  1.1108
 1728TIP3   OH226674   3.243   3.069  15.751  0.0888 -0.6067 -0.0694
 1728TIP3    H126675   3.309   3.132  15.778  1.0548 -1.9534  0.7921
 1728TIP3    H226676   3.194   3.050  15.831 -1.0263 -0.0077 -0.5955
 1729TIP3   OH226677   3.881   6.668  14.192 -0.8071  0.5265 -0.0938
 1729TIP3    H126678   3.962   6.676  14.243  0.3862  1.6237 -2.0718
 1729TIP3    H226679   3.815   6.711  14.245  0.5778  2.3676  0.2154
 1730TIP3   OH226680   6.269   3.720   4.840  0.1128 -0.2468  0.0527
 1730TIP3    H126681   6.247   3.800   4.888 -0.3434 -2.8203  4.2655
 1730TIP3    H226682   6.185   3.681   4.817  0.3396 -0.9721  0.4641
 1731TIP3   OH226683   5.648   3.901  15.401 -0.0911 -0.6094 -0.5633
 1731TIP3    H126684   5.657   3.911  15.496  1.0212  0.2497 -0.7363
 1731TIP3    H226685   5.562   3.936  15.381  0.0273  0.0477  0.0311
 1732TIP3   OH226686   2.845   3.319   5.130 -0.2534 -0.3577  0.4708
 1732TIP3    H126687   2.824   3.385   5.196 -2.0462 -0.1576 -0.2823
 1732TIP3    H226688   2.825   3.236   5.173 -1.8302 -0.2084  0.0535
 1733TIP3   OH226689   6.679   4.615  16.664  0.4594  0.2056 -0.2323
 1733TIP3    H126690   6.682   4.531  16.619 -0.0861 -0.0010  0.1057
 1733TIP3    H226691   6.766   4.652  16.653  0.7487 -0.4797 -0.2512
 1734TIP3   OH226692   6.350   5.210  11.694  0.8760  0.0521 -0.1673
 1734TIP3    H126693   6.303   5.294  11.689 -0.0818 -0.4046  1.0540
 1734TIP3    H226694   6.429   5.230  11.744  0.1922  0.0172  0.9232
 1735TIP3   OH226695   3.805   4.257   6.028  0.7359  0.6361  0.0474
 1735TIP3    H126696   3.726   4.257   6.082 -0.0512  0.0753 -1.0647
 1735TIP3    H226697   3.852   4.177   6.052  1.0302  1.0431  0.8130
 1736TIP3   OH226698   0.009   6.639   1.801 -0.1743  0.2423  0.3577
 1736TIP3    H126699  -0.018   6.730   1.793 -0.0259  0.1361 -1.5946
 1736TIP3    H226700   0.083   6.641   1.861 -0.1900  1.4090  0.3464
 1737TIP3   OH226701   5.531   6.097   1.926 -0.1185  0.4468  0.6415
 1737TIP3    H126702   5.580   6.018   1.948  0.2287  0.0408 -1.5129
 1737TIP3    H226703   5.566   6.164   1.984  0.9679 -0.5182  1.1146
 1738TIP3   OH226704   5.725   6.247  13.389 -0.8279 -0.3163  0.2000
 1738TIP3    H126705   5.658   6.207  13.333 -0.8346 -1.0329  0.7101
 1738TIP3    H226706   5.808   6.223  13.348 -0.8935  0.9503 -0.6806
 1739TIP3   OH226707   4.831   5.220  15.797 -0.0372 -0.6863  1.0371
 1739TIP3    H126708   4.769   5.255  15.733  0.7654 -0.0453  0.6074
 1739TIP3    H226709   4.796   5.133  15.819 -1.1400 -0.2887  0.8828
 1740TIP3   OH226710   6.140   3.395  13.253  0.3692  0.4715 -0.0951
 1740TIP3    H126711   6.210   3.376  13.315 -1.2858 -0.1394  1.6162
 1740TIP3    H226712   6.060   3.367  13.297 -0.6403 -2.2338 -3.4623
 1741TIP3   OH226713   2.789   4.841   2.938  0.2029 -0.8905 -0.0174
 1741TIP3    H126714   2.705   4.874   2.969  0.8194 -0.4015  1.1643
 1741TIP3    H226715   2.797   4.754   2.977 -1.6864 -2.7664 -3.6003
 1742TIP3   OH226716   4.315   4.467  14.137  0.4248  0.1224 -0.0129
 1742TIP3    H126717   4.274   4.510  14.213 -0.8030  1.2508 -1.2708
 1742TIP3    H226718   4.243   4.418  14.096  0.8434  0.3296 -1.0059
 1743TIP3   OH226719   5.968   5.503   4.604  0.1387 -0.3280 -0.2405
 1743TIP3    H126720   5.935   5.588   4.576 -0.8399 -0.0418  1.7289
 1743TIP3    H226721   6.038   5.483   4.542  0.4295  1.9486 -0.6726
 1744TIP3   OH226722   3.405   1.895  14.851 -0.0106  0.1794 -0.3637
 1744TIP3    H126723   3.492   1.921  14.883 -0.1625 -0.5373  0.6531
 1744TIP3    H226724   3.394   1.805  14.882 -0.7480 -0.0453 -1.2643
 1745TIP3   OH226725   6.618   0.845  14.647  0.0350 -0.3221  0.2900
 1745TIP3    H126726   6.579   0.828  14.561 -1.3121  0.7140  0.6735
 1745TIP3    H226727   6.694   0.900  14.629 -0.3679  0.0702 -0.2259
 1746TIP3   OH226728   1.426   5.119  11.676 -0.3688  0.5609 -0.0084
 1746TIP3    H126729   1.377   5.043  11.644 -0.6043  0.9797 -0.6564
 1746TIP3    H226730   1.515   5.087  11.686 -0.5143  0.1323 -0.0601
 1747TIP3   OH226731   4.000   2.564   2.465 -0.0967 -0.1968  0.1205
 1747TIP3    H126732   3.908   2.557   2.440 -0.7371  2.3592  1.6267
 1747TIP3    H226733   4.014   2.493   2.528 -1.0307 -0.6047 -0.1316
 1748TIP3   OH226734   5.979   0.923   6.050  0.2837 -0.1782  0.2728
 1748TIP3    H126735   6.073   0.937   6.058  0.1921  0.8911 -0.4734
 1748TIP3    H226736   5.956   0.962   5.966 -0.8197 -0.4946  0.4210
 1749TIP3   OH226737   5.943   3.776   2.602 -0.2939  0.2898  0.1940
 1749TIP3    H126738   6.028   3.802   2.567 -0.8238  2.2250  0.2791
 1749TIP3    H226739   5.900   3.732   2.528  0.2005  0.6474 -0.3167
 1750TIP3   OH226740   1.199   1.879  16.919  0.0709 -0.3364  0.2776
 1750TIP3    H126741   1.137   1.806  16.926 -0.4562  0.1437  0.5672
 1750TIP3    H226742   1.279   1.845  16.959  0.4034 -1.4103 -1.2457
 1751TIP3   OH226743   2.953   2.718   2.371  0.0570  0.6750 -0.0430
 1751TIP3    H126744   2.957   2.812   2.358 -1.7830  0.8524  0.5471
 1751TIP3    H226745   2.879   2.704   2.430  0.9129 -1.0670  0.6783
 1752TIP3   OH226746   5.567   5.533   4.603  0.3607 -0.0292 -0.7099
 1752TIP3    H126747   5.539   5.591   4.674  0.5365  0.1953 -0.8248
 1752TIP3    H226748   5.644   5.575   4.566  0.5459 -0.3834 -0.7330
 1753TIP3   OH226749   6.365   0.369   1.442  0.6349 -0.2216  0.1262
 1753TIP3    H126750   6.346   0.457   1.477  0.0367 -0.1103 -0.4811
 1753TIP3    H226751   6.321   0.310   1.503  1.2610 -0.1177  0.6902
 1754TIP3   OH226752   1.385   2.179   5.833 -0.9077  0.1122  0.4412
 1754TIP3    H126753   1.394   2.091   5.868  1.6071 -1.1668 -3.0973
 1754TIP3    H226754   1.450   2.231   5.879 -0.1471 -0.6733  0.2473
 1755TIP3   OH226755   3.665   0.878   0.056  0.4845  0.5065  0.4731
 1755TIP3    H126756   3.661   0.926   0.139  2.1200  0.9985  0.2722
 1755TIP3    H226757   3.578   0.838   0.048  1.2478 -2.0155  3.8592
 1756TIP3   OH226758   4.773   3.418  16.866 -0.9894  0.5300 -0.2687
 1756TIP3    H126759   4.821   3.500  16.854  0.2539 -0.0833  0.4408
 1756TIP3    H226760   4.715   3.435  16.940  0.8269  0.0923  1.2840
 1757TIP3   OH226761   1.552   0.083  10.507  0.0405  0.3008  0.2447
 1757TIP3    H126762   1.577   0.165  10.464 -1.5325 -0.1374 -1.5427
 1757TIP3    H226763   1.634   0.048  10.542  1.2963  0.8472 -2.0930
 1758TIP3   OH226764   1.053   6.029   0.799 -0.5489 -0.8756  0.0747
 1758TIP3    H126765   1.112   6.098   0.830  0.8725 -1.9233 -0.2161
 1758TIP3    H226766   1.103   5.948   0.811 -1.2966 -1.6358 -1.7366
 1759TIP3   OH226767   2.498   0.796  17.099 -0.4365 -0.5306 -0.5177
 1759TIP3    H126768   2.495   0.706  17.131  0.5843 -0.9548 -1.5765
 1759TIP3    H226769   2.585   0.828  17.125 -1.1209  0.4570  0.6338
 1760TIP3   OH226770   0.823   1.435  12.716  0.2546  0.1386 -0.3223
 1760TIP3    H126771   0.840   1.343  12.698  0.8958  0.1237  0.3357
 1760TIP3    H226772   0.899   1.481  12.681 -1.0164  0.6275 -2.5095
 1761TIP3   OH226773   1.003   5.222   3.396 -0.2476  0.2228  0.1727
 1761TIP3    H126774   0.949   5.183   3.465  1.1716  1.0463  1.7897
 1761TIP3    H226775   1.018   5.151   3.334 -1.4315 -0.5707  0.7789
 1762TIP3   OH226776   5.797   1.035  16.591 -0.0975 -0.1564  0.2415
 1762TIP3    H126777   5.859   0.981  16.542 -0.2241 -0.7104  0.6851
 1762TIP3    H226778   5.761   0.976  16.657 -1.5572 -0.0145 -0.3944
 1763TIP3   OH226779   4.240   4.047  16.002  0.2393 -0.2498  0.1949
 1763TIP3    H126780   4.305   4.007  16.060  1.1552 -0.2597 -0.8170
 1763TIP3    H226781   4.287   4.062  15.920 -0.6898  0.8881 -0.1556
 1764TIP3   OH226782   2.029   5.224  12.387  0.7271  0.3202 -0.5947
 1764TIP3    H126783   2.059   5.266  12.306 -2.4038 -0.5432 -2.2584
 1764TIP3    H226784   2.041   5.131  12.372 -1.8261  0.0219 -0.9333
 1765TIP3   OH226785   3.457   0.849   5.722 -0.2841 -0.0255 -0.4758
 1765TIP3    H126786   3.496   0.791   5.787 -0.4686 -0.5543 -0.8382
 1765TIP3    H226787   3.490   0.817   5.638 -2.7565 -1.5009 -0.9322
 1766TIP3   OH226788   3.221   6.032  11.641  0.3365  0.2969 -0.3165
 1766TIP3    H126789   3.269   6.098  11.592  0.6839  0.2178 -0.0828
 1766TIP3    H226790   3.279   6.007  11.713 -0.3878  0.8284  0.4748
 1767TIP3   OH226791   4.720   3.420   3.828  0.1972 -0.2240 -0.3563
 1767TIP3    H126792   4.759   3.507   3.837 -0.3576 -0.0091  0.0364
 1767TIP3    H226793   4.735   3.378   3.912  1.9219 -1.1261 -1.1053
 1768TIP3   OH226794   0.384   0.082  16.441 -0.3289 -0.2237 -0.2029
 1768TIP3    H126795   0.466   0.075  16.489 -1.4000  0.3665  1.7698
 1768TIP3    H226796   0.325   0.127  16.502 -2.4589 -1.7125 -1.1464
 1769TIP3   OH226797   3.767   3.301  12.280  0.1690 -0.0650 -0.5040
 1769TIP3    H126798   3.727   3.289  12.366 -0.0112  0.0932 -0.5697
 1769TIP3    H226799   3.855   3.264  12.290 -0.3311 -1.3327 -0.6465
 1770TIP3   OH226800   5.607   4.458  15.014 -0.1954  0.1338  0.4702
 1770TIP3    H126801   5.537   4.393  15.020 -1.1300  1.0297 -0.6161
 1770TIP3    H226802   5.671   4.420  14.954  0.6653 -1.0439  2.0912
 1771TIP3   OH226803   0.503   2.686   0.363  0.4132 -0.0460 -0.2930
 1771TIP3    H126804   0.582   2.633   0.369 -1.2007 -2.5837 -0.5368
 1771TIP3    H226805   0.437   2.636   0.410 -1.1767  1.7990 -0.4783
 1772TIP3   OH226806   0.892   5.722  12.099  0.3298  0.3029 -0.0628
 1772TIP3    H126807   0.911   5.798  12.154 -0.0512  0.2411  0.1573
 1772TIP3    H226808   0.809   5.689  12.133  0.2692  0.0578 -0.4533
 1773TIP3   OH226809   6.790   6.386   2.174 -0.5655  0.3501  0.1585
 1773TIP3    H126810   6.785   6.345   2.087 -0.2887  0.6363  0.0039
 1773TIP3    H226811   6.746   6.471   2.163 -0.2210  0.5353  0.2047
 1774TIP3   OH226812   4.483   2.685  11.457 -0.9178  0.2774  0.1060
 1774TIP3    H126813   4.480   2.673  11.362 -2.2029 -0.8697  0.2809
 1774TIP3    H226814   4.517   2.774  11.469 -0.1717  0.2133 -1.4109
 1775TIP3   OH226815   3.129   4.741  10.962 -0.5334 -0.3205 -0.1569
 1775TIP3    H126816   3.105   4.833  10.954  2.4032  0.6185  1.0654
 1775TIP3    H226817   3.100   4.716  11.049  0.4237  0.0432  0.2765
 1776TIP3   OH226818   5.932   5.505   0.643 -0.5436 -0.4008  0.6661
 1776TIP3    H126819   5.946   5.523   0.550 -3.2603 -1.8785 -0.0709
 1776TIP3    H226820   5.939   5.409   0.650 -0.6251 -0.3215  1.9324
 1777TIP3   OH226821   6.195   1.667   0.222 -0.7533 -0.3301  0.1293
 1777TIP3    H126822   6.224   1.629   0.305 -1.9940 -0.2663  0.5982
 1777TIP3    H226823   6.223   1.759   0.228 -0.3072 -0.4706  0.2200
 1778TIP3   OH226824   0.886   6.810   2.171  0.3667  0.0451  0.6388
 1778TIP3    H126825   0.838   6.873   2.116 -0.7204  0.3641  1.9192
 1778TIP3    H226826   0.869   6.725   2.131  0.7606  0.4268 -0.3475
 1779TIP3   OH226827   4.886   3.465  16.388  0.0430 -0.6133 -0.1703
 1779TIP3    H126828   4.956   3.436  16.330 -1.3047 -1.2072 -1.5077
 1779TIP3    H226829   4.932   3.506  16.461  1.7832 -0.8051 -1.1287
 1780TIP3   OH226830   0.102   3.813   4.914  0.6007 -0.3587  0.4060
 1780TIP3    H126831   0.037   3.868   4.870 -0.1417 -1.4574  0.0980
 1780TIP3    H226832   0.147   3.767   4.843  1.1403 -0.2466  0.6674
 1781TIP3   OH226833   2.362   1.320  14.156 -0.2615 -0.2859  0.9822
 1781TIP3    H126834   2.440   1.356  14.112 -1.0902 -0.2733 -0.5043
 1781TIP3    H226835   2.301   1.302  14.085 -2.5604  1.9631  2.3130
 1782TIP3   OH226836   1.978   3.845   0.007 -0.0780  0.1381 -0.1646
 1782TIP3    H126837   2.003   3.889   0.088  3.5284  0.6312 -1.4182
 1782TIP3    H226838   1.996   3.752   0.024  1.9474  0.3883 -0.7600
 1783TIP3   OH226839   4.684   0.049  17.168 -0.1299  0.0137 -0.1863
 1783TIP3    H126840   4.687   0.086  17.080  1.2592  0.0989 -0.1018
 1783TIP3    H226841   4.603  -0.002  17.169  0.2454 -0.6352 -1.7719
 1784TIP3   OH226842   2.573   4.231  14.622  0.5021  0.3869  0.4673
 1784TIP3    H126843   2.532   4.204  14.704 -0.1726 -0.0636 -0.0180
 1784TIP3    H226844   2.587   4.325  14.632  0.3066  0.3568  1.0450
 1785TIP3   OH226845   6.642   6.628   2.144 -0.1864 -0.1999  0.0735
 1785TIP3    H126846   6.594   6.695   2.096  1.0722  0.9403  0.3798
 1785TIP3    H226847   6.578   6.591   2.205 -1.3903 -0.6297 -1.4279
 1786TIP3   OH226848   3.778   1.581   1.040 -0.0077  0.1752  0.2748
 1786TIP3    H126849   3.831   1.510   1.076 -0.0226  0.4468  0.8332
 1786TIP3    H226850   3.822   1.606   0.959  0.9424  0.6864  0.9524
 1787TIP3   OH226851   6.614   6.268   3.206 -0.2160  0.2196 -0.3794
 1787TIP3    H126852   6.662   6.276   3.289 -0.3155 -2.0172 -0.0677
 1787TIP3    H226853   6.681   6.259   3.139 -0.1592 -0.0168 -0.2912
 1788TIP3   OH226854   3.858   4.115  10.886 -0.0070  0.0267 -0.1535
 1788TIP3    H126855   3.932   4.152  10.838  1.1761 -0.2123  1.4075
 1788TIP3    H226856   3.888   4.028  10.912 -0.8066 -0.0511  0.5412
 1789TIP3   OH226857   5.232   1.827  16.110  0.2187  0.0676  0.4850
 1789TIP3    H126858   5.261   1.747  16.155  1.0231  0.4929  0.7347
 1789TIP3    H226859   5.314   1.872  16.088 -0.2405  0.8487  0.3939
 1790TIP3   OH226860   6.405   0.516   2.460 -0.3477  0.1942  0.2447
 1790TIP3    H126861   6.427   0.580   2.527  0.9786 -1.1849  1.1805
 1790TIP3    H226862   6.336   0.463   2.499  1.5683 -1.6594  1.2483
 1791TIP3   OH226863   5.460   0.933  16.628 -0.0071 -0.7814 -0.4050
 1791TIP3    H126864   5.534   0.883  16.663 -0.0255  0.8060  1.9556
 1791TIP3    H226865   5.500   0.995  16.567  0.3164 -1.6076 -1.0557
 1792TIP3   OH226866   2.137   5.439   6.175 -0.6564  0.1295 -0.4322
 1792TIP3    H126867   2.079   5.363   6.175 -2.2836  1.3242 -1.3623
 1792TIP3    H226868   2.110   5.490   6.251  0.3864 -0.1964  0.1532
 1793TIP3   OH226869   2.945   4.156   5.008  0.4824  0.2380 -0.1560
 1793TIP3    H126870   2.993   4.213   5.068  0.5586  1.7247 -1.6010
 1793TIP3    H226871   3.011   4.097   4.972  0.6007 -0.0281  0.4860
 1794TIP3   OH226872   0.866   4.655  13.780 -0.5267  0.5031  0.2293
 1794TIP3    H126873   0.872   4.562  13.802 -2.7136  0.2921 -0.0057
 1794TIP3    H226874   0.870   4.700  13.864 -1.2795  0.0945  0.4914
 1795TIP3   OH226875   1.648   1.547   0.825 -0.0924  0.2000 -0.0012
 1795TIP3    H126876   1.571   1.599   0.849 -0.8135  1.4583 -4.5120
 1795TIP3    H226877   1.612   1.467   0.786  0.9390 -0.5050  0.4684
 1796TIP3   OH226878   5.906   2.354  14.947  0.0688  0.1463 -0.3194
 1796TIP3    H126879   5.974   2.320  14.889  0.5281  0.5771 -0.0305
 1796TIP3    H226880   5.848   2.279  14.963  0.0213 -0.0117 -1.2147
 1797TIP3   OH226881   2.705   2.877  14.578 -0.0247 -0.1852 -0.5121
 1797TIP3    H126882   2.635   2.913  14.633 -0.0205  0.4189 -0.9026
 1797TIP3    H226883   2.742   2.806  14.631  1.5553  1.8960  1.2796
 1798TIP3   OH226884   2.329   0.168  12.167 -0.1699 -0.3033  0.1761
 1798TIP3    H126885   2.284   0.188  12.249 -1.2428  0.0612 -0.4981
 1798TIP3    H226886   2.389   0.241  12.154 -2.3758  1.3516 -1.0510
 1799TIP3   OH226887   5.834   2.032  15.387  0.3104  0.3950  0.2622
 1799TIP3    H126888   5.850   2.125  15.377  0.3288  0.4176  0.4994
 1799TIP3    H226889   5.739   2.022  15.379  0.5658  0.0404 -2.9452
 1800TIP3   OH226890   0.648   3.183   4.613  0.4262 -0.2467 -0.1341
 1800TIP3    H126891   0.660   3.213   4.703 -0.8536  1.2708 -0.4369
 1800TIP3    H226892   0.673   3.258   4.559 -1.3533 -0.2060 -0.9499
 1801TIP3   OH226893   6.050   2.001  13.514  0.2964  0.4096  0.2901
 1801TIP3    H126894   5.992   2.076  13.522 -0.5741 -0.1018 -1.1464
 1801TIP3    H226895   6.071   1.996  13.421 -0.5025 -1.7512  0.1903
 1802TIP3   OH226896   4.949   3.549   0.253  0.4316 -0.1976 -0.4353
 1802TIP3    H126897   4.912   3.614   0.312 -0.0137 -1.2196  0.4265
 1802TIP3    H226898   5.037   3.581   0.234  1.1438 -0.6366  2.0337
 1803TIP3   OH226899   5.781   2.965   3.780 -0.6371  0.7450  0.4217
 1803TIP3    H126900   5.808   3.054   3.802  1.5483 -0.1417  1.4409
 1803TIP3    H226901   5.705   2.949   3.837 -0.7314  1.7616  0.6009
 1804TIP3   OH226902   6.280   2.236  10.582  0.0734  0.0125  0.2210
 1804TIP3    H126903   6.355   2.180  10.563  0.1868 -0.1675  1.1645
 1804TIP3    H226904   6.265   2.225  10.676 -1.3705 -0.2352 -0.0299
 1805TIP3   OH226905   2.652   4.634  13.561  0.0600  0.6738 -0.3284
 1805TIP3    H126906   2.588   4.568  13.588  0.4233 -0.0466 -1.2267
 1805TIP3    H226907   2.643   4.639  13.465  2.1886 -0.2955 -0.6027
 1806TIP3   OH226908   2.704   2.564  11.600 -0.7101 -0.1433 -0.3890
 1806TIP3    H126909   2.738   2.573  11.511  1.0377  2.1565  0.4872
 1806TIP3    H226910   2.762   2.500  11.642 -2.6422 -2.6555 -1.3861
 1807TIP3   OH226911   0.037   0.010   6.117 -0.6655 -0.6785 -0.1043
 1807TIP3    H126912   0.055   0.093   6.075  1.4665 -0.9046  0.2760
 1807TIP3    H226913   0.042  -0.055   6.047 -1.2390 -0.6099 -0.2107
 1808TIP3   OH226914   5.048   0.169  15.304 -0.1781  0.2393  0.1437
 1808TIP3    H126915   4.981   0.236  15.292 -0.1984  0.0067 -1.0866
 1808TIP3    H226916   5.093   0.164  15.220  0.5669 -0.4909  0.5716
 1809TIP3   OH226917   6.732   6.223   2.768  0.5099 -0.1804  0.1355
 1809TIP3    H126918   6.715   6.170   2.690  2.8006 -0.4229 -0.2496
 1809TIP3    H226919   6.725   6.314   2.736 -0.3793 -0.2727  0.0732
 1810TIP3   OH226920   3.923   2.524  14.124 -0.2231  0.4649 -0.2042
 1810TIP3    H126921   3.927   2.549  14.032  1.0872  0.9589 -0.0191
 1810TIP3    H226922   3.846   2.570  14.158 -0.8393  0.1038 -1.0987
 1811TIP3   OH226923   3.172   1.059  17.264 -0.2691 -0.5746  0.4141
 1811TIP3    H126924   3.098   1.109  17.229 -0.1301 -0.8532 -0.2776
 1811TIP3    H226925   3.249   1.110  17.241 -0.2196 -0.4293  0.8877
 1812TIP3   OH226926   3.550   4.067  15.807  0.0749 -0.1827  0.3504
 1812TIP3    H126927   3.590   4.146  15.842  0.0996 -0.1684  0.2916
 1812TIP3    H226928   3.595   4.053  15.723 -1.2351  0.8003 -0.5415
 1813TIP3   OH226929   5.358   3.471  16.354 -0.0964  0.1902 -0.2310
 1813TIP3    H126930   5.432   3.414  16.374 -0.7955 -0.5727  0.1981
 1813TIP3    H226931   5.393   3.560  16.364  0.4591 -0.1687  1.0583
 1814TIP3   OH226932   4.555   2.135  11.204 -0.1987  0.0663 -0.3523
 1814TIP3    H126933   4.641   2.093  11.214 -0.0087  0.4365 -0.4503
 1814TIP3    H226934   4.568   2.200  11.135 -0.4304  0.4742 -0.0084
 1815TIP3   OH226935   5.090   1.863  13.341  0.3293 -0.4079  0.0454
 1815TIP3    H126936   5.146   1.836  13.268 -0.3798 -3.6891  0.6492
 1815TIP3    H226937   5.007   1.887  13.301  1.4137  2.3536 -0.6377
 1816TIP3   OH226938   6.609   2.336  11.461 -0.5661 -0.1707  0.3823
 1816TIP3    H126939   6.605   2.258  11.406  0.5330  1.4028 -2.0456
 1816TIP3    H226940   6.702   2.347  11.480 -0.5804  1.0946 -0.1898
 1817TIP3   OH226941   3.439   0.286   3.440  0.3200 -0.1523 -0.0862
 1817TIP3    H126942   3.415   0.365   3.489 -0.2023  0.4381 -1.2641
 1817TIP3    H226943   3.423   0.310   3.348  1.7246 -1.0746 -0.5778
 1818TIP3   OH226944   4.677   2.273   5.932  0.4465  0.4472  0.6559
 1818TIP3    H126945   4.757   2.250   5.884  0.8283  2.1652  0.4472
 1818TIP3    H226946   4.617   2.200   5.915  1.1689  0.2219 -1.0337
 1819TIP3   OH226947   2.254   1.414   2.107  0.9645 -0.6256 -0.2182
 1819TIP3    H126948   2.333   1.363   2.089  1.1016 -0.1229 -1.0663
 1819TIP3    H226949   2.204   1.411   2.025 -1.4351 -3.6081  1.2622
 1820TIP3   OH226950   3.306   3.297  13.888  0.2564 -0.4553 -0.1457
 1820TIP3    H126951   3.376   3.347  13.930  1.2136 -1.6313 -0.3153
 1820TIP3    H226952   3.255   3.362  13.841  0.0580  0.6910  1.5843
 1821TIP3   OH226953   1.442   3.222  15.762 -0.0697  0.1732  0.4472
 1821TIP3    H126954   1.443   3.148  15.700  0.9104 -2.1604  3.1440
 1821TIP3    H226955   1.374   3.198  15.826  0.1401  1.7029  1.2466
 1822TIP3   OH226956   4.924   2.027  17.282 -0.2698 -0.2178  0.6509
 1822TIP3    H126957   4.971   2.108  17.299 -2.4182  1.0928  0.5958
 1822TIP3    H226958   4.867   2.015  17.358 -1.6926 -0.3806 -0.4052
 1823TIP3   OH226959   3.668   4.491  11.445  0.2007 -0.5552 -0.2616
 1823TIP3    H126960   3.646   4.399  11.461 -0.7332 -0.7843 -2.7274
 1823TIP3    H226961   3.584   4.532  11.421  0.1508  1.4892  2.9728
 1824TIP3   OH226962   0.298   5.631   3.124 -0.2107 -0.7382  0.6781
 1824TIP3    H126963   0.211   5.639   3.162  0.2459  1.1982  1.3815
 1824TIP3    H226964   0.344   5.571   3.182 -0.8761 -1.3026  0.6358
 1825TIP3   OH226965   2.613   2.206   6.340  0.5401  0.5633 -0.2322
 1825TIP3    H126966   2.520   2.204   6.318  0.7804 -3.0552 -1.2581
 1825TIP3    H226967   2.656   2.241   6.262  0.4290 -2.3610 -1.6587
 1826TIP3   OH226968   4.910   5.825   5.087 -0.3007 -0.1380 -0.0509
 1826TIP3    H126969   4.979   5.891   5.096  0.0080 -0.3299 -0.9068
 1826TIP3    H226970   4.911   5.777   5.169 -0.3191  0.7243  0.4611
 1827TIP3   OH226971   2.545   5.720   2.019  0.0825 -0.1082 -0.2891
 1827TIP3    H126972   2.576   5.630   2.012  0.4234  0.1030 -1.6321
 1827TIP3    H226973   2.618   5.768   2.059  0.8802  0.0525 -1.8828
 1828TIP3   OH226974   6.203   1.449   2.115  0.8049  0.5479  0.2300
 1828TIP3    H126975   6.147   1.474   2.041  0.9588  0.5755  0.1224
 1828TIP3    H226976   6.209   1.528   2.169  1.3829  0.7773 -0.1677
 1829TIP3   OH226977   5.235   2.230  14.739 -0.2335 -0.2148  0.8347
 1829TIP3    H126978   5.195   2.168  14.800 -2.1222  0.4915  0.3404
 1829TIP3    H226979   5.276   2.296  14.795  2.0997 -2.0447  1.3778
 1830TIP3   OH226980   3.148   5.192   2.679 -1.0322  0.0692  0.1622
 1830TIP3    H126981   3.071   5.135   2.680 -0.9506 -0.0406  0.2535
 1830TIP3    H226982   3.142   5.241   2.761 -1.1921  0.3118  0.0043
 1831TIP3   OH226983   1.223   3.657  13.808  0.1419  0.0779 -0.0233
 1831TIP3    H126984   1.234   3.563  13.795  0.9984  0.5639 -3.2097
 1831TIP3    H226985   1.302   3.684  13.854  1.1013 -0.3415 -1.4201
 1832TIP3   OH226986   6.724   2.454   4.878 -0.1842 -0.0246  1.0471
 1832TIP3    H126987   6.642   2.469   4.830  0.0987  0.4401  0.7006
 1832TIP3    H226988   6.776   2.399   4.820  1.4430  3.1342 -0.6345
 1833TIP3   OH226989   3.069   4.838  12.705 -0.0933  0.0543 -0.2959
 1833TIP3    H126990   3.147   4.835  12.760  0.1941  0.1728 -0.6915
 1833TIP3    H226991   3.074   4.760  12.651 -1.3340 -1.0307  1.1179
 1834TIP3   OH226992   4.831   4.694   4.123 -0.0258 -0.3749  0.0163
 1834TIP3    H126993   4.921   4.682   4.152  0.0498 -1.4914 -0.6550
 1834TIP3    H226994   4.838   4.739   4.038 -0.1561  0.5866  0.5018
 1835TIP3   OH226995   4.957   5.296   1.664  0.6410 -0.4094  0.3520
 1835TIP3    H126996   4.992   5.380   1.694  0.4293  0.2960 -1.3174
 1835TIP3    H226997   4.872   5.289   1.707  0.8480  0.0208  0.8360
 1836TIP3   OH226998   6.235   2.484  12.245  0.0804  0.5438 -0.3264
 1836TIP3    H126999   6.275   2.571  12.251  0.6510  0.2486  0.2635
 1836TIP3    H227000   6.236   2.463  12.152  1.3124  0.5463 -0.3244
 1837TIP3   OH227001   4.859   1.249   4.743 -0.0747  0.5783  0.0491
 1837TIP3    H127002   4.861   1.327   4.798  1.3397  1.4011 -1.1642
 1837TIP3    H227003   4.950   1.222   4.734 -0.5798 -1.6012  0.9578
 1838TIP3   OH227004   2.927   2.933   4.084  0.5649  0.6484  0.6685
 1838TIP3    H127005   2.872   2.930   4.162 -0.1855 -0.4691  0.1214
 1838TIP3    H227006   3.004   2.882   4.107  1.9374  3.1792  1.8331
 1839TIP3   OH227007   2.309   4.767   1.576 -0.6826  0.5143 -0.1365
 1839TIP3    H127008   2.242   4.720   1.528 -1.3735 -0.1705  1.4691
 1839TIP3    H227009   2.306   4.730   1.664 -0.8105  3.0913  0.9911
 1840TIP3   OH227010   0.447   0.021   4.677  0.0755 -0.1874  0.7163
 1840TIP3    H127011   0.453   0.081   4.751 -0.4042  1.4661 -0.5708
 1840TIP3    H227012   0.529   0.035   4.629  0.4699 -1.3950  1.0062
 1841TIP3   OH227013   2.546   2.054  16.731  0.2621 -0.1722 -0.3295
 1841TIP3    H127014   2.508   2.027  16.814 -1.1286  1.8307 -0.2746
 1841TIP3    H227015   2.638   2.072  16.751 -0.1773  0.7539  0.8873
 1842TIP3   OH227016   5.548   2.083   3.675 -0.2535 -0.4549 -0.5905
 1842TIP3    H127017   5.527   2.153   3.737 -2.5509 -0.7923 -0.9409
 1842TIP3    H227018   5.613   2.029   3.720 -0.6995  0.2182  0.8687
 1843TIP3   OH227019   5.637   5.596  17.217  0.0770  0.0926  0.3884
 1843TIP3    H127020   5.589   5.525  17.175  0.7012 -0.1795  0.1464
 1843TIP3    H227021   5.622   5.672  17.160  1.0776 -0.3193 -0.4236
 1844TIP3   OH227022   0.073   5.317   3.410  0.3078  0.0682  0.4138
 1844TIP3    H127023   0.132   5.243   3.423 -0.9149 -1.8741 -4.0147
 1844TIP3    H227024  -0.012   5.277   3.393 -0.8801  2.5996  0.1723
 1845TIP3   OH227025   1.027   5.970   1.144 -0.4163 -0.4756  0.1095
 1845TIP3    H127026   0.981   5.970   1.060 -1.1176 -1.1119  0.4923
 1845TIP3    H227027   1.114   5.936   1.123  0.5317  2.4621 -0.9495
 1846TIP3   OH227028   0.884   0.348  15.087  0.6575  0.1426 -0.0471
 1846TIP3    H127029   0.852   0.283  15.024  0.3809  0.2893 -0.0579
 1846TIP3    H227030   0.807   0.373  15.138  1.1098 -0.8342  1.1362
 1847TIP3   OH227031   3.303   3.869  13.856  0.0193  0.1123  0.6904
 1847TIP3    H127032   3.288   3.961  13.832 -2.0082 -0.2967  0.2759
 1847TIP3    H227033   3.265   3.819  13.783  3.0022 -1.0619 -0.1354
 1848TIP3   OH227034   1.179   0.819  14.922 -0.4804  0.4147  0.0575
 1848TIP3    H127035   1.250   0.877  14.950  0.8335 -0.4510 -1.3899
 1848TIP3    H227036   1.175   0.752  14.990 -0.2542  0.7465  0.3996
 1849TIP3   OH227037   6.021   1.058   2.926 -0.6208 -0.0616 -0.3935
 1849TIP3    H127038   5.952   1.122   2.911  0.7534  1.4798 -0.2680
 1849TIP3    H227039   6.092   1.085   2.867  1.2794  0.5892  2.0945
 1850TIP3   OH227040   2.422   0.129   5.668 -0.5141  0.7684 -0.2627
 1850TIP3    H127041   2.507   0.095   5.697  0.0493  2.1921 -0.1940
 1850TIP3    H227042   2.372   0.141   5.748 -0.1343  1.5742 -0.1294
 1851TIP3   OH227043   2.690   5.830   1.606  0.3443 -0.1392  0.2783
 1851TIP3    H127044   2.734   5.757   1.649  0.5706 -0.1600  0.0123
 1851TIP3    H227045   2.761   5.886   1.576  0.1587  1.0790  1.9950
 1852TIP3   OH227046   2.430   0.539   5.812 -0.0548 -0.6468  0.0058
 1852TIP3    H127047   2.411   0.485   5.889 -0.9594  0.4598  0.5724
 1852TIP3    H227048   2.417   0.481   5.737  1.0404 -1.7945  0.6868
 1853TIP3   OH227049   0.991   6.188  16.238  0.0368 -0.7320  0.1629
 1853TIP3    H127050   0.944   6.110  16.267 -1.9178 -0.2485 -1.5851
 1853TIP3    H227051   0.927   6.258  16.245  2.0703  0.9594  2.6896
 1854TIP3   OH227052   1.528   5.747   4.475 -0.7448  0.1654  0.1115
 1854TIP3    H127053   1.474   5.814   4.517 -1.5577  1.4360 -2.8659
 1854TIP3    H227054   1.485   5.664   4.498 -1.1909  0.8195  1.7121
 1855TIP3   OH227055   3.536   5.280  12.644 -0.1165 -0.7383  0.6086
 1855TIP3    H127056   3.534   5.324  12.729  2.1838 -0.0231  0.3272
 1855TIP3    H227057   3.541   5.187  12.665  0.6930 -0.5517  1.2747
 1856TIP3   OH227058   4.974   5.908   3.348 -0.6523  0.5087  0.2562
 1856TIP3    H127059   5.030   5.946   3.414  0.0449  0.4914 -0.3201
 1856TIP3    H227060   5.033   5.858   3.291 -1.3668 -0.2945  0.2027
 1857TIP3   OH227061   1.542   5.663   0.603 -0.5228 -0.0038 -0.8419
 1857TIP3    H127062   1.504   5.615   0.677  1.2739 -0.9372 -0.5114
 1857TIP3    H227063   1.479   5.733   0.586 -0.4882  0.8361  2.2309
 1858TIP3   OH227064   1.236   3.918   4.406  0.2873 -0.7040  0.5614
 1858TIP3    H127065   1.197   3.942   4.322  0.7405 -1.3933  0.1478
 1858TIP3    H227066   1.304   3.854   4.383 -1.0220 -2.5407  1.6431
 1859TIP3   OH227067   1.975   6.436  16.221  0.2793  0.7548  0.1996
 1859TIP3    H127068   1.908   6.395  16.275 -0.8509  1.2518 -0.7979
 1859TIP3    H227069   1.992   6.520  16.263 -0.3240  0.9764  0.0032
 1860TIP3   OH227070   6.763   2.473   3.380  0.8298  1.0366 -0.3725
 1860TIP3    H127071   6.858   2.487   3.376  1.2575 -0.8028  2.1751
 1860TIP3    H227072   6.739   2.444   3.292  3.1084 -1.1221 -0.3487
 1861TIP3   OH227073   6.627   3.653   5.462 -0.0277  0.1429  0.1550
 1861TIP3    H127074   6.543   3.696   5.443  0.0922  0.3937  0.1857
 1861TIP3    H227075   6.692   3.721   5.446  0.1802 -0.0986 -0.0177
 1862TIP3   OH227076   4.931   1.553  14.139 -1.0498  0.6663 -0.7024
 1862TIP3    H127077   4.883   1.635  14.145 -2.8362 -0.2438 -1.9359
 1862TIP3    H227078   4.938   1.537  14.044 -0.2304 -0.3123 -0.4835
 1863TIP3   OH227079   1.816   0.885   3.740 -0.5640  0.3304  0.1852
 1863TIP3    H127080   1.855   0.972   3.734 -0.4652  0.2232 -0.8370
 1863TIP3    H227081   1.800   0.860   3.649 -1.8403 -0.1578  0.5359
 1864TIP3   OH227082   2.207   6.545   6.101 -0.1216  0.4047  0.1677
 1864TIP3    H127083   2.199   6.640   6.109 -3.0023  0.4736 -2.4665
 1864TIP3    H227084   2.174   6.511   6.184 -0.2162  1.6361  0.6516
 1865TIP3   OH227085   4.818   1.983  14.989  0.4372 -0.6734  0.3365
 1865TIP3    H127086   4.837   1.902  14.943 -1.6513  0.0933 -2.0071
 1865TIP3    H227087   4.799   1.956  15.079  0.5815 -2.6668 -0.2196
 1866TIP3   OH227088   2.855   1.267  12.399 -0.0818 -0.6632 -0.1680
 1866TIP3    H127089   2.865   1.352  12.355  0.0465  0.1426  1.4140
 1866TIP3    H227090   2.931   1.216  12.370  0.2051 -0.0078 -0.5867
 1867TIP3   OH227091   5.782   0.839  13.967  0.5613  0.3571 -0.2078
 1867TIP3    H127092   5.861   0.799  13.931  0.1715 -1.2662  0.7109
 1867TIP3    H227093   5.728   0.766  13.994  0.0898  1.5129  2.0826
 1868TIP3   OH227094   2.578   3.556   5.156 -0.1864 -0.0429  0.5936
 1868TIP3    H127095   2.533   3.640   5.147  1.6008  0.9793  0.9635
 1868TIP3    H227096   2.590   3.525   5.067 -0.1385  0.4784  0.4186
 1869TIP3   OH227097   1.600   1.686   2.628  0.7355 -0.2605  0.1018
 1869TIP3    H127098   1.647   1.731   2.698  0.8277 -0.2590  0.0392
 1869TIP3    H227099   1.517   1.661   2.667  1.0620 -0.8617  0.4130
 1870TIP3   OH227100   0.681   5.741   3.779 -0.8335 -0.2834  0.2875
 1870TIP3    H127101   0.727   5.693   3.710  0.4591  0.5129  0.5757
 1870TIP3    H227102   0.642   5.816   3.735 -2.5137 -1.3576 -0.0910
 1871TIP3   OH227103   0.333   4.366  13.598  0.0248 -0.3521  0.3411
 1871TIP3    H127104   0.347   4.459  13.620  1.0022 -0.3573 -0.2575
 1871TIP3    H227105   0.250   4.365  13.551  0.4383  0.3408 -0.4188
 1872TIP3   OH227106   5.100   6.021   5.224 -0.1599  0.3776  0.1792
 1872TIP3    H127107   5.119   6.078   5.149 -0.2661  0.0874 -0.0713
 1872TIP3    H227108   5.184   5.984   5.248 -0.2159  0.0336 -0.1563
 1873TIP3   OH227109   3.405   3.036  15.113 -0.1314  0.1401  0.3053
 1873TIP3    H127110   3.348   2.966  15.082 -0.5650  0.9018 -0.6673
 1873TIP3    H227111   3.351   3.087  15.173 -0.3686  0.6182 -0.2976
 1874TIP3   OH227112   1.178   5.119   2.350 -0.0992 -1.0022 -0.1876
 1874TIP3    H127113   1.209   5.044   2.299  1.3780  0.6144 -1.7562
 1874TIP3    H227114   1.107   5.156   2.296  3.0639  2.1649 -2.4575
 1875TIP3   OH227115   2.416   4.621   5.691 -0.1485 -0.1042 -0.3112
 1875TIP3    H127116   2.505   4.652   5.678 -0.1629  0.0360 -0.0891
 1875TIP3    H227117   2.361   4.689   5.651 -0.2292  0.7688  1.2350
 1876TIP3   OH227118   3.791   4.817  16.303  0.0471 -0.1396  0.2379
 1876TIP3    H127119   3.864   4.775  16.349 -0.5914 -0.7683  0.6938
 1876TIP3    H227120   3.746   4.745  16.258  1.0174  0.5545 -1.8875
 1877TIP3   OH227121   6.414   3.875  12.629  0.0874  0.1875  0.2600
 1877TIP3    H127122   6.482   3.913  12.574 -0.4912 -1.1064 -1.4098
 1877TIP3    H227123   6.456   3.802  12.673  0.0032 -0.1110 -0.1478
 1878TIP3   OH227124   0.149   1.838   0.832  0.0025  0.2015 -0.1291
 1878TIP3    H127125   0.104   1.891   0.766  0.8112  1.6182  0.4276
 1878TIP3    H227126   0.144   1.749   0.798  1.4689  1.0517 -2.7247
 1879TIP3   OH227127   2.775   1.975  11.499 -0.1897  0.4878 -0.9781
 1879TIP3    H127128   2.694   1.946  11.458  0.5001 -2.3930 -0.4022
 1879TIP3    H227129   2.845   1.936  11.446  0.8599  2.5953 -1.2263
 1880TIP3   OH227130   5.183   5.271   1.360  0.4345 -0.3886 -0.0451
 1880TIP3    H127131   5.212   5.326   1.432 -1.7419 -1.8609  2.0433
 1880TIP3    H227132   5.135   5.330   1.301 -2.0788  0.0000  2.2768
 1881TIP3   OH227133   2.525   4.121   1.800 -0.5055  0.0958 -0.4884
 1881TIP3    H127134   2.525   4.135   1.705 -0.9184  0.7723 -0.3870
 1881TIP3    H227135   2.529   4.208   1.838 -0.9019 -0.1469  0.1230
 1882TIP3   OH227136   3.238   4.310  12.941 -0.1103 -0.2689  0.0295
 1882TIP3    H127137   3.242   4.393  12.989  1.1800  0.2424 -0.9297
 1882TIP3    H227138   3.329   4.289  12.921 -0.3892 -2.0971  0.5378
 1883TIP3   OH227139   6.543   6.412  11.585  0.0970  0.3171 -0.0941
 1883TIP3    H127140   6.512   6.503  11.579  2.2956  1.0132 -1.4625
 1883TIP3    H227141   6.622   6.410  11.532  0.5562 -2.2176  0.6176
 1884TIP3   OH227142   6.024   2.915  12.721 -0.3066  0.1302 -0.4341
 1884TIP3    H127143   6.064   2.970  12.788  0.2063  0.2670 -0.8413
 1884TIP3    H227144   6.066   2.944  12.639  2.0368 -2.7248 -0.3298
 1885TIP3   OH227145   6.665   5.644  13.156 -0.4407  0.1057  0.3843
 1885TIP3    H127146   6.695   5.626  13.245  1.7306  0.6599 -0.2235
 1885TIP3    H227147   6.646   5.558  13.120  0.1092 -0.2337  0.8912
 1886TIP3   OH227148   3.662   0.627  14.664 -0.1963 -0.5808  0.2664
 1886TIP3    H127149   3.637   0.584  14.746  0.7792  1.2644  1.5510
 1886TIP3    H227150   3.700   0.710  14.691 -0.1867  0.2105 -2.0940
 1887TIP3   OH227151   5.071   2.025  16.671  0.1307 -0.0725  0.8439
 1887TIP3    H127152   5.008   2.098  16.669  1.9477  1.5031 -0.8031
 1887TIP3    H227153   5.043   1.967  16.601 -0.2954 -0.1077  1.0367
 1888TIP3   OH227154   1.310   0.318  16.706  0.0901 -0.0545  0.0968
 1888TIP3    H127155   1.225   0.361  16.696  0.2830  0.4763  0.6680
 1888TIP3    H227156   1.332   0.286  16.618 -0.4980  0.1920 -0.1387
 1889TIP3   OH227157   3.052   3.882   6.426 -0.3258  0.4901 -0.3829
 1889TIP3    H127158   3.046   3.910   6.517  0.9602  0.5553 -0.3090
 1889TIP3    H227159   2.961   3.880   6.396 -0.6615  1.8112  0.4880
 1890TIP3   OH227160   1.128   0.839  13.811 -0.5103  0.5468  0.0147
 1890TIP3    H127161   1.039   0.850  13.844 -0.5970 -1.0029  0.3463
 1890TIP3    H227162   1.144   0.917  13.758 -1.1921  1.9800  1.8696
 1891TIP3   OH227163   1.383   1.548  16.841  0.6590  0.5688 -0.2451
 1891TIP3    H127164   1.457   1.487  16.836  0.1063 -0.2009  0.8288
 1891TIP3    H227165   1.320   1.515  16.777  0.8947  0.7542 -0.5740
 1892TIP3   OH227166   2.622   6.357   0.193 -0.1763 -0.2145  0.0616
 1892TIP3    H127167   2.672   6.276   0.190 -1.0809 -0.8433  1.1762
 1892TIP3    H227168   2.610   6.382   0.102 -1.5529 -2.4083 -0.3965
 1893TIP3   OH227169   2.856   6.625  17.070  0.3233  0.2375  0.6894
 1893TIP3    H127170   2.772   6.667  17.053  0.1364 -1.0848 -2.0313
 1893TIP3    H227171   2.920   6.694  17.059  0.0484 -0.0416 -4.0481
 1894TIP3   OH227172   0.574   1.126  15.911 -0.5222  0.2389  0.1546
 1894TIP3    H127173   0.641   1.089  15.854 -1.9801  0.8482 -2.0015
 1894TIP3    H227174   0.543   1.052  15.963 -1.2587 -0.9298 -1.9332
 1895TIP3   OH227175   0.106   2.367   6.355  0.3343 -0.5983 -0.1589
 1895TIP3    H127176   0.083   2.277   6.380  2.6635 -0.7189  1.6338
 1895TIP3    H227177   0.197   2.362   6.328 -0.0477  0.9264 -1.8495
 1896TIP3   OH227178   2.740   6.491   4.418 -0.4661  0.3767  0.5450
 1896TIP3    H127179   2.707   6.500   4.507 -1.3979  0.0198  0.2415
 1896TIP3    H227180   2.693   6.559   4.369  0.8501  1.2975  0.5468
 1897TIP3   OH227181   5.431   5.339  12.716  0.4706 -0.3322 -0.0869
 1897TIP3    H127182   5.345   5.357  12.753  0.1681  0.9429 -1.3512
 1897TIP3    H227183   5.465   5.264  12.766  0.2527  1.5650  2.9676
 1898TIP3   OH227184   3.404   2.875  17.271  0.3612  0.3790 -0.4259
 1898TIP3    H127185   3.454   2.929  17.210  2.7654 -0.9231  0.3677
 1898TIP3    H227186   3.425   2.785  17.248 -1.0046 -0.1873  0.4448
 1899TIP3   OH227187   5.392   3.193  15.049  0.0434  0.3539 -0.1633
 1899TIP3    H127188   5.412   3.128  14.981 -2.8675 -1.0058  0.2328
 1899TIP3    H227189   5.455   3.175  15.118  0.5993 -0.7019 -0.9310
 1900TIP3   OH227190   0.893   1.181  16.889 -0.0206  0.2832 -0.3629
 1900TIP3    H127191   0.806   1.188  16.930  0.2076 -0.7927  0.3325
 1900TIP3    H227192   0.951   1.159  16.962  0.9943  1.8387 -0.6762
 1901TIP3   OH227193   4.541   2.992  14.220  0.1469  0.2076  0.1066
 1901TIP3    H127194   4.634   2.974  14.234  0.3459  0.4585 -0.8744
 1901TIP3    H227195   4.534   3.016  14.128 -0.9239 -0.0139  0.1138
 1902TIP3   OH227196   4.263   6.128   0.389 -0.1694 -0.4833  0.4389
 1902TIP3    H127197   4.254   6.036   0.412 -2.9589  0.1129  1.9288
 1902TIP3    H227198   4.301   6.169   0.467  0.7416 -0.2863 -0.0945
 1903TIP3   OH227199   5.335   1.475   3.884  0.0770  0.3795  0.0011
 1903TIP3    H127200   5.283   1.527   3.944 -1.5674 -0.3265 -0.7771
 1903TIP3    H227201   5.288   1.392   3.877  2.1872 -0.9137  0.5514
 1904TIP3   OH227202   2.517   3.897  12.030 -0.0583  0.0435 -0.1944
 1904TIP3    H127203   2.446   3.889  12.093 -0.0326  0.8780 -0.0565
 1904TIP3    H227204   2.553   3.808  12.023  1.2019  0.2662  2.4636
 1905TIP3   OH227205   0.961   0.819   0.221  0.3407 -0.1031  0.6226
 1905TIP3    H127206   1.042   0.795   0.265  0.5242  0.4779  0.6072
 1905TIP3    H227207   0.921   0.885   0.277  0.1007 -0.0615  0.4059
 1906TIP3   OH227208   2.759   1.074   2.628  0.1673 -0.5244  0.0122
 1906TIP3    H127209   2.805   1.108   2.551  0.0605  0.1370  0.2466
 1906TIP3    H227210   2.792   0.984   2.636  0.9880 -0.2510 -0.1700
 1907TIP3   OH227211   0.847   1.065  11.927  0.7591 -0.3008  0.3181
 1907TIP3    H127212   0.805   0.980  11.930  0.5900 -0.2971 -1.3996
 1907TIP3    H227213   0.783   1.125  11.966 -0.8278 -0.3048 -2.1917
 1908TIP3   OH227214   5.830   1.159  17.111 -0.3546 -0.4537  0.0685
 1908TIP3    H127215   5.819   1.128  17.201  0.0259  0.4239  0.4192
 1908TIP3    H227216   5.751   1.210  17.093  0.3821  0.8373  0.5092
 1909TIP3   OH227217   3.753   6.097   2.907 -0.4774  0.1324 -0.3626
 1909TIP3    H127218   3.820   6.118   2.842  1.0096 -0.8507  0.8319
 1909TIP3    H227219   3.801   6.078   2.987 -1.9400 -3.8318 -0.3074
 1910TIP3   OH227220   0.441   0.187  13.267 -0.6328  0.1500  0.4793
 1910TIP3    H127221   0.501   0.149  13.331  0.9256  1.5072 -0.1446
 1910TIP3    H227222   0.419   0.273  13.304 -0.8908  0.3293 -0.0920
 1911TIP3   OH227223   0.045   1.394   1.501 -0.2117 -0.1102 -0.3986
 1911TIP3    H127224   0.000   1.313   1.524 -1.0856 -0.0225 -1.7350
 1911TIP3    H227225   0.116   1.401   1.565 -1.6017 -0.6653  1.2432
 1912TIP3   OH227226   6.005   6.046  16.021  0.1988  0.5113  0.4708
 1912TIP3    H127227   6.031   6.041  16.113  0.2611 -1.1799  0.3765
 1912TIP3    H227228   5.912   6.067  16.023  0.5745  2.2341  0.8779
 1913TIP3   OH227229   2.625   0.149   5.434  0.3443 -0.1570  0.0770
 1913TIP3    H127230   2.632   0.241   5.459  1.0814 -0.3752  0.6878
 1913TIP3    H227231   2.564   0.149   5.360  2.0952  1.0961 -1.3960
 1914TIP3   OH227232   4.500   4.742  10.320  0.1850 -0.3463 -0.0279
 1914TIP3    H127233   4.410   4.725  10.292  1.4015 -1.9277 -3.1082
 1914TIP3    H227234   4.532   4.658  10.351  1.5419 -0.4365 -1.6614
 1915TIP3   OH227235   5.937   5.287   0.048 -0.3825  0.3380 -0.4262
 1915TIP3    H127236   5.904   5.265   0.135 -0.0146  0.6718 -0.2029
 1915TIP3    H227237   5.883   5.234  -0.012  0.2405 -0.8681  0.0728
 1916TIP3   OH227238   5.235   1.199  12.251 -0.3564  0.0981  0.3554
 1916TIP3    H127239   5.189   1.170  12.329 -0.6401 -1.5706 -0.4045
 1916TIP3    H227240   5.287   1.274  12.280 -0.8130 -0.2119  2.0294
 1917TIP3   OH227241   0.845   1.554   0.356  0.0982 -0.0114 -0.1262
 1917TIP3    H127242   0.900   1.543   0.433 -0.6697  0.5662  0.5162
 1917TIP3    H227243   0.767   1.599   0.388 -0.0834  0.5417 -1.2974
 1918TIP3   OH227244   6.063   3.918  17.104  0.0184 -0.4290 -0.1950
 1918TIP3    H127245   6.054   3.908  17.199  0.0583 -2.6320 -0.4080
 1918TIP3    H227246   6.157   3.913  17.088  0.2759  2.8973 -0.0749
 1919TIP3   OH227247   0.305   4.144   4.078 -0.1118  0.4249 -0.4146
 1919TIP3    H127248   0.264   4.176   4.159  0.7357  1.0686 -0.2303
 1919TIP3    H227249   0.336   4.056   4.101  0.0226  0.5595 -0.0688
 1920TIP3   OH227250   6.655   0.663   2.417  0.0702 -0.0036  0.4503
 1920TIP3    H127251   6.737   0.709   2.433 -0.3922  0.7868  0.5448
 1920TIP3    H227252   6.591   0.707   2.473 -0.5814 -0.1196 -0.1973
 1921TIP3   OH227253   1.335   2.693  11.791  0.1742 -0.2612  0.6042
 1921TIP3    H127254   1.257   2.748  11.798  1.8568  2.5341 -1.4292
 1921TIP3    H227255   1.390   2.718  11.865  0.4701  0.0091  0.2942
 1922TIP3   OH227256   4.120   6.099  14.372  0.1043  0.2455  0.3293
 1922TIP3    H127257   4.139   6.050  14.292  0.6521  0.2652  0.4451
 1922TIP3    H227258   4.056   6.045  14.418  0.0065  0.0937  0.0143
 1923TIP3   OH227259   3.502   3.455  12.963 -0.3918 -0.0791 -0.6983
 1923TIP3    H127260   3.576   3.396  12.947  1.2147  2.4604 -2.9740
 1923TIP3    H227261   3.425   3.400  12.950  1.0554 -2.2145 -0.5735
 1924TIP3   OH227262   3.355   5.958  14.922 -0.8203 -0.6027  0.0174
 1924TIP3    H127263   3.327   6.032  14.868  0.1636 -0.4057 -0.2486
 1924TIP3    H227264   3.341   5.988  15.012  1.3572  0.6819 -0.0272
 1925TIP3   OH227265   5.806   1.939  16.469 -0.2781  0.1796 -0.5534
 1925TIP3    H127266   5.794   1.979  16.383 -2.0783  0.2964 -0.2752
 1925TIP3    H227267   5.787   1.846  16.455  0.1474  0.0744 -0.4320
 1926TIP3   OH227268   1.055   6.806   6.095 -0.3210 -0.6586 -0.8421
 1926TIP3    H127269   1.142   6.811   6.055 -0.5855 -1.0616 -1.4749
 1926TIP3    H227270   1.001   6.762   6.030 -0.6594 -1.6893  0.1133
 1927TIP3   OH227271   4.461   0.863  12.400  0.1229 -0.3242  0.3275
 1927TIP3    H127272   4.451   0.891  12.491 -3.3139  0.2670 -0.1606
 1927TIP3    H227273   4.513   0.932  12.359  2.2444 -0.9121  1.9346
 1928TIP3   OH227274   1.342   3.662  15.818 -0.4031 -0.0574  0.3698
 1928TIP3    H127275   1.328   3.754  15.840 -1.8103  0.4891 -2.5557
 1928TIP3    H227276   1.406   3.663  15.747  0.0377 -1.4018  0.7157
 1929TIP3   OH227277   4.749   0.257  14.428 -0.2893 -0.2758  0.1852
 1929TIP3    H127278   4.667   0.214  14.404 -0.5364  0.1723  0.2108
 1929TIP3    H227279   4.806   0.244  14.352 -1.5390  2.3465 -1.2829
 1930TIP3   OH227280   4.512   6.331   1.288  0.1475  0.1907  0.0239
 1930TIP3    H127281   4.438   6.391   1.292  0.0089  0.0299 -0.1514
 1930TIP3    H227282   4.475   6.248   1.259  0.5808  0.4138 -1.2018
 1931TIP3   OH227283   0.490   5.678   1.019  0.2189 -0.5185  0.1828
 1931TIP3    H127284   0.442   5.740   0.965 -1.3999 -1.9864 -0.0983
 1931TIP3    H227285   0.539   5.733   1.080 -0.9443  1.0401 -0.2559
 1932TIP3   OH227286   2.628   2.835  17.279  0.1585  0.0714 -0.5048
 1932TIP3    H127287   2.652   2.924  17.252 -0.2244  0.4672  0.4318
 1932TIP3    H227288   2.630   2.838  17.375 -0.0072 -0.8880 -0.4664
 1933TIP3   OH227289   4.062   1.773   5.996  0.3869 -0.0902 -0.0803
 1933TIP3    H127290   4.073   1.867   6.012  0.9029 -0.3440  1.1402
 1933TIP3    H227291   4.102   1.758   5.910 -0.8671  1.0282 -0.8583
 1934TIP3   OH227292   0.317   2.320   5.322  0.2083 -0.0750 -0.2778
 1934TIP3    H127293   0.336   2.283   5.409 -0.9768 -0.6412 -0.2493
 1934TIP3    H227294   0.401   2.355   5.292  1.0117 -1.4000  0.3747
 1935TIP3   OH227295   4.039   3.118   3.129  0.2152  0.2087  0.2429
 1935TIP3    H127296   4.002   3.191   3.079 -0.9682 -0.4535  0.1464
 1935TIP3    H227297   3.964   3.077   3.172  0.8746 -0.9227  0.3393
 1936TIP3   OH227298   6.290   3.003  17.050  0.2627 -0.1523 -0.7157
 1936TIP3    H127299   6.304   2.977  17.141 -1.3149  0.9265 -0.1356
 1936TIP3    H227300   6.229   3.076  17.056 -0.0341 -0.2277 -2.6660
 1937TIP3   OH227301   6.163   6.786   3.172 -0.1005 -0.1102  0.1031
 1937TIP3    H127302   6.173   6.876   3.141 -0.6872  0.1856  0.7650
 1937TIP3    H227303   6.200   6.786   3.260 -2.8670  0.2472  1.3328
 1938TIP3   OH227304   1.339   5.901   0.853  0.0012 -0.1260  0.1247
 1938TIP3    H127305   1.315   5.859   0.935 -1.8470  0.9403  0.1634
 1938TIP3    H227306   1.407   5.964   0.877  0.1300 -0.4771  0.6822
 1939TIP3   OH227307   2.348   4.740  11.176 -0.2921  0.0160  0.3455
 1939TIP3    H127308   2.399   4.762  11.255  0.3013  1.0873 -0.3276
 1939TIP3    H227309   2.267   4.703  11.210  0.0870  0.1850  1.4661
 1940TIP3   OH227310   2.874   1.460  12.000  0.4610  0.2246 -0.3935
 1940TIP3    H127311   2.906   1.440  11.913  1.4652  1.3064 -0.2892
 1940TIP3    H227312   2.792   1.410  12.008 -0.3150  1.1238 -2.4207
 1941TIP3   OH227313   2.543   0.005   3.860 -0.6152 -0.4803 -0.6871
 1941TIP3    H127314   2.496  -0.071   3.826 -2.2690  0.1818  0.0772
 1941TIP3    H227315   2.485   0.041   3.927  1.1193  0.1846  0.4820
 1942TIP3   OH227316   1.479   4.993  14.590  0.1226  0.1683  0.2728
 1942TIP3    H127317   1.553   5.053  14.574  1.3385 -0.5039  3.1147
 1942TIP3    H227318   1.449   5.015  14.678  0.8353 -3.6421  1.5484
 1943TIP3   OH227319   2.718   3.322   2.678 -0.4850 -0.6070 -0.4156
 1943TIP3    H127320   2.799   3.309   2.728  0.5322 -1.2746 -2.1794
 1943TIP3    H227321   2.748   3.355   2.593 -2.1519  0.1796 -0.7112
 1944TIP3   OH227322   2.957   2.929  15.007  0.0262 -0.5324 -0.5145
 1944TIP3    H127323   2.897   2.855  15.001 -0.3069 -0.2472 -0.7157
 1944TIP3    H227324   2.920   2.985  15.075 -0.4725  0.1260 -1.3148
 1945TIP3   OH227325   0.759   2.256  12.325 -0.2014  0.3421  0.0346
 1945TIP3    H127326   0.683   2.293  12.280 -0.1220  0.6835  0.1753
 1945TIP3    H227327   0.763   2.304  12.408 -1.8939 -2.0790  1.5752
 1946TIP3   OH227328   0.249   5.807   5.878 -0.8128  0.0449 -0.2217
 1946TIP3    H127329   0.257   5.902   5.867 -0.9621  0.0249 -0.5064
 1946TIP3    H227330   0.339   5.777   5.888 -0.8325  0.3281  0.8125
 1947TIP3   OH227331   0.922   2.478  14.184 -0.6618 -0.6503  0.2436
 1947TIP3    H127332   0.885   2.461  14.271  1.5530 -1.0491  1.1377
 1947TIP3    H227333   0.953   2.392  14.155  0.0506 -0.2194 -0.2549
 1948TIP3   OH227334   3.219   6.648   0.265  0.2859  0.5007  1.1025
 1948TIP3    H127335   3.169   6.661   0.184 -1.3902  0.9079  2.1761
 1948TIP3    H227336   3.272   6.569   0.248 -0.7296  0.0461 -0.0534
 1949TIP3   OH227337   2.427   1.523  12.692 -0.2531  0.0380  0.2497
 1949TIP3    H127338   2.508   1.479  12.665  0.5088  0.9285  1.0396
 1949TIP3    H227339   2.418   1.502  12.785  1.1424  3.0380  1.1428
 1950TIP3   OH227340   5.527   3.983  11.974  1.0432  0.4804  0.5364
 1950TIP3    H127341   5.541   3.977  12.068 -0.1256 -1.0352  0.6405
 1950TIP3    H227342   5.478   4.065  11.962  0.1643  0.0863  1.3832
 1951TIP3   OH227343   2.202   0.462   1.266 -0.1920  0.2698 -0.1273
 1951TIP3    H127344   2.221   0.449   1.359  0.6040  0.6311 -0.2335
 1951TIP3    H227345   2.115   0.501   1.264 -1.6834 -2.8478  0.3010
 1952TIP3   OH227346   4.181   2.313   5.417  0.4107  0.3574  0.5518
 1952TIP3    H127347   4.234   2.296   5.495 -1.3801 -0.0169  1.7047
 1952TIP3    H227348   4.102   2.356   5.450 -0.2219  0.5188 -1.1028
 1953TIP3   OH227349   6.224   1.008   0.968  0.1463  0.2488  1.3521
 1953TIP3    H127350   6.208   1.101   0.954  0.7419  0.3056  1.0331
 1953TIP3    H227351   6.143   0.975   1.008 -1.0111  0.4093 -0.7950
 1954TIP3   OH227352   1.428   4.752  14.496  0.5301 -0.2464 -0.7545
 1954TIP3    H127353   1.434   4.842  14.527  3.0516 -0.9524  0.9626
 1954TIP3    H227354   1.349   4.717  14.539 -0.1864  0.9703 -1.0481
 1955TIP3   OH227355   2.451   0.510  12.581  0.0787  0.2886  0.3619
 1955TIP3    H127356   2.418   0.537  12.495  1.4415 -2.6341 -1.1584
 1955TIP3    H227357   2.374   0.476  12.627 -0.3268  0.1713 -0.3948
 1956TIP3   OH227358   1.111   1.597  11.143  0.6096 -0.1132 -0.0801
 1956TIP3    H127359   1.089   1.512  11.103 -0.2712  0.0745 -0.0141
 1956TIP3    H227360   1.138   1.576  11.232  0.7931 -0.3635 -0.1942
 1957TIP3   OH227361   6.774   5.828   3.729 -0.5681 -0.4294 -0.3527
 1957TIP3    H127362   6.800   5.772   3.655 -0.4306 -1.9683  0.8270
 1957TIP3    H227363   6.687   5.796   3.753 -0.1883 -0.6214  0.7942
 1958TIP3   OH227364   0.925   6.640   3.600  0.5729  0.3647 -0.3766
 1958TIP3    H127365   0.884   6.656   3.515 -0.7522  0.3877  0.2629
 1958TIP3    H227366   0.853   6.618   3.658  1.6112 -0.8305  0.4734
 1959TIP3   OH227367   3.337   4.675  15.308 -0.0172 -1.0147  0.1581
 1959TIP3    H127368   3.279   4.648  15.380 -0.3343 -1.8598 -0.4025
 1959TIP3    H227369   3.322   4.769  15.299 -1.3714 -1.2365 -0.0292
 1960TIP3   OH227370   2.386   2.014  13.153 -0.0035  0.1698 -0.1384
 1960TIP3    H127371   2.322   2.020  13.223 -0.1488  1.1982 -0.3524
 1960TIP3    H227372   2.338   1.973  13.080  0.3762 -1.6642  0.6075
 1961TIP3   OH227373   5.898   5.696  11.499 -0.2748  0.1570 -0.2297
 1961TIP3    H127374   5.953   5.691  11.421  0.4109 -2.3085  0.3852
 1961TIP3    H227375   5.897   5.607  11.534 -1.0101  1.1046  2.2666
 1962TIP3   OH227376   3.443   5.746  11.979  0.0075  0.3146 -0.2508
 1962TIP3    H127377   3.530   5.766  12.014 -0.1355  2.2325 -0.9293
 1962TIP3    H227378   3.405   5.832  11.959 -2.3249 -0.4538  0.6994
 1963TIP3   OH227379   4.572   0.170   3.117  0.1978  0.1370 -0.1823
 1963TIP3    H127380   4.584   0.194   3.025 -0.9359  1.6902  0.0394
 1963TIP3    H227381   4.626   0.232   3.165 -1.6072  1.3529  0.3362
 1964TIP3   OH227382   0.700   1.645  14.033 -0.3472  0.1518 -0.4967
 1964TIP3    H127383   0.633   1.710  14.012 -2.0382 -1.3618  0.1103
 1964TIP3    H227384   0.700   1.586  13.957 -2.1174 -1.7872  0.9725
 1965TIP3   OH227385   0.382   2.409  16.439  0.2787  0.3802 -0.1080
 1965TIP3    H127386   0.407   2.359  16.362 -0.9520 -0.8553  0.2573
 1965TIP3    H227387   0.322   2.476  16.407  1.5900  1.3734 -0.5358
 1966TIP3   OH227388   1.447   2.923   6.383  0.5348 -0.2110 -0.3937
 1966TIP3    H127389   1.436   2.828   6.387 -1.5335  0.0168 -0.0746
 1966TIP3    H227390   1.457   2.950   6.474  0.1800 -0.0166 -0.4135
 1967TIP3   OH227391   1.820   3.673   0.310 -0.1703 -0.3113  0.5142
 1967TIP3    H127392   1.842   3.730   0.384 -2.7178 -0.6088  1.5704
 1967TIP3    H227393   1.783   3.595   0.351  0.0359 -1.2281 -1.0310
 1968TIP3   OH227394   0.610   5.461  10.107  0.3385 -0.1548  0.5993
 1968TIP3    H127395   0.679   5.491  10.047 -0.1730 -1.5587 -0.7257
 1968TIP3    H227396   0.658   5.414  10.175  0.7668 -0.6284 -0.0117
 1969TIP3   OH227397   3.497   5.632  16.312 -0.5897 -0.0341 -0.2626
 1969TIP3    H127398   3.452   5.703  16.267 -0.3070  1.2394  1.4135
 1969TIP3    H227399   3.587   5.663  16.322 -0.4201 -0.7005  0.3197
 1970TIP3   OH227400   5.194   6.079  14.201  0.4421  0.7254  0.5865
 1970TIP3    H127401   5.165   6.102  14.112  0.5657  0.0482  0.3714
 1970TIP3    H227402   5.280   6.039  14.189 -0.2767 -0.9169  0.8487
 1971TIP3   OH227403   1.172   5.019   3.170  0.1312  0.4242 -0.0395
 1971TIP3    H127404   1.172   5.031   3.075 -1.6251  1.1850  0.0390
 1971TIP3    H227405   1.079   5.015   3.194  0.5110  2.1094  1.8762
 1972TIP3   OH227406   2.475   6.097   1.917  0.6471 -0.0600  0.3736
 1972TIP3    H127407   2.419   6.025   1.886  1.8860 -0.3146 -1.3678
 1972TIP3    H227408   2.560   6.079   1.878  1.1478  2.0188  0.4426
 1973TIP3   OH227409   3.144   3.411   4.123 -0.1808 -0.1354  0.0432
 1973TIP3    H127410   3.129   3.332   4.071 -1.3779  0.3072 -0.3250
 1973TIP3    H227411   3.136   3.483   4.060  1.5991  0.2513  0.2368
 1974TIP3   OH227412   5.051   2.152   3.086  0.0413  0.3303  0.0936
 1974TIP3    H127413   5.029   2.227   3.031  1.0896 -0.3992 -1.3730
 1974TIP3    H227414   5.147   2.156   3.093  0.0987 -0.8305  0.0406
 1975TIP3   OH227415   4.182   5.458  17.146  0.5299 -0.2965  0.1594
 1975TIP3    H127416   4.205   5.440  17.055  0.0365  0.3371 -0.0957
 1975TIP3    H227417   4.265   5.456  17.193  0.6212 -2.1216 -0.0504
 1976TIP3   OH227418   3.119   6.739   2.143 -0.5422  0.1025  0.3732
 1976TIP3    H127419   3.100   6.811   2.083 -2.0060  0.8544  1.6850
 1976TIP3    H227420   3.201   6.702   2.112 -1.7228 -0.1190 -2.6186
 1977TIP3   OH227421   4.969   6.693  13.448  0.4431  0.1138  0.4149
 1977TIP3    H127422   5.049   6.746  13.443  0.8049 -0.4381  0.2848
 1977TIP3    H227423   4.945   6.679  13.357  0.7394 -0.5247  0.4298
 1978TIP3   OH227424   5.502   2.777  14.220 -0.1991  0.3375 -0.4202
 1978TIP3    H127425   5.464   2.713  14.159  5.0730 -1.8905 -1.5869
 1978TIP3    H227426   5.508   2.858  14.168 -1.2415  0.1174 -0.9092
 1979TIP3   OH227427   2.717   5.655   6.156 -0.6595  0.7220  0.3564
 1979TIP3    H127428   2.770   5.734   6.141  1.1136 -0.7160 -1.3227
 1979TIP3    H227429   2.780   5.583   6.152 -2.5219 -0.9334 -0.0812
 1980TIP3   OH227430   3.884   6.664  13.630  0.0820  0.0210 -0.6798
 1980TIP3    H127431   3.871   6.750  13.589 -1.1510 -0.0376 -0.4311
 1980TIP3    H227432   3.856   6.676  13.721  2.2401 -0.0136  0.0044
 1981TIP3   OH227433   0.219   4.085   1.020 -0.3592  0.2032  0.2839
 1981TIP3    H127434   0.259   4.169   1.045 -1.2363  0.4968  0.7102
 1981TIP3    H227435   0.126   4.095   1.040 -0.6132 -0.5764 -0.4575
 1982TIP3   OH227436   4.142   3.556   2.941  0.4175 -0.0159 -0.0307
 1982TIP3    H127437   4.169   3.471   2.976  2.0214  1.2690  1.9887
 1982TIP3    H227438   4.174   3.556   2.850 -1.3939 -2.3340 -0.7085
 1983TIP3   OH227439   0.717   6.799  13.752  0.0552 -0.2669 -0.6961
 1983TIP3    H127440   0.668   6.858  13.695  1.3016  0.6094 -0.8524
 1983TIP3    H227441   0.807   6.831  13.751  0.7625 -2.1519 -0.7851
 1984TIP3   OH227442   1.883   4.508   1.395  0.2894 -0.5098  0.2910
 1984TIP3    H127443   1.798   4.476   1.364 -0.2774  1.3005 -0.0930
 1984TIP3    H227444   1.928   4.429   1.427 -1.6714 -1.4322  0.8506
 1985TIP3   OH227445   6.553   4.969   0.314  0.4735 -0.4806 -0.2167
 1985TIP3    H127446   6.488   4.899   0.314 -0.1209  0.0485  1.0660
 1985TIP3    H227447   6.590   4.968   0.403  2.8746 -1.3579 -1.1900
 1986TIP3   OH227448   3.239   0.225  15.832  0.3805 -0.6825  0.0725
 1986TIP3    H127449   3.237   0.131  15.850 -0.0261 -0.8373 -0.7636
 1986TIP3    H227450   3.275   0.263  15.912 -0.6528 -1.4308  0.9142
 1987TIP3   OH227451   4.274   3.602  12.388  0.0581  0.9161 -0.4005
 1987TIP3    H127452   4.293   3.594  12.482  3.2959 -0.2738 -1.0873
 1987TIP3    H227453   4.207   3.671  12.383 -0.9125  0.3026  2.8354
 1988TIP3   OH227454   2.044   2.363   1.999  0.0493 -0.4140  0.1499
 1988TIP3    H127455   2.076   2.452   2.012  1.8049 -0.9552 -0.2203
 1988TIP3    H227456   2.122   2.314   1.972 -1.6048 -1.2822 -3.3462
 1989TIP3   OH227457   4.768   1.175  17.036  0.4200  0.0701 -0.4924
 1989TIP3    H127458   4.832   1.232  17.078  0.2631  0.3305 -0.6017
 1989TIP3    H227459   4.728   1.230  16.968 -0.2389  0.0505 -0.1313
 1990TIP3   OH227460   0.376   2.795   2.487  0.4173 -0.1164  0.6798
 1990TIP3    H127461   0.380   2.700   2.473 -0.0681 -0.0090 -0.2217
 1990TIP3    H227462   0.291   2.809   2.530 -1.3070  0.3018 -2.6641
 1991TIP3   OH227463   0.827   4.099  12.133  0.2270  0.0716 -0.2375
 1991TIP3    H127464   0.895   4.157  12.099 -0.3746  1.2399  0.4750
 1991TIP3    H227465   0.762   4.159  12.170 -1.1850 -1.0194 -0.9076
 1992TIP3   OH227466   5.275   6.543   0.831  0.0905  0.3643  0.2043
 1992TIP3    H127467   5.310   6.454   0.833  0.5048  0.4678 -1.6415
 1992TIP3    H227468   5.333   6.590   0.771  0.3376  2.0815  1.7465
 1993TIP3   OH227469   1.647   4.076  14.912 -0.1973  0.3377 -0.4571
 1993TIP3    H127470   1.708   4.014  14.953 -1.7606 -0.7283  0.2767
 1993TIP3    H227471   1.585   4.021  14.865  0.3118  1.4856 -2.5195
 1994TIP3   OH227472   0.068   2.520   5.606 -0.0519  0.3935  0.1548
 1994TIP3    H127473   0.129   2.479   5.668  0.1377  0.3346 -0.0719
 1994TIP3    H227474   0.018   2.447   5.570 -0.7151  0.5076  0.8385
 1995TIP3   OH227475   3.617   5.873   0.452  0.5795 -0.7087  0.0418
 1995TIP3    H127476   3.606   5.778   0.440 -1.5235 -0.2451 -1.9542
 1995TIP3    H227477   3.644   5.905   0.366 -0.8061  0.7868  0.1485
 1996TIP3   OH227478   0.980   0.210  15.365 -0.5512  0.1078  0.0814
 1996TIP3    H127479   1.015   0.223  15.453  0.9663  1.8210 -0.7241
 1996TIP3    H227480   0.896   0.255  15.366 -0.0463  1.0784  0.3702
 1997TIP3   OH227481   4.874   5.756   2.142  0.2913 -0.3097  0.0467
 1997TIP3    H127482   4.923   5.838   2.135 -0.2614  0.0223  0.0238
 1997TIP3    H227483   4.896   5.708   2.062 -0.6228  0.5122 -0.7133
 1998TIP3   OH227484   1.153   2.955   5.513  0.4210 -0.0474 -0.0685
 1998TIP3    H127485   1.180   3.021   5.449 -0.7162 -0.2866 -0.8246
 1998TIP3    H227486   1.202   2.976   5.592  1.4143  0.6158 -0.8381
 1999TIP3   OH227487   6.375   6.356   6.388  0.0378 -0.1496 -0.0746
 1999TIP3    H127488   6.293   6.311   6.407 -0.7737  0.3373 -2.2489
 1999TIP3    H227489   6.355   6.448   6.404 -0.1847  0.0882 -1.6502
 2000TIP3   OH227490   5.691   2.503  12.783 -0.0656  0.2463 -0.1412
 2000TIP3    H127491   5.647   2.543  12.709 -0.3838  2.2747  1.0897
 2000TIP3    H227492   5.740   2.575  12.823  1.8082 -1.2841  0.3690
 2001TIP3   OH227493   2.771   2.909  12.789  0.2689 -0.5846 -0.3314
 2001TIP3    H127494   2.846   2.906  12.730  0.7277  3.4837 -0.0348
 2001TIP3    H227495   2.695   2.911  12.731  0.6882  2.3659 -0.8431
 2002TIP3   OH227496   3.616   2.087  17.025 -0.0073  0.1337  0.3542
 2002TIP3    H127497   3.628   2.126  16.938  0.0342  0.5357  0.5387
 2002TIP3    H227498   3.697   2.038  17.041 -0.3731 -0.6731 -0.2044
 2003TIP3   OH227499   5.613   0.275   4.584  0.3152 -0.1015 -0.1067
 2003TIP3    H127500   5.674   0.292   4.513 -0.5907  3.3813 -0.1442
 2003TIP3    H227501   5.663   0.224   4.648  2.0867 -0.5207 -1.7985
 2004TIP3   OH227502   4.044   3.406   3.325  0.6403  0.5252  0.9855
 2004TIP3    H127503   4.121   3.463   3.327  2.2984 -1.6306  1.2362
 2004TIP3    H227504   4.059   3.344   3.396  0.0051 -1.5987 -0.6783
 2005TIP3   OH227505   2.065   5.311   5.820  0.6160  0.2867  0.1321
 2005TIP3    H127506   1.990   5.260   5.850  1.0892 -1.7211 -1.9782
 2005TIP3    H227507   2.028   5.394   5.789 -0.5920 -0.2608  0.1184
 2006TIP3   OH227508   1.604   3.718  16.842 -0.1328  0.0419 -0.4034
 2006TIP3    H127509   1.670   3.774  16.800 -0.2780  0.4152 -0.1342
 2006TIP3    H227510   1.528   3.723  16.783  0.1872 -0.6457 -0.8769
 2007TIP3   OH227511   2.651   5.029  12.105 -0.3360  0.0948  0.9648
 2007TIP3    H127512   2.690   5.110  12.072 -0.5669 -0.3151 -0.3178
 2007TIP3    H227513   2.717   4.962  12.087 -1.3981 -0.5110 -0.7338
 2008TIP3   OH227514   0.632   6.390   3.854 -0.6748 -0.3998 -0.4274
 2008TIP3    H127515   0.686   6.332   3.908  0.0559 -0.7217 -1.4654
 2008TIP3    H227516   0.564   6.421   3.912 -0.9728 -2.1713  0.2098
 2009TIP3   OH227517   5.145   2.568  11.294 -0.0356  0.5453 -0.0764
 2009TIP3    H127518   5.069   2.626  11.290 -0.1569  0.2636 -2.7070
 2009TIP3    H227519   5.119   2.498  11.354 -1.1072  1.4791  0.5660
 2010TIP3   OH227520   2.545   1.944  11.236  0.6386  0.2743  0.0436
 2010TIP3    H127521   2.553   1.854  11.269 -1.4027  0.1180  0.2068
 2010TIP3    H227522   2.623   1.957  11.183  0.3657 -2.0747 -1.0226
 2011TIP3   OH227523   3.695   2.741  13.833  0.1757  0.5307  0.1225
 2011TIP3    H127524   3.756   2.813  13.847 -0.6384  1.1143  0.6419
 2011TIP3    H227525   3.751   2.663  13.827  1.5246  1.6829 -4.9291
 2012TIP3   OH227526   6.078   2.191   4.129 -0.0021 -1.0102 -0.2746
 2012TIP3    H127527   6.007   2.221   4.071  0.7355  0.3675 -0.4637
 2012TIP3    H227528   6.137   2.265   4.136  1.3569 -2.0984  0.0255
 2013TIP3   OH227529   4.215   1.950  12.323 -0.1460 -0.4350  0.4361
 2013TIP3    H127530   4.189   1.891  12.393 -0.5935 -1.2205 -0.3717
 2013TIP3    H227531   4.276   1.899  12.270  0.3497  0.2171  0.3755
 2014TIP3   OH227532   6.370   5.580  17.266  0.2043 -0.4517  0.1147
 2014TIP3    H127533   6.410   5.561  17.352  0.4237  0.8843  0.3303
 2014TIP3    H227534   6.440   5.626  17.218  0.0324 -1.0755 -0.7288
 2015TIP3   OH227535   6.350   6.542  11.885  0.3632 -0.0829 -0.1955
 2015TIP3    H127536   6.278   6.590  11.927  0.3095  0.7188 -1.2006
 2015TIP3    H227537   6.309   6.462  11.851 -0.0036  0.2413 -0.5244
 2016TIP3   OH227538   4.908   5.347  12.129  0.1031 -0.1278 -0.5960
 2016TIP3    H127539   4.956   5.345  12.212 -1.9155 -3.4085  0.5541
 2016TIP3    H227540   4.963   5.297  12.069  0.1301 -0.3093 -0.4212
 2017TIP3   OH227541   1.474   3.735  12.398  0.2012 -0.3240  0.0363
 2017TIP3    H127542   1.422   3.815  12.385 -0.6527 -0.9288 -0.3065
 2017TIP3    H227543   1.410   3.664  12.392  1.2797 -1.1763 -1.7670
 2018TIP3   OH227544   4.469   4.843   5.726 -0.1036 -0.0891 -0.2982
 2018TIP3    H127545   4.472   4.937   5.746  0.7952 -0.2448  0.3157
 2018TIP3    H227546   4.524   4.802   5.793 -0.1838 -1.0132 -0.7913
 2019TIP3   OH227547   0.182   4.624  13.524 -0.2075 -0.4890 -0.3130
 2019TIP3    H127548   0.088   4.645  13.518  0.3356  1.6733 -2.0438
 2019TIP3    H227549   0.188   4.533  13.495 -1.8703 -0.9851  0.8062
 2020TIP3   OH227550   0.331   6.579   5.481 -0.1730  0.6499 -0.0841
 2020TIP3    H127551   0.377   6.642   5.536 -0.7427  1.2743 -0.3117
 2020TIP3    H227552   0.256   6.627   5.448 -1.8436 -0.7782  1.4805
 2021TIP3   OH227553   1.955   3.949   5.202 -0.3581 -0.1277  0.2258
 2021TIP3    H127554   1.986   3.965   5.291 -1.1950  1.1497  0.3075
 2021TIP3    H227555   1.865   3.919   5.213 -0.8326  1.0684 -0.2112
 2022TIP3   OH227556   6.240   1.214  15.400 -0.4025 -0.1392 -0.9388
 2022TIP3    H127557   6.155   1.257  15.414 -0.2909 -0.1788 -0.1219
 2022TIP3    H227558   6.300   1.287  15.384 -0.0748  0.0918  1.1431
 2023TIP3   OH227559   0.456   5.270  10.367 -0.5709  0.2197  0.5013
 2023TIP3    H127560   0.539   5.318  10.370 -0.6977  0.4426  0.4814
 2023TIP3    H227561   0.474   5.187  10.410 -0.0435 -0.1796 -0.4802
 2024TIP3   OH227562   0.868   5.890   1.579  0.6795  0.1380  1.1758
 2024TIP3    H127563   0.894   5.865   1.491 -2.1842  1.0641  0.0150
 2024TIP3    H227564   0.935   5.852   1.636  2.9077  0.0710 -1.4232
 2025TIP3   OH227565   0.290   3.396  13.760  0.8988 -0.0988 -0.2607
 2025TIP3    H127566   0.237   3.476  13.760 -0.2882 -0.8807 -1.4887
 2025TIP3    H227567   0.292   3.370  13.852  0.5676  0.8711  0.0350
 2026TIP3   OH227568   5.740   1.938   2.805  0.5016 -0.1048  0.0180
 2026TIP3    H127569   5.835   1.934   2.791  0.8144  2.7440  0.9864
 2026TIP3    H227570   5.731   1.961   2.898 -1.1689 -0.4424 -0.0449
 2027TIP3   OH227571   5.341   1.894   5.095 -0.4387 -0.1233  0.2012
 2027TIP3    H127572   5.360   1.910   5.002  0.1348 -0.9182  0.1746
 2027TIP3    H227573   5.426   1.878   5.134 -0.7708 -0.7057  0.6911
 2028TIP3   OH227574   2.527   5.947  15.644 -0.7980 -0.2692 -0.0553
 2028TIP3    H127575   2.583   5.921  15.570  0.8597 -0.4676  1.2463
 2028TIP3    H227576   2.486   5.865  15.673 -2.6626  0.0381 -1.6937
 2029TIP3   OH227577   3.854   2.128   5.805  0.3560  0.4289  0.3269
 2029TIP3    H127578   3.836   2.220   5.829  1.0986  0.7376 -0.2923
 2029TIP3    H227579   3.948   2.126   5.787  0.9939 -1.1540  3.5049
 2030TIP3   OH227580   0.599   1.089   3.485  0.5459  0.2572 -0.8385
 2030TIP3    H127581   0.570   1.114   3.573 -1.3345  0.1214 -1.3902
 2030TIP3    H227582   0.661   1.018   3.500 -0.6497 -0.5699  0.3557
 2031TIP3   OH227583   1.008   6.614  13.556 -0.3999 -0.3832  0.1471
 2031TIP3    H127584   1.081   6.662  13.594 -0.1734  0.2665 -1.0926
 2031TIP3    H227585   0.959   6.679  13.507 -1.0227 -1.0945 -0.1983
 2032TIP3   OH227586   0.553   6.289   2.655  0.0527  0.0767 -0.0471
 2032TIP3    H127587   0.608   6.310   2.579  1.5701 -2.5188  0.2614
 2032TIP3    H227588   0.463   6.289   2.620  0.7232 -1.0752 -1.8639
 2033TIP3   OH227589   2.739   0.576   2.987 -0.2325 -0.2766  0.0316
 2033TIP3    H127590   2.830   0.599   2.968 -0.4519  2.4537  2.1017
 2033TIP3    H227591   2.741   0.481   2.998  2.1760 -0.3900 -0.9322
 2034TIP3   OH227592   3.287   5.020  12.347  0.1316  0.4866  0.6089
 2034TIP3    H127593   3.297   5.097  12.291  0.4190  0.9075  1.2433
 2034TIP3    H227594   3.194   4.998  12.340 -0.1155  1.3769  1.0763
 2035TIP3   OH227595   5.663   0.135  15.547 -0.0218 -0.2818 -0.1251
 2035TIP3    H127596   5.725   0.192  15.593  0.3026 -1.3745  0.8231
 2035TIP3    H227597   5.666   0.164  15.457  1.1367  0.3457  0.1039
 2036TIP3   OH227598   6.544   3.450  16.547 -0.7562  0.1451  0.1187
 2036TIP3    H127599   6.619   3.452  16.607 -1.7591  1.3047  1.3650
 2036TIP3    H227600   6.583   3.439  16.460  0.8572  0.6313  0.7626
 2037TIP3   OH227601   2.477   5.142  14.070  0.0882 -0.3085  0.1630
 2037TIP3    H127602   2.382   5.131  14.076 -0.0756  0.9415  0.0640
 2037TIP3    H227603   2.513   5.080  14.134 -0.7642 -1.1507 -0.1660
 2038TIP3   OH227604   1.406   5.959  14.548 -0.3155 -0.0123  0.2583
 2038TIP3    H127605   1.351   5.992  14.477  1.4037 -0.3282 -1.2476
 2038TIP3    H227606   1.426   6.036  14.601 -1.0596  0.3507  0.0173
 2039TIP3   OH227607   3.931   1.077   2.769 -0.3775  0.6251 -0.0370
 2039TIP3    H127608   3.955   1.008   2.832 -0.6253  0.7133  0.1538
 2039TIP3    H227609   3.988   1.061   2.694 -1.0038 -0.2831 -0.3211
 2040TIP3   OH227610   2.036   6.369  13.782  0.3405  0.5803 -0.0554
 2040TIP3    H127611   2.024   6.343  13.873  1.0197 -0.3079 -0.2030
 2040TIP3    H227612   2.073   6.457  13.786 -0.0288  0.7110  0.5156
 2041TIP3   OH227613   5.289   2.514  16.366 -0.6736  0.0998  0.0325
 2041TIP3    H127614   5.284   2.575  16.440 -0.7247  1.2753 -0.9227
 2041TIP3    H227615   5.236   2.439  16.392 -1.3005  0.8369  0.8807
 2042TIP3   OH227616   1.172   1.169  15.847 -0.5100 -0.0925  0.6325
 2042TIP3    H127617   1.233   1.095  15.850  1.0489  1.1318 -0.0277
 2042TIP3    H227618   1.163   1.197  15.938  0.9285  0.4959  0.6181
 2043TIP3   OH227619   1.635   4.235  11.490 -0.2883  0.8643  0.8341
 2043TIP3    H127620   1.628   4.216  11.583 -1.5001 -1.3690  0.3125
 2043TIP3    H227621   1.586   4.165  11.447  1.1643  1.2519 -1.5402
 2044TIP3   OH227622   1.240   4.319  14.468  0.4932 -0.2072 -0.0371
 2044TIP3    H127623   1.222   4.291  14.557 -0.0400 -2.6417 -0.8712
 2044TIP3    H227624   1.331   4.349  14.470  0.3060  0.2999  1.4300
 2045TIP3   OH227625   2.307   2.530   3.729 -0.0325  0.5862 -0.0836
 2045TIP3    H127626   2.261   2.451   3.700 -1.9657  1.8038 -0.4298
 2045TIP3    H227627   2.243   2.600   3.716  0.6430  1.8211  2.8780
 2046TIP3   OH227628   6.752   3.006  16.827 -0.4220 -0.1594  0.2873
 2046TIP3    H127629   6.679   2.951  16.799 -0.9019 -1.0511  3.0636
 2046TIP3    H227630   6.729   3.032  16.916  1.3555  1.8755  0.1830
 2047TIP3   OH227631   6.550   2.610  14.091  0.0983 -0.9685 -0.4185
 2047TIP3    H127632   6.628   2.567  14.056  1.0079 -1.4605  2.0867
 2047TIP3    H227633   6.582   2.663  14.164 -1.9566 -1.4996  0.9301
 2048TIP3   OH227634   0.862   3.690   1.970  0.6574 -0.0391 -0.5821
 2048TIP3    H127635   0.836   3.602   1.996 -0.2230  0.0452 -1.1384
 2048TIP3    H227636   0.872   3.685   1.875 -2.3547  1.1694 -1.0117
 2049TIP3   OH227637   5.026   1.233   2.140  0.6233 -0.2755 -0.1139
 2049TIP3    H127638   4.966   1.306   2.155  0.3117 -0.2684 -1.3156
 2049TIP3    H227639   5.107   1.259   2.181  0.3384  0.5099 -0.0483
 2050TIP3   OH227640   0.952   4.252   1.442 -0.1364  0.2302 -0.3779
 2050TIP3    H127641   0.926   4.226   1.353  0.2847 -0.1288 -0.3989
 2050TIP3    H227642   1.025   4.312   1.429 -0.0510  0.1483 -0.2749
 2051TIP3   OH227643   0.130   2.504  12.385  0.3462 -0.0958 -0.0285
 2051TIP3    H127644   0.094   2.486  12.298 -1.0382 -1.9443  0.8925
 2051TIP3    H227645   0.207   2.448  12.391  2.0732  2.0705 -1.0700
 2052TIP3   OH227646   6.736   4.070   3.974 -0.3023  0.3280  0.3867
 2052TIP3    H127647   6.763   4.064   3.883 -1.4866  0.4565  0.0214
 2052TIP3    H227648   6.758   4.159   4.000  1.9784 -0.3380  0.8702
 2053TIP3   OH227649   3.572   2.379  17.155  0.2174  0.0176  0.0104
 2053TIP3    H127650   3.607   2.360  17.068  0.9143 -0.3446  0.3587
 2053TIP3    H227651   3.646   2.363  17.214 -0.9261 -2.2116  0.9209
 2054TIP3   OH227652   1.434   0.138  16.927  0.2978 -0.1170 -0.1780
 2054TIP3    H127653   1.519   0.182  16.922  2.2989 -3.8770 -1.8261
 2054TIP3    H227654   1.377   0.189  16.870  1.7562  1.7939  0.0115
 2055TIP3   OH227655   0.842   1.276  11.375  0.8248  0.4415 -0.2150
 2055TIP3    H127656   0.915   1.277  11.312  0.5483  1.1536 -0.5321
 2055TIP3    H227657   0.851   1.359  11.422 -0.2506  0.8949 -0.7928
 2056TIP3   OH227658   1.807   4.261   5.086  0.1693 -0.1674 -0.1952
 2056TIP3    H127659   1.801   4.251   5.181 -1.0862 -0.4015 -0.2905
 2056TIP3    H227660   1.749   4.194   5.051  0.7256 -0.1704 -1.1424
 2057TIP3   OH227661   5.377   0.746  16.423 -0.1534  0.0663 -0.1678
 2057TIP3    H127662   5.423   0.780  16.500  1.9792 -0.2853 -1.2808
 2057TIP3    H227663   5.367   0.822  16.366  0.6616 -0.2585 -0.7312
 2058TIP3   OH227664   3.178   0.077   1.421  0.4919  0.3960  0.4123
 2058TIP3    H127665   3.092   0.070   1.462  1.2324  2.0694  2.3602
 2058TIP3    H227666   3.220  -0.007   1.437 -0.9862 -0.6509 -1.0833
 2059TIP3   OH227667   2.453   6.461  16.881 -0.9863 -0.6612  0.0483
 2059TIP3    H127668   2.508   6.484  16.806  0.0777 -2.3595  0.2782
 2059TIP3    H227669   2.366   6.446  16.844 -1.2001  1.5170 -0.3996
 2060TIP3   OH227670   0.355   4.715   0.162  0.0104  0.4515 -0.7021
 2060TIP3    H127671   0.385   4.641   0.109 -1.2303 -0.2193 -0.4827
 2060TIP3    H227672   0.301   4.767   0.102  0.7484  1.1068 -0.8124
 2061TIP3   OH227673   1.260   5.335   6.171 -0.3655  0.8187  0.0910
 2061TIP3    H127674   1.276   5.264   6.109 -0.2933  2.1421 -1.4232
 2061TIP3    H227675   1.284   5.415   6.124 -1.8875  1.9925  1.2316
 2062TIP3   OH227676   4.735   6.794   3.004 -0.6039  0.2616  0.1914
 2062TIP3    H127677   4.802   6.823   2.942 -0.2732 -0.8344  0.0268
 2062TIP3    H227678   4.675   6.868   3.010 -1.5305 -0.1674 -2.6978
 2063TIP3   OH227679   3.165   1.362   0.644 -0.1241  0.0787  0.3459
 2063TIP3    H127680   3.213   1.438   0.678 -1.5452  0.9998  0.3242
 2063TIP3    H227681   3.233   1.298   0.626  1.1680  1.5764 -0.2554
 2064TIP3   OH227682   6.357   6.190  15.048  0.3613  0.4561 -0.0439
 2064TIP3    H127683   6.329   6.099  15.043 -3.1421  1.4403 -0.0066
 2064TIP3    H227684   6.391   6.210  14.961  1.6820 -1.0191  0.1117
 2065TIP3   OH227685   4.906   3.616  17.136 -0.0731 -0.2386  0.7184
 2065TIP3    H127686   4.826   3.614  17.188 -0.7303 -0.2139 -0.2838
 2065TIP3    H227687   4.949   3.533  17.154  0.2188  0.2105  2.1053
 2066TIP3   OH227688   5.649   6.124  12.456 -0.3199  0.3736 -0.1025
 2066TIP3    H127689   5.629   6.148  12.366  0.8172 -0.4015 -0.5739
 2066TIP3    H227690   5.733   6.078  12.451 -1.0276 -1.0987  1.1485
 2067TIP3   OH227691   0.124   4.296  14.273 -0.2083  0.1319 -0.1722
 2067TIP3    H127692   0.085   4.213  14.301 -1.2166  0.3051 -1.0114
 2067TIP3    H227693   0.092   4.360  14.337  0.7324 -0.1448  0.5930
 2068TIP3   OH227694   3.126   0.818   0.611 -0.1586  0.5669 -0.5121
 2068TIP3    H127695   3.038   0.782   0.598 -0.0898 -0.0222  0.5779
 2068TIP3    H227696   3.125   0.850   0.702  0.1320  2.3271 -1.0986
 2069TIP3   OH227697   0.605   5.288  13.528  0.1951  0.3858 -0.3189
 2069TIP3    H127698   0.599   5.194  13.546 -1.3370  0.8353  1.7069
 2069TIP3    H227699   0.699   5.307  13.529  0.5388 -1.1583 -1.0800
 2070TIP3   OH227700   6.537   5.334  14.676 -0.6818 -0.1645  0.4574
 2070TIP3    H127701   6.462   5.374  14.631  0.3652 -0.1364 -1.2790
 2070TIP3    H227702   6.501   5.256  14.718 -1.4658 -0.7612 -1.2977
 2071TIP3   OH227703   5.899   4.881  14.492 -0.5094  0.3170 -0.2558
 2071TIP3    H127704   5.934   4.954  14.441 -1.2911  0.9652  0.1212
 2071TIP3    H227705   5.928   4.802  14.445 -1.8927  0.9089 -2.1505
 2072TIP3   OH227706   2.407   1.128  15.266  0.6937  0.0362 -0.1950
 2072TIP3    H127707   2.444   1.069  15.200  1.9979  1.0047 -0.3470
 2072TIP3    H227708   2.340   1.177  15.219 -0.2383 -1.1418 -0.1256
 2073TIP3   OH227709   3.613   0.267   4.296  0.4898 -0.9965  0.7532
 2073TIP3    H127710   3.648   0.291   4.210 -2.6810 -0.0696 -0.3443
 2073TIP3    H227711   3.593   0.350   4.338  0.7623 -1.4810  1.8445
 2074TIP3   OH227712   6.640   3.327  16.313 -0.3663 -0.1091  0.1096
 2074TIP3    H127713   6.552   3.292  16.301 -0.2029 -0.5514  0.2182
 2074TIP3    H227714   6.669   3.350  16.224 -0.5177 -0.1416  0.0516
 2075TIP3   OH227715   4.826   5.909  12.453  0.0855  0.3110  0.0241
 2075TIP3    H127716   4.894   5.859  12.408 -1.6487 -2.3218  0.2226
 2075TIP3    H227717   4.832   5.881  12.544 -0.4014  1.0604  0.2943
 2076TIP3   OH227718   5.225   4.857  13.529 -0.3045  0.2568  0.2045
 2076TIP3    H127719   5.233   4.772  13.486 -1.4446  0.0022  0.4773
 2076TIP3    H227720   5.140   4.853  13.574 -1.2410  2.2272 -1.3260
 2077TIP3   OH227721   4.608   4.074  12.161 -0.4988  0.2967  0.4015
 2077TIP3    H127722   4.593   4.164  12.191  0.2843 -0.2359  2.4881
 2077TIP3    H227723   4.639   4.083  12.071 -1.8098  2.0271  0.0848
 2078TIP3   OH227724   6.368   0.004  15.176  0.1230  0.3680 -0.5235
 2078TIP3    H127725   6.371  -0.086  15.142  1.0430 -0.2312  1.0658
 2078TIP3    H227726   6.439   0.007  15.241 -1.9670  1.2634  1.7881
 2079TIP3   OH227727   6.554   5.786   1.037  0.8735  0.1390 -0.6068
 2079TIP3    H127728   6.644   5.795   1.066  0.5693 -0.3185  0.4981
 2079TIP3    H227729   6.501   5.800   1.116  0.0454 -1.4613 -0.8517
 2080TIP3   OH227730   1.881   3.794   5.445 -0.2392  0.3732 -0.5204
 2080TIP3    H127731   1.930   3.821   5.523  0.6945  0.5648 -1.1581
 2080TIP3    H227732   1.906   3.702   5.433  0.9807  0.8374 -1.5914
 2081TIP3   OH227733   0.686   4.100  11.380 -0.0037 -0.4840  0.5116
 2081TIP3    H127734   0.607   4.150  11.364 -0.3036 -1.1070  0.0063
 2081TIP3    H227735   0.662   4.038  11.449  0.1710 -0.3609  0.6812
 2082TIP3   OH227736   5.567   2.126   2.641 -0.5507 -0.4765  0.0988
 2082TIP3    H127737   5.618   2.048   2.661  0.5704  0.5767  1.4397
 2082TIP3    H227738   5.611   2.164   2.565 -1.0058 -1.0638 -0.4593
 2083TIP3   OH227739   0.348   0.453  13.691 -0.6135 -0.0322  0.5487
 2083TIP3    H127740   0.265   0.412  13.716 -0.4618  0.1278  1.3254
 2083TIP3    H227741   0.329   0.497  13.608 -1.5723  0.8258  1.2082
 2084TIP3   OH227742   2.759   0.243   1.625  0.6046  0.1139 -0.0778
 2084TIP3    H127743   2.758   0.237   1.721  1.3811 -0.2424 -0.0866
 2084TIP3    H227744   2.673   0.280   1.603  0.4465  0.2767  0.7575
 2085TIP3   OH227745   6.513   2.336   0.198  0.6599  0.0827  0.1617
 2085TIP3    H127746   6.430   2.289   0.208  0.0881  0.8714 -0.7248
 2085TIP3    H227747   6.579   2.277   0.232 -0.3618 -0.2643  1.5564
 2086TIP3   OH227748   1.942   5.533  16.201 -0.3073 -0.1104  0.3112
 2086TIP3    H127749   1.873   5.561  16.262  0.7870 -0.3662  1.6890
 2086TIP3    H227750   1.944   5.602  16.135 -1.8028 -0.0392  0.3108
 2087TIP3   OH227751   5.468   2.146   1.933  0.2419  0.3748 -0.0966
 2087TIP3    H127752   5.470   2.186   2.020 -0.2872 -0.3374  0.2491
 2087TIP3    H227753   5.516   2.207   1.878 -0.4087  1.4015  0.4548
 2088TIP3   OH227754   5.766   1.382  15.229 -0.9843 -0.1783 -0.2530
 2088TIP3    H127755   5.841   1.380  15.170 -0.5016  0.9471  0.3116
 2088TIP3    H227756   5.704   1.318  15.192  0.6505 -1.8465 -0.1598
 2089TIP3   OH227757   0.573   3.307   1.531 -0.1865 -0.1905 -0.8682
 2089TIP3    H127758   0.599   3.319   1.622 -0.8912  1.7046 -0.8857
 2089TIP3    H227759   0.517   3.230   1.531  0.0658 -0.3732  0.2474
 2090TIP3   OH227760   2.978   6.549   6.035  0.1584 -1.2570 -0.6676
 2090TIP3    H127761   2.903   6.605   6.015  0.7983  0.0523  0.4659
 2090TIP3    H227762   2.954   6.503   6.115  1.2536  0.5626  0.7536
 2091TIP3   OH227763   6.609   5.874  13.039 -0.0178  0.5417 -0.0993
 2091TIP3    H127764   6.625   5.785  13.070  0.8447  1.1568  1.2586
 2091TIP3    H227765   6.695   5.917  13.044  0.4463  0.3610 -4.4010
 2092TIP3   OH227766   5.552   2.422   4.423 -0.6918 -0.0980 -0.2271
 2092TIP3    H127767   5.462   2.425   4.455 -0.4537  1.5090  0.2982
 2092TIP3    H227768   5.544   2.441   4.329 -0.9499 -0.5608 -0.3043
 2093TIP3   OH227769   5.132   0.570   0.744 -0.7345 -0.8027  0.4884
 2093TIP3    H127770   5.128   0.526   0.829 -2.1737 -1.9151 -0.1365
 2093TIP3    H227771   5.066   0.639   0.750  0.6694  0.4986  1.0335
 2094TIP3   OH227772   5.080   3.408  17.061 -0.6505  0.4702  0.2696
 2094TIP3    H127773   5.162   3.448  17.031 -0.5322 -0.8434 -1.2243
 2094TIP3    H227774   5.020   3.419  16.987 -1.9040  1.5895  1.4234
 2095TIP3   OH227775   1.724   3.899   1.036 -0.5937 -0.1142  0.0649
 2095TIP3    H127776   1.718   3.986   0.997 -0.0597 -0.1461 -0.0843
 2095TIP3    H227777   1.642   3.856   1.009  0.4769 -0.6983 -2.3975
 2096TIP3   OH227778   3.976   2.761  12.498 -1.0933 -0.1865 -0.2371
 2096TIP3    H127779   4.042   2.826  12.474  0.5734 -1.7593 -0.0106
 2096TIP3    H227780   4.026   2.683  12.523 -3.0443 -2.8891 -4.1142
 2097TIP3   OH227781   5.260   1.551   4.605  0.3835 -0.0233  0.0175
 2097TIP3    H127782   5.275   1.629   4.552 -1.6232 -0.1976 -0.8850
 2097TIP3    H227783   5.279   1.478   4.546 -0.3323 -0.2067 -0.0019
 2098TIP3   OH227784   0.012   3.588   3.209  0.2666  0.0042 -0.7365
 2098TIP3    H127785  -0.036   3.632   3.279  2.2248 -1.2709  1.4728
 2098TIP3    H227786  -0.025   3.500   3.207  1.1829 -0.3912 -0.3341
 2099TIP3   OH227787   2.834   3.644  15.514 -0.0177  0.1120  0.2689
 2099TIP3    H127788   2.847   3.738  15.498  0.1517  0.1042  0.3594
 2099TIP3    H227789   2.913   3.617  15.562 -0.4595  0.1128  1.0126
 2100TIP3   OH227790   2.242   2.388   2.311  0.0959 -0.2917  0.1461
 2100TIP3    H127791   2.186   2.318   2.279  2.8502 -2.2219 -0.5984
 2100TIP3    H227792   2.256   2.369   2.404 -2.4934  1.6193  0.9786
 2101TIP3   OH227793   2.361   2.292  13.093 -0.2552 -0.0370  0.0789
 2101TIP3    H127794   2.398   2.204  13.081 -1.5721 -0.6068  0.1020
 2101TIP3    H227795   2.275   2.276  13.131  0.0460  1.3307  1.3770
 2102TIP3   OH227796   1.877   2.372  14.822 -0.3324  0.1333  0.6481
 2102TIP3    H127797   1.962   2.342  14.790 -0.8098  0.1988 -0.7177
 2102TIP3    H227798   1.881   2.359  14.916  0.8134 -0.8395  0.4796
 2103TIP3   OH227799   2.352   4.289   5.150 -0.1266  0.0582 -0.2699
 2103TIP3    H127800   2.276   4.336   5.114  0.0185  0.3626 -0.1752
 2103TIP3    H227801   2.359   4.211   5.095 -1.4701 -0.7673  0.7080
 2104TIP3   OH227802   1.095   6.567   0.296 -0.3762 -0.7636  0.4663
 2104TIP3    H127803   1.169   6.610   0.340 -1.8617  1.9018  0.4674
 2104TIP3    H227804   1.049   6.522   0.367  1.3363 -2.6124  0.4336
 2105TIP3   OH227805   5.927   4.175   4.234 -0.2486 -0.2575 -0.3098
 2105TIP3    H127806   5.893   4.126   4.309 -0.5812 -3.3042 -2.3487
 2105TIP3    H227807   6.013   4.206   4.264  0.0806 -2.3004  1.0348
 2106TIP3   OH227808   0.812   4.028  14.660 -0.3676 -0.4661 -0.1249
 2106TIP3    H127809   0.772   4.091  14.720  1.7920  1.1005 -0.2571
 2106TIP3    H227810   0.777   3.943  14.688 -0.3508  0.3557  2.5625
 2107TIP3   OH227811   4.244   1.119  12.416  0.1950  0.2237 -0.0353
 2107TIP3    H127812   4.220   1.080  12.332 -0.6734 -1.4995  1.0063
 2107TIP3    H227813   4.321   1.070  12.444 -0.1175  0.1237  0.6551
 2108TIP3   OH227814   5.545   5.247   0.653  0.2416  0.2464 -0.0386
 2108TIP3    H127815   5.517   5.315   0.591  0.4775  0.8010  0.4579
 2108TIP3    H227816   5.504   5.272   0.736  0.3752 -0.1887  0.1593
 2109TIP3   OH227817   6.600   6.093  12.350 -0.4168 -0.1903 -0.1051
 2109TIP3    H127818   6.644   6.178  12.358 -1.2937  0.2128  0.4550
 2109TIP3    H227819   6.591   6.062  12.440  0.3026 -1.0928 -0.3322
 2110TIP3   OH227820   3.303   3.541   3.660 -0.3555 -0.4588  0.4012
 2110TIP3    H127821   3.213   3.546   3.692 -0.5321 -3.4636  0.5202
 2110TIP3    H227822   3.298   3.575   3.570 -1.5983 -0.5216  0.4399
 2111TIP3   OH227823   4.838   4.517   0.783  0.6454 -0.4003 -0.5322
 2111TIP3    H127824   4.825   4.429   0.820  1.0107 -0.3992 -0.3997
 2111TIP3    H227825   4.894   4.503   0.707  0.3092 -0.3398 -0.7901
 2112TIP3   OH227826   0.228   5.070  11.578 -0.1674 -0.8074  0.0641
 2112TIP3    H127827   0.156   5.013  11.605 -0.5389  0.7439  2.5411
 2112TIP3    H227828   0.229   5.139  11.644 -0.0766  2.3516 -3.1099
 2113TIP3   OH227829   0.006   2.370   4.060  0.0280 -0.1599  0.3547
 2113TIP3    H127830   0.023   2.436   4.127 -0.5664  0.3565  0.0057
 2113TIP3    H227831  -0.088   2.376   4.043  0.5662  1.6036 -2.4455
 2114TIP3   OH227832   0.836   1.043   0.351 -0.2197  0.2854  0.2608
 2114TIP3    H127833   0.882   1.124   0.330 -0.2049 -0.0331 -0.9389
 2114TIP3    H227834   0.744   1.067   0.351 -0.1432  0.6027  1.2583
 2115TIP3   OH227835   3.211   2.347   2.705 -0.2643 -0.1646  0.3311
 2115TIP3    H127836   3.141   2.408   2.728  1.2553  2.0224 -0.6163
 2115TIP3    H227837   3.214   2.285   2.777  0.4233  2.9435  3.0905
 2116TIP3   OH227838   4.154   4.077   0.057 -0.2236 -0.8837  0.5165
 2116TIP3    H127839   4.132   3.985   0.046 -1.2800 -0.7282  1.2839
 2116TIP3    H227840   4.073   4.124   0.038  0.4446 -0.0763 -0.3751
 2117TIP3   OH227841   1.814   3.268   5.010 -0.1536 -0.7569  0.2466
 2117TIP3    H127842   1.774   3.302   5.090 -2.9480 -0.1505 -1.3204
 2117TIP3    H227843   1.781   3.179   5.003 -1.4649 -0.1860 -1.1709
 2118TIP3   OH227844   2.678   0.295   4.473  0.1633  0.4797  0.1209
 2118TIP3    H127845   2.630   0.316   4.393 -0.4367 -0.8875  0.1147
 2118TIP3    H227846   2.698   0.202   4.465 -1.6214 -0.1440  2.4531
 2119TIP3   OH227847   0.548   1.651  13.102 -0.6096  0.5735  0.3092
 2119TIP3    H127848   0.626   1.608  13.067 -1.0748 -0.5967  0.6902
 2119TIP3    H227849   0.537   1.615  13.190 -0.9548  1.5500  0.6784
 2120TIP3   OH227850   3.304   4.630   0.069 -0.1785 -0.1661  0.1269
 2120TIP3    H127851   3.355   4.587   0.001  2.0982  0.7994  1.1743
 2120TIP3    H227852   3.363   4.636   0.144 -0.9188  3.3028  0.5452
 2121TIP3   OH227853   2.024   2.031   4.729  0.2278 -0.3387  0.2746
 2121TIP3    H127854   2.012   2.079   4.648 -0.2337 -3.7013 -1.7119
 2121TIP3    H227855   1.939   1.992   4.748  0.7444 -0.9029  1.5246
 2122TIP3   OH227856   1.637   2.575   5.640  0.4421 -0.0696 -0.2621
 2122TIP3    H127857   1.554   2.571   5.687 -0.8822  0.6650 -2.4336
 2122TIP3    H227858   1.628   2.652   5.583  1.9360 -0.9495 -1.7285
 2123TIP3   OH227859   5.172   2.145  13.024 -0.7975 -0.0389 -0.1641
 2123TIP3    H127860   5.233   2.132  13.097 -0.9731  0.1112  0.0087
 2123TIP3    H227861   5.215   2.103  12.949 -0.5380 -0.0418 -0.0142
 2124TIP3   OH227862   4.277   0.528  15.980 -0.1446 -0.1198 -0.2863
 2124TIP3    H127863   4.295   0.622  15.970  0.3038 -0.0140  1.3726
 2124TIP3    H227864   4.360   0.491  16.012  0.0996 -1.3258 -2.2273
 2125TIP3   OH227865   6.789   6.276   3.395  0.3869  0.2417 -0.5575
 2125TIP3    H127866   6.860   6.324   3.351  1.2964 -0.9025 -0.3656
 2125TIP3    H227867   6.832   6.198   3.431 -1.0364 -0.6358 -0.7320
 2126TIP3   OH227868   4.280   1.418  16.624  0.3990  0.3608  0.1949
 2126TIP3    H127869   4.272   1.512  16.607  1.8746  0.1254 -2.0959
 2126TIP3    H227870   4.363   1.408  16.670  0.6799  0.1088 -0.3557
 2127TIP3   OH227871   5.655   6.726  14.032 -0.1978  0.5661  0.9214
 2127TIP3    H127872   5.566   6.715  14.064 -0.8420 -0.0154 -0.9685
 2127TIP3    H227873   5.647   6.720  13.937  1.7776  1.1130  0.6902
 2128TIP3   OH227874   4.057   1.013   2.440  0.2319 -0.0349 -0.0626
 2128TIP3    H127875   4.115   1.060   2.499 -0.6870  0.3667  0.5355
 2128TIP3    H227876   4.115   0.964   2.383  1.1649  0.9324  0.0547
 2129TIP3   OH227877   2.605   1.421   6.223  0.1175 -0.0738 -0.4029
 2129TIP3    H127878   2.590   1.395   6.314 -1.8707  0.4794 -0.5487
 2129TIP3    H227879   2.667   1.494   6.228 -0.4535  0.3456  0.5381
 2130TIP3   OH227880   0.636   1.962   5.543  0.3572 -0.3417 -0.1017
 2130TIP3    H127881   0.609   2.022   5.612  2.0303  0.1038  0.1967
 2130TIP3    H227882   0.627   1.875   5.581 -1.4137 -0.2620 -0.2997
 2131TIP3   OH227883   4.307   3.674  14.334  0.3558  0.1244 -0.1687
 2131TIP3    H127884   4.386   3.710  14.374 -1.3585  1.0133  2.5008
 2131TIP3    H227885   4.277   3.743  14.273  1.1982  0.0970 -0.6175
 2132TIP3   OH227886   3.025   1.662   2.835  0.4355  0.0830 -0.1837
 2132TIP3    H127887   3.066   1.593   2.887 -1.0740 -0.5164  0.2139
 2132TIP3    H227888   3.098   1.721   2.813  1.7563 -1.6732 -0.6195
 2133TIP3   OH227889   0.501   5.704   5.880 -0.2094  0.4395  0.5907
 2133TIP3    H127890   0.558   5.779   5.862 -0.1445  0.9390  2.7018
 2133TIP3    H227891   0.532   5.669   5.963  1.4700 -3.6493 -1.6203
 2134TIP3   OH227892   1.612   3.948  11.714 -0.5037  0.3814 -0.0840
 2134TIP3    H127893   1.590   3.886  11.644 -0.0534 -0.0430  0.1439
 2134TIP3    H227894   1.546   4.017  11.707  1.4706  2.0552 -3.0186
 2135TIP3   OH227895   0.205   2.407   0.041  0.5395  0.8261  0.1244
 2135TIP3    H127896   0.146   2.480   0.059  0.0449  0.5411 -0.3304
 2135TIP3    H227897   0.166   2.362  -0.035  0.6196 -0.1473  0.6514
 2136TIP3   OH227898   0.127   1.001   5.043 -0.4058 -0.5072  0.3261
 2136TIP3    H127899   0.075   0.999   4.963  0.9677 -0.9413 -0.5814
 2136TIP3    H227900   0.064   1.015   5.113 -1.8311 -1.8264 -0.6605
 2137TIP3   OH227901   2.841   1.886  17.047 -0.3317  0.2639  0.5408
 2137TIP3    H127902   2.778   1.888  17.119  0.6081 -1.5682  1.4431
 2137TIP3    H227903   2.904   1.955  17.069 -1.1290  1.0490  0.4280
 2138TIP3   OH227904   5.695   3.111  14.989 -0.2990 -0.6344  0.0434
 2138TIP3    H127905   5.716   3.194  14.946  0.1375 -0.9931 -0.4499
 2138TIP3    H227906   5.768   3.053  14.965 -0.3641 -1.0175  0.7748
 2139TIP3   OH227907   1.297   5.282  16.383 -0.1660 -0.0186 -0.6457
 2139TIP3    H127908   1.321   5.230  16.306  0.7177 -0.8332  0.1779
 2139TIP3    H227909   1.217   5.241  16.415  0.1537 -0.4545 -0.4005
 2140TIP3   OH227910   4.450   4.699  14.576  0.0053  0.2792  0.1907
 2140TIP3    H127911   4.441   4.782  14.529  0.3592 -0.8794 -1.9744
 2140TIP3    H227912   4.534   4.707  14.623 -1.1089  2.0599  1.9659
 2141TIP3   OH227913   3.158   4.776   6.664 -0.1681  0.1506 -0.0760
 2141TIP3    H127914   3.079   4.784   6.717  0.1481  0.3942  0.3538
 2141TIP3    H227915   3.221   4.835   6.704  0.3183 -0.2327 -0.2659
 2142TIP3   OH227916   6.038   3.288  14.910  0.1785  0.4082 -0.9058
 2142TIP3    H127917   5.961   3.334  14.943  1.2940  0.7161  1.3841
 2142TIP3    H227918   6.108   3.354  14.915  0.5948  0.1493 -2.9921
 2143TIP3   OH227919   3.693   3.631   4.151 -0.8697 -0.1615  0.4106
 2143TIP3    H127920   3.781   3.662   4.129 -0.7471  0.3270  1.5594
 2143TIP3    H227921   3.706   3.540   4.178 -0.8935 -0.4681 -0.5679
 2144TIP3   OH227922   6.196   6.335   4.041  0.5709  0.6889  0.3044
 2144TIP3    H127923   6.139   6.381   4.102 -0.9276 -1.2024  0.4008
 2144TIP3    H227924   6.136   6.303   3.972  1.2909 -2.2279  0.9569
 2145TIP3   OH227925   4.879   4.769   1.086  0.2971 -0.5737  0.5114
 2145TIP3    H127926   4.834   4.766   1.002 -0.8903  0.9032  1.0762
 2145TIP3    H227927   4.814   4.740   1.150  0.3259  0.9435  1.2609
 2146TIP3   OH227928   0.586   6.741   4.123  0.5198  0.2781  0.4662
 2146TIP3    H127929   0.632   6.716   4.043 -1.7026  0.9752 -1.0645
 2146TIP3    H227930   0.514   6.797   4.093 -0.3088  0.6053  2.9608
 2147TIP3   OH227931   4.585   5.402   3.548 -0.3132  0.0271 -0.2151
 2147TIP3    H127932   4.544   5.454   3.479  0.3023  0.6022 -0.1528
 2147TIP3    H227933   4.617   5.467   3.611  0.4876 -0.4249 -0.1528
 2148TIP3   OH227934   5.701   2.588  16.407 -0.0056 -0.3486 -0.3094
 2148TIP3    H127935   5.780   2.555  16.449  0.5966  1.8885  0.4088
 2148TIP3    H227936   5.637   2.593  16.477 -1.1403 -3.0823 -1.0818
 2149TIP3   OH227937   1.800   2.766  15.004  0.3886  0.5721  0.2827
 2149TIP3    H127938   1.869   2.746  14.940  0.0817  0.8345 -0.1286
 2149TIP3    H227939   1.748   2.835  14.962 -0.4366  0.0044  0.3799
 2150TIP3   OH227940   4.928   0.113   1.368 -0.0007 -0.0887  0.1545
 2150TIP3    H127941   5.005   0.057   1.364  0.3918  0.5239 -0.8713
 2150TIP3    H227942   4.893   0.098   1.456  2.5360  1.2675  1.4543
 2151TIP3   OH227943   4.678   6.187  12.595  0.1610  0.5650  0.4521
 2151TIP3    H127944   4.655   6.275  12.625  0.4461  1.3117 -1.4997
 2151TIP3    H227945   4.764   6.196  12.556  1.4037 -1.1547  2.7028
 2152TIP3   OH227946   5.391   5.461   3.882  0.0686 -0.4015 -0.7361
 2152TIP3    H127947   5.393   5.367   3.900  0.7885 -0.3939 -0.7385
 2152TIP3    H227948   5.336   5.497   3.952  0.9718 -0.6568  0.1308
 2153TIP3   OH227949   1.705   5.127   5.365 -0.1998  0.0143  0.2709
 2153TIP3    H127950   1.784   5.089   5.403  1.0071  0.8020 -1.4162
 2153TIP3    H227951   1.662   5.055   5.321  0.9107  0.0892 -0.9736
 2154TIP3   OH227952   5.927   1.053   0.557  0.0315  0.2090 -0.4363
 2154TIP3    H127953   5.888   0.967   0.569  0.3335  0.2507  0.9213
 2154TIP3    H227954   5.857   1.106   0.517 -0.3048 -0.5242 -0.8277
 2155TIP3   OH227955   1.235   4.350   0.278  0.3394 -0.2642  0.6594
 2155TIP3    H127956   1.294   4.422   0.300  0.1714 -0.4486  1.7461
 2155TIP3    H227957   1.183   4.383   0.204  3.2694 -0.8932 -1.7915
 2156TIP3   OH227958   3.015   5.280   3.161  0.3064 -0.2437 -0.5605
 2156TIP3    H127959   2.986   5.221   3.091 -1.6350 -0.1623  0.1559
 2156TIP3    H227960   3.022   5.223   3.238 -2.4502  0.5742  0.3552
 2157TIP3   OH227961   3.185   2.928  14.668  0.2124  0.7499 -0.2385
 2157TIP3    H127962   3.126   2.935  14.593 -1.1762 -1.6624  0.5509
 2157TIP3    H227963   3.156   2.997  14.728  0.4921  1.8442 -1.3551
 2158TIP3   OH227964   2.858   0.928   2.933  0.3365 -0.2789  0.2439
 2158TIP3    H127965   2.809   1.010   2.942  0.2162 -0.1723 -1.2799
 2158TIP3    H227966   2.950   0.954   2.940  0.3247  0.0837 -0.7890
 2159TIP3   OH227967   0.278   1.099   0.403 -0.0132  0.8167 -0.3844
 2159TIP3    H127968   0.287   1.090   0.498 -0.4474  1.1506 -0.3135
 2159TIP3    H227969   0.191   1.064   0.384  0.2597  0.3117 -0.7212
 2160TIP3   OH227970   2.465   6.471   5.565 -0.7842 -0.9649 -0.4739
 2160TIP3    H127971   2.543   6.448   5.615 -0.3639  0.7334 -0.3218
 2160TIP3    H227972   2.440   6.389   5.520 -0.6383 -2.2623  1.7436
 2161TIP3   OH227973   3.111   2.709  11.295  0.0199 -0.5192  0.1124
 2161TIP3    H127974   3.043   2.674  11.237 -1.1789 -0.3452  1.3815
 2161TIP3    H227975   3.139   2.790  11.252  1.9891 -2.3596 -2.2426
 2162TIP3   OH227976   3.042   5.545   3.226 -1.0235  0.2071  1.2312
 2162TIP3    H127977   3.023   5.452   3.220 -1.3238  0.1435  2.9431
 2162TIP3    H227978   3.137   5.549   3.241 -0.3163  0.3573 -2.8029
 2163TIP3   OH227979   1.974   1.396  12.447 -0.4769  0.0283  0.2097
 2163TIP3    H127980   2.031   1.339  12.395 -0.4132  0.7730 -0.5726
 2163TIP3    H227981   2.002   1.384  12.537 -0.8456 -1.5905  0.1205
 2164TIP3   OH227982   1.841   6.209   0.416  0.1325 -0.5492  0.4708
 2164TIP3    H127983   1.800   6.123   0.409  1.3282 -0.9778 -1.8894
 2164TIP3    H227984   1.925   6.199   0.371  1.2341  1.2883  2.0508
 2165TIP3   OH227985   0.252   2.817   3.522  0.0819 -0.4464 -0.3948
 2165TIP3    H127986   0.216   2.731   3.501 -1.5066  0.2944 -0.7727
 2165TIP3    H227987   0.347   2.806   3.516 -0.1365 -2.0045 -1.0857
 2166TIP3   OH227988   6.396   4.271  17.251 -0.2220  0.6312  0.4721
 2166TIP3    H127989   6.461   4.206  17.277  1.3304  2.1066  0.3941
 2166TIP3    H227990   6.372   4.246  17.161 -0.4709 -0.4487  0.8249
 2167TIP3   OH227991   2.556   2.911   1.008 -0.3335  0.1494 -0.0438
 2167TIP3    H127992   2.599   2.994   1.025 -2.9558  1.7151 -0.6880
 2167TIP3    H227993   2.580   2.889   0.918  3.0566 -1.5651  1.1803
 2168TIP3   OH227994   1.755   3.152  16.218  0.4078 -0.0361  0.5042
 2168TIP3    H127995   1.845   3.121  16.207  0.7630  0.9256  0.6516
 2168TIP3    H227996   1.759   3.245  16.198 -0.9531 -0.3861 -1.4844
 2169TIP3   OH227997   0.855   6.116   2.601 -0.0329  0.0120 -0.1418
 2169TIP3    H127998   0.936   6.158   2.571  0.4298 -1.6628 -1.3448
 2169TIP3    H227999   0.790   6.140   2.535 -0.3756  0.8730  0.5080
 2170TIP3   OH228000   3.376   4.169   6.412  0.1195  0.0231  0.4882
 2170TIP3    H128001   3.403   4.123   6.492  2.1648  0.0770 -0.1482
 2170TIP3    H228002   3.405   4.111   6.341  0.6400  1.1995 -0.2635
 2171TIP3   OH228003   4.368   6.368   5.618  0.1141  0.3051  0.1157
 2171TIP3    H128004   4.334   6.454   5.643  0.7941  0.5945  0.0503
 2171TIP3    H228005   4.436   6.350   5.683 -0.2035 -0.3034  0.2887
 2172TIP3   OH228006   5.706   1.886   3.820  0.1402  0.2614  0.4032
 2172TIP3    H128007   5.782   1.850   3.773 -1.3937  0.7360 -2.5871
 2172TIP3    H228008   5.739   1.905   3.908  3.4984  0.5046 -0.8154
 2173TIP3   OH228009   2.549   0.121  13.566 -0.3268 -0.2303 -0.1568
 2173TIP3    H128010   2.588   0.208  13.561  1.0728 -0.8846 -1.1221
 2173TIP3    H228011   2.462   0.131  13.528  0.3014  0.5093 -1.4532
 2174TIP3   OH228012   0.426   4.318  17.042  0.0711  0.0761  0.0801
 2174TIP3    H128013   0.333   4.326  17.020  0.0463 -0.1627  0.0998
 2174TIP3    H228014   0.428   4.258  17.116  0.2138  0.3705  0.3110
 2175TIP3   OH228015   1.254   2.818  11.380  0.6200  0.2043 -0.4002
 2175TIP3    H128016   1.168   2.788  11.410 -0.1828 -0.4791 -3.1852
 2175TIP3    H228017   1.254   2.912  11.399 -0.0587 -0.0937  1.1516
 2176TIP3   OH228018   4.199   5.109  14.215 -0.1521  0.6398 -0.5124
 2176TIP3    H128019   4.131   5.067  14.162  1.1018 -0.1242 -1.5361
 2176TIP3    H228020   4.236   5.176  14.158  1.2235 -0.2004 -0.6043
 2177TIP3   OH228021   0.713   5.031  14.577 -0.9583  0.2902 -0.4150
 2177TIP3    H128022   0.722   5.034  14.482  1.1333 -1.3937 -0.3037
 2177TIP3    H228023   0.632   5.079  14.595 -1.1139  1.0617 -2.9918
 2178TIP3   OH228024   0.767   3.480   3.193  0.1263 -0.0334 -0.0391
 2178TIP3    H128025   0.798   3.409   3.251  0.4030 -0.5990 -0.8748
 2178TIP3    H228026   0.748   3.436   3.110  2.7335  1.2701 -1.3869
 2179TIP3   OH228027   0.282   2.124   3.736  0.0400 -0.1782 -0.8572
 2179TIP3    H128028   0.262   2.037   3.771 -0.3370  0.3585  0.2656
 2179TIP3    H228029   0.353   2.109   3.673  0.9767 -1.0976  0.4015
 2180TIP3   OH228030   1.215   2.608  12.756 -0.0186  0.7131  0.1177
 2180TIP3    H128031   1.258   2.622  12.672  1.3601  1.6454  0.9387
 2180TIP3    H228032   1.254   2.527  12.790  0.2225  0.9082  0.3162
 2181TIP3   OH228033   6.347   2.729   4.065  0.6229 -0.4897 -0.4098
 2181TIP3    H128034   6.424   2.680   4.036  0.5339  0.0105 -1.5199
 2181TIP3    H228035   6.345   2.806   4.009 -0.7368 -0.5320 -0.4326
 2182TIP3   OH228036   2.388   5.791  13.752 -0.1577  0.0705 -0.0638
 2182TIP3    H128037   2.467   5.802  13.805  0.1099  1.7702 -0.7644
 2182TIP3    H228038   2.400   5.853  13.679 -2.0812  0.2681 -0.2266
 2183TIP3   OH228039   6.244   0.792  13.592  0.0028 -0.5653  0.0704
 2183TIP3    H128040   6.306   0.780  13.664  0.2147  1.3782  0.2515
 2183TIP3    H228041   6.288   0.855  13.534 -1.5696  0.4035 -0.0812
 2184TIP3   OH228042   5.264   3.373  13.609 -0.9075 -0.0030 -0.1955
 2184TIP3    H128043   5.274   3.283  13.577 -2.4939  0.0816 -0.9714
 2184TIP3    H228044   5.347   3.392  13.652 -1.1144 -2.3856  1.3425
 2185TIP3   OH228045   5.575   5.623   0.200  0.1411  0.3854  0.1855
 2185TIP3    H128046   5.594   5.604   0.108 -0.8044  1.3081 -0.2093
 2185TIP3    H228047   5.500   5.682   0.197 -0.7719 -0.6749  1.6022
 2186TIP3   OH228048   0.462   6.249   3.686  0.8683 -0.1708  0.3954
 2186TIP3    H128049   0.508   6.297   3.755  1.4244 -1.0665  0.6496
 2186TIP3    H228050   0.442   6.315   3.620  0.0732  0.7637  1.5418
 2187TIP3   OH228051   1.251   4.590   2.844  0.4750  0.3413  0.6834
 2187TIP3    H128052   1.191   4.664   2.837 -0.1016 -0.2644 -0.8301
 2187TIP3    H228053   1.322   4.622   2.899  0.3340  2.0881 -0.1447
 2188TIP3   OH228054   1.495   1.252  13.989  0.7900  0.7564 -0.5583
 2188TIP3    H128055   1.486   1.161  13.963  1.0109  0.8747 -1.0596
 2188TIP3    H228056   1.585   1.275  13.963  0.8176  1.0402 -0.2126
 2189TIP3   OH228057   2.415   5.973  17.065 -0.2654  0.5411 -0.1495
 2189TIP3    H128058   2.425   5.931  17.150 -0.7434  0.7600  0.0187
 2189TIP3    H228059   2.480   6.044  17.066  0.6898 -0.3112 -0.5154
 2190TIP3   OH228060   5.305   0.125   4.121 -0.0422 -0.3464 -0.1862
 2190TIP3    H128061   5.347   0.211   4.124 -0.8591  0.0307  0.9951
 2190TIP3    H228062   5.317   0.096   4.030  1.2047  0.5202 -0.3149
 2191TIP3   OH228063   3.801   1.754   2.929  0.1477 -0.5018  0.1691
 2191TIP3    H128064   3.706   1.743   2.936  0.4242 -2.3408  1.1784
 2191TIP3    H228065   3.833   1.740   3.018  1.4894 -1.1516 -0.4082
 2192TIP3   OH228066   5.715   5.233  12.458 -0.4513 -0.0013  0.7224
 2192TIP3    H128067   5.790   5.182  12.427  0.2091  0.2775  1.8209
 2192TIP3    H228068   5.746   5.274  12.539 -0.6951  2.7437 -0.5178
 2193TIP3   OH228069   5.907   0.131   5.296  0.6859  0.1010 -0.2935
 2193TIP3    H128070   5.992   0.163   5.265  0.8809 -0.2259 -0.0954
 2193TIP3    H228071   5.880   0.193   5.363  0.2751  0.8004 -1.0931
 2194TIP3   OH228072   2.424   5.147   4.607 -0.4328  0.5595  0.3120
 2194TIP3    H128073   2.517   5.140   4.586 -0.6762  0.0423 -0.6119
 2194TIP3    H228074   2.396   5.229   4.567 -0.6158  0.1767 -0.3603
 2195TIP3   OH228075   2.100   1.533   3.299  0.3994  0.0645 -0.1496
 2195TIP3    H128076   2.129   1.624   3.293  1.6952 -0.2678  0.9204
 2195TIP3    H228077   2.020   1.530   3.246  0.0639  1.9415  0.2078
 2196TIP3   OH228078   1.112   3.089   0.777  0.3935 -0.2257  0.0160
 2196TIP3    H128079   1.087   3.143   0.852  1.6250 -0.7116  0.7918
 2196TIP3    H228080   1.095   2.999   0.806 -0.5127 -0.3414 -0.8371
 2197TIP3   OH228081   4.380   0.752   1.039 -0.1113  0.8155 -0.0771
 2197TIP3    H128082   4.316   0.681   1.050  0.9575 -0.3425 -1.1618
 2197TIP3    H228083   4.454   0.710   0.996  0.1594  2.8065 -1.6022
 2198TIP3   OH228084   2.197   6.375  11.246 -0.0910 -0.2840  0.4022
 2198TIP3    H128085   2.196   6.377  11.342 -0.1616 -1.0842  0.4184
 2198TIP3    H228086   2.281   6.416  11.222 -0.3192  0.4100  0.7896
 2199TIP3   OH228087   3.926   3.709  15.977 -0.2776  0.3300  0.0153
 2199TIP3    H128088   3.994   3.769  16.007  0.2237  0.6013 -1.6305
 2199TIP3    H228089   3.843   3.754  15.995  0.0621  1.0748 -0.3166
 2200TIP3   OH228090   6.737   3.756  11.426  0.1310 -0.2074 -0.1976
 2200TIP3    H128091   6.730   3.755  11.521 -0.7519 -0.7073 -0.2677
 2200TIP3    H228092   6.678   3.687  11.397  0.8418 -0.4511 -1.0787
 2201TIP3   OH228093   0.268   4.110   2.570 -0.3586 -0.2370 -0.0723
 2201TIP3    H128094   0.234   4.144   2.487  0.8328 -2.2632 -1.4227
 2201TIP3    H228095   0.192   4.069   2.612 -0.9235  0.6365 -0.2239
 2202TIP3   OH228096   0.446   4.681  11.001  0.4400 -0.6803  0.3162
 2202TIP3    H128097   0.466   4.745  11.068 -2.4403  1.0107 -0.3932
 2202TIP3    H228098   0.504   4.704  10.928 -2.1692  2.5974 -0.7929
 2203TIP3   OH228099   5.975   4.387  13.057  0.2927  0.1523 -0.0122
 2203TIP3    H128100   5.977   4.292  13.065  1.0037  0.2649  1.1112
 2203TIP3    H228101   5.925   4.403  12.977  2.5110 -1.2507 -1.7418
 2204TIP3   OH228102   6.227   6.753  11.356  0.2924 -0.4192  0.0497
 2204TIP3    H128103   6.237   6.693  11.431 -1.5038 -0.7557  0.0388
 2204TIP3    H228104   6.212   6.838  11.396 -0.1636 -0.5076  0.0613
 2205TIP3   OH228105   0.940   6.622  15.965  0.1401 -0.2375 -0.1881
 2205TIP3    H128106   0.861   6.570  15.950  0.0474 -0.4014  0.8052
 2205TIP3    H228107   1.008   6.557  15.981  0.2950 -0.0808 -0.2167
 2206TIP3   OH228108   3.159   4.673   2.598 -0.3091 -0.2761 -0.4535
 2206TIP3    H128109   3.086   4.612   2.609 -1.7472  1.6908  1.1937
 2206TIP3    H228110   3.229   4.620   2.559 -1.7802 -2.7620  0.2031
 2207TIP3   OH228111   4.000   2.643  13.528  0.3278 -0.1772  0.0759
 2207TIP3    H128112   3.971   2.725  13.488  0.3631 -0.8817 -1.4329
 2207TIP3    H228113   3.921   2.589  13.533  0.5023 -0.4293  0.1274
 2208TIP3   OH228114   1.507   4.362  14.435  0.0391  0.3008 -0.7103
 2208TIP3    H128115   1.570   4.327  14.497 -2.0135 -1.9451  0.1964
 2208TIP3    H228116   1.529   4.321  14.352 -0.2960 -0.5864 -0.3661
 2209TIP3   OH228117   2.351   0.603  11.429  0.0754  0.5383 -0.0875
 2209TIP3    H128118   2.259   0.584  11.448  0.6024 -1.1560  0.9328
 2209TIP3    H228119   2.379   0.658  11.502 -0.0732  0.8889 -0.2942
 2210TIP3   OH228120   4.114   0.412   1.468  0.7677 -0.5150 -0.1166
 2210TIP3    H128121   4.206   0.436   1.479  0.5203  1.5077 -2.1255
 2210TIP3    H228122   4.069   0.495   1.451 -1.0868 -1.7062 -1.2675
 2211TIP3   OH228123   4.197   0.910  11.042  0.6156  0.2686 -0.3773
 2211TIP3    H128124   4.146   0.965  10.982  0.2148 -1.6550 -1.8551
 2211TIP3    H228125   4.284   0.950  11.044  0.7157  0.2133 -2.4702
 2212TIP3   OH228126   1.394   5.489  10.555 -0.2788  0.3235  0.1739
 2212TIP3    H128127   1.451   5.427  10.508 -0.5460  0.1942  0.0202
 2212TIP3    H228128   1.305   5.464  10.529 -0.3517  1.2707 -0.4921
 2213TIP3   OH228129   3.011   0.027   3.196 -0.0456 -0.1465  0.3532
 2213TIP3    H128130   3.097   0.061   3.174  0.6820 -0.1002  3.0748
 2213TIP3    H228131   3.027  -0.038   3.264 -2.1043 -0.4529  0.5964
 2214TIP3   OH228132   0.093   4.592   3.197  0.1475  0.1803  0.4059
 2214TIP3    H128133   0.049   4.660   3.146  0.2906  1.0765  1.4676
 2214TIP3    H228134   0.138   4.539   3.131 -0.2961  0.8652 -0.4643
 2215TIP3   OH228135   4.606   2.974   6.170  0.1302 -0.3282  0.2925
 2215TIP3    H128136   4.632   2.899   6.117 -0.0860 -0.8653  0.9476
 2215TIP3    H228137   4.688   3.004   6.210  0.2647 -0.0330 -0.1940
 2216TIP3   OH228138   4.717   3.592   2.328  0.3946  0.1007 -0.0767
 2216TIP3    H128139   4.765   3.675   2.322 -2.4681  1.8840  0.5214
 2216TIP3    H228140   4.761   3.545   2.398  3.0339  0.4266 -1.4665
 2217TIP3   OH228141   3.292   0.390  15.345 -0.2976  0.1365  0.2202
 2217TIP3    H128142   3.300   0.361  15.436  1.6887 -2.4016 -0.6844
 2217TIP3    H228143   3.370   0.444  15.330  0.1923 -0.7260 -0.3909
 2218TIP3   OH228144   6.433   5.219  12.742 -0.0696  0.0565 -0.6241
 2218TIP3    H128145   6.411   5.127  12.727  0.1099  0.0277 -0.7289
 2218TIP3    H228146   6.444   5.226  12.837  1.2758 -0.3574 -0.7264
 2219TIP3   OH228147   4.039   1.162  14.684  0.5430  0.3098 -0.8743
 2219TIP3    H128148   4.062   1.153  14.776  0.2373  2.1743 -0.5933
 2219TIP3    H228149   4.070   1.249  14.660  2.0104 -0.7278 -2.9634
 2220TIP3   OH228150   0.475   1.939   3.593  0.0139 -0.4593 -0.0154
 2220TIP3    H128151   0.526   1.986   3.659  0.3928 -1.6930  0.5988
 2220TIP3    H228152   0.452   1.856   3.636 -1.7319 -0.2934 -0.6234
 2221TIP3   OH228153   0.976   3.862   3.977  0.6262  0.6317  0.2688
 2221TIP3    H128154   0.993   3.768   3.981  1.4305  0.7767  0.3068
 2221TIP3    H228155   1.057   3.903   4.006  0.2226  1.3389  0.4288
 2222TIP3   OH228156   3.367   6.453  11.492  0.7042  0.2670 -0.9206
 2222TIP3    H128157   3.389   6.423  11.404  1.0442  0.3760 -0.8715
 2222TIP3    H228158   3.289   6.507  11.480 -0.6542 -1.6355 -0.8619
 2223TIP3   OH228159   6.723   2.217   0.874  0.3876  0.2992  0.0448
 2223TIP3    H128160   6.639   2.206   0.830  0.5614  0.4124 -0.3177
 2223TIP3    H228161   6.755   2.302   0.845  0.9399 -0.0409 -0.3504
 2224TIP3   OH228162   4.674   2.962  15.998 -0.3229  0.3922  0.1299
 2224TIP3    H128163   4.699   3.005  15.917 -1.6094 -0.4542 -0.7258
 2224TIP3    H228164   4.722   2.879  15.997 -3.0348 -1.2130 -1.4888
 2225TIP3   OH228165   5.662   6.771   3.978  0.2168 -0.2620  0.4372
 2225TIP3    H128166   5.736   6.830   3.971 -0.1275 -0.0727 -1.9706
 2225TIP3    H228167   5.601   6.800   3.910 -0.1025 -3.1411 -0.5935
 2226TIP3   OH228168   0.581   1.182  11.275 -0.3575  0.0552 -0.9902
 2226TIP3    H128169   0.665   1.218  11.302 -0.2461 -1.1048  0.2941
 2226TIP3    H228170   0.585   1.179  11.180  1.8186 -1.6957 -0.8915
 2227TIP3   OH228171   1.601   5.964   3.035  0.3246  0.7862  0.3390
 2227TIP3    H128172   1.650   5.985   2.955  0.0424  0.5692  0.1078
 2227TIP3    H228173   1.509   5.961   3.006  0.5502 -3.4649 -0.2187
 2228TIP3   OH228174   6.149   0.809  13.082  0.0624 -0.6648 -0.3693
 2228TIP3    H128175   6.079   0.767  13.131 -0.2050  0.8601  0.5904
 2228TIP3    H228176   6.170   0.748  13.011 -0.1890 -2.4634  1.0908
 2229TIP3   OH228177   3.163   1.555  11.774 -0.3864  0.0135 -0.2982
 2229TIP3    H128178   3.180   1.551  11.680  0.3636 -0.7491 -0.1391
 2229TIP3    H228179   3.146   1.464  11.798 -0.8263  0.2436  0.2569
 2230TIP3   OH228180   3.626   0.513   3.132  0.2548 -0.2982 -0.1661
 2230TIP3    H128181   3.603   0.509   3.225  0.7317  1.8745  0.0880
 2230TIP3    H228182   3.542   0.510   3.086  0.0676 -2.2165  0.2847
 2231TIP3   OH228183   0.042   0.971  15.909  0.1359 -0.4492  0.2044
 2231TIP3    H128184  -0.026   0.905  15.900 -1.0850  0.5772  1.7523
 2231TIP3    H228185   0.088   0.948  15.990 -0.5065  0.7658  0.9268
 2232TIP3   OH228186   6.562   5.077   4.189  0.6325 -0.8259 -0.7192
 2232TIP3    H128187   6.636   5.017   4.197  2.1755  1.0503 -0.6130
 2232TIP3    H228188   6.562   5.102   4.096  1.2375  0.5302 -0.3653
 2233TIP3   OH228189   4.128   4.904   1.886 -0.0046  0.4146  0.0687
 2233TIP3    H128190   4.147   4.819   1.926  1.4929  1.3229  1.3366
 2233TIP3    H228191   4.187   4.909   1.811 -0.5123  0.0883 -0.3537
 2234TIP3   OH228192   3.950   6.658   2.829  0.5992  0.2897  0.4852
 2234TIP3    H128193   3.859   6.688   2.832  0.7856  0.9762 -0.4829
 2234TIP3    H228194   3.957   6.595   2.901 -0.5913  0.3690  0.6799
 2235TIP3   OH228195   2.630   4.721   0.274 -0.0436 -0.2609  0.2191
 2235TIP3    H128196   2.613   4.627   0.269  0.7313 -0.4669  1.4488
 2235TIP3    H228197   2.718   4.728   0.309 -0.1798  0.9305  0.3414
 2236TIP3   OH228198   6.442   5.540  16.922  0.0869 -0.3319  0.3327
 2236TIP3    H128199   6.355   5.578  16.935  0.0133 -0.4943  0.3166
 2236TIP3    H228200   6.493   5.609  16.879 -0.0914 -0.3075  0.1637
 2237TIP3   OH228201   0.456   6.615   2.390 -0.3091  0.5301 -0.7908
 2237TIP3    H128202   0.437   6.660   2.471  1.5859  1.3297 -0.7603
 2237TIP3    H228203   0.451   6.522   2.412 -0.8563  0.7412 -0.0261
 2238TIP3   OH228204   4.254   0.614  12.011 -0.0257  0.5484  0.0187
 2238TIP3    H128205   4.292   0.527  12.024  0.4215  0.9677  1.5811
 2238TIP3    H228206   4.322   0.675  12.042 -0.7705  1.4195 -0.0320
 2239TIP3   OH228207   6.259   6.474   0.905 -0.0005  0.3291  0.3236
 2239TIP3    H128208   6.275   6.396   0.957  0.1027 -0.5244 -0.9443
 2239TIP3    H228209   6.173   6.458   0.866  1.1746 -0.4009 -2.0749
 2240TIP3   OH228210   3.825   5.055   5.693  0.6508  0.2899 -0.4348
 2240TIP3    H128211   3.752   5.003   5.728 -1.6831  3.4815 -0.2882
 2240TIP3    H228212   3.864   4.999   5.626 -1.3614 -1.9018  0.1390
 2241TIP3   OH228213   3.853   6.449  13.809  0.2821  0.0055 -0.2567
 2241TIP3    H128214   3.923   6.510  13.786 -1.5247  2.1822 -0.1334
 2241TIP3    H228215   3.852   6.448  13.904  0.5336 -0.4958 -0.2586
 2242TIP3   OH228216   1.154   0.501  14.277  0.2003  0.1342 -0.9290
 2242TIP3    H128217   1.149   0.577  14.220 -1.0593 -0.8760 -2.1918
 2242TIP3    H228218   1.245   0.473  14.271  1.2027  2.7089  1.1533
 2243TIP3   OH228219   4.826   3.863  15.757 -0.4160  0.0891 -0.1194
 2243TIP3    H128220   4.783   3.778  15.768  2.4638 -1.5118 -0.8370
 2243TIP3    H228221   4.841   3.893  15.847 -1.1090 -0.2949  0.1360
 2244TIP3   OH228222   6.484   4.434  11.718 -0.5391  0.2097  0.5108
 2244TIP3    H128223   6.409   4.491  11.700 -0.2724  0.5044  0.3334
 2244TIP3    H228224   6.454   4.378  11.789 -1.6642 -1.1008 -0.9639
 2245TIP3   OH228225   1.116   3.459  17.287 -0.2031  0.3662 -0.2325
 2245TIP3    H128226   1.022   3.467  17.268 -0.1726 -0.4067 -0.7516
 2245TIP3    H228227   1.159   3.508  17.217 -0.1938 -0.0587 -0.5298
 2246TIP3   OH228228   2.018   3.465   6.637 -0.5539  0.8805  0.2224
 2246TIP3    H128229   1.964   3.393   6.607 -0.9592  0.5853  1.6158
 2246TIP3    H228230   1.964   3.509   6.703  1.0654  0.3097  1.9533
 2247TIP3   OH228231   4.691   1.787   2.566 -0.0618  0.2137 -0.5064
 2247TIP3    H128232   4.684   1.862   2.624  0.7410 -0.3790  0.3566
 2247TIP3    H228233   4.667   1.712   2.620 -1.5644 -0.0739 -1.5567
 2248TIP3   OH228234   0.651   2.084  14.832  0.1148  0.2066  0.8407
 2248TIP3    H128235   0.694   2.055  14.752  1.1630  1.7070  0.8477
 2248TIP3    H228236   0.599   2.008  14.860 -1.1174  0.0103 -1.8193
 2249TIP3   OH228237   6.423   6.371  13.610  0.2570  0.1352  0.2922
 2249TIP3    H128238   6.414   6.279  13.586  0.4225  0.5389 -1.4200
 2249TIP3    H228239   6.517   6.385  13.620  0.4410  0.6862 -1.9379
 2250TIP3   OH228240   3.081   0.756  15.481 -0.3266  0.7092  0.3418
 2250TIP3    H128241   3.030   0.835  15.461 -2.3539 -0.1750  1.8654
 2250TIP3    H228242   3.017   0.685  15.480  0.8905 -0.4614  2.0658
 2251TIP3   OH228243   3.216   5.370   2.484 -0.3014 -0.0417 -0.0857
 2251TIP3    H128244   3.223   5.298   2.547  0.2819  0.1235  0.0458
 2251TIP3    H228245   3.149   5.428   2.521 -1.4121 -0.9614 -0.6436
 2252TIP3   OH228246   3.723   1.696   1.480 -0.0931  0.2362  0.0121
 2252TIP3    H128247   3.724   1.752   1.557 -0.7439  1.7560 -1.0656
 2252TIP3    H228248   3.632   1.669   1.471  0.0657 -0.3266  0.0356
 2253TIP3   OH228249   4.176   3.997  12.394 -0.3064  0.2642 -0.3277
 2253TIP3    H128250   4.267   3.968  12.402 -0.5568  0.0409  2.4298
 2253TIP3    H228251   4.140   3.947  12.321  1.2136 -1.1602 -0.1150
 2254TIP3   OH228252   6.332   1.553  17.106 -0.5089  0.0243  0.1810
 2254TIP3    H128253   6.354   1.639  17.144 -0.3141  0.2024 -0.3396
 2254TIP3    H228254   6.303   1.502  17.181  0.5123  0.1667  0.6874
 2255TIP3   OH228255   6.675   4.517  14.885 -0.8120  0.5034  0.6444
 2255TIP3    H128256   6.634   4.430  14.890  0.0277  0.1646  1.7610
 2255TIP3    H228257   6.628   4.570  14.948 -1.0905  0.7646  0.2168
 2256TIP3   OH228258   5.560   2.911  13.911  0.1583 -0.6088 -0.1818
 2256TIP3    H128259   5.496   2.939  13.845  0.0892 -1.1496 -0.3501
 2256TIP3    H228260   5.570   2.817  13.896 -0.8684 -0.9988  1.4634
 2257TIP3   OH228261   0.658   1.602  15.276  0.1167 -0.0576 -0.2832
 2257TIP3    H128262   0.709   1.680  15.255 -0.5983  0.4430 -0.1712
 2257TIP3    H228263   0.684   1.538  15.210 -1.1186  1.0607 -1.8848
 2258TIP3   OH228264   0.767   2.996   1.102  0.1337 -0.1571 -0.8724
 2258TIP3    H128265   0.773   2.934   1.029 -2.3953 -0.4420 -0.8893
 2258TIP3    H228266   0.745   3.080   1.060 -0.6849 -0.1832 -0.5014
 2259TIP3   OH228267   1.823   0.461   1.727 -0.5836 -0.5215  0.7012
 2259TIP3    H128268   1.821   0.414   1.810  0.7895  0.9376  1.5759
 2259TIP3    H228269   1.770   0.407   1.668 -0.7863 -2.0589  2.2507
 2260TIP3   OH228270   1.409   6.151  12.469  0.0928  0.1563  0.5330
 2260TIP3    H128271   1.487   6.108  12.504  1.6711  1.8199 -0.7687
 2260TIP3    H228272   1.346   6.150  12.540  0.3316 -3.6194  0.7602
 2261TIP3   OH228273   0.990   1.167  11.622 -0.0772 -0.4021  0.3595
 2261TIP3    H128274   0.960   1.181  11.532 -0.1075 -0.0276  0.4235
 2261TIP3    H228275   0.968   1.249  11.667  0.6642 -0.2797  0.5101
 2262TIP3   OH228276   2.490   2.878   5.324 -0.1515 -0.1308 -0.6280
 2262TIP3    H128277   2.414   2.861   5.379  0.1675 -1.3514 -0.5527
 2262TIP3    H228278   2.478   2.968   5.294 -1.3361 -0.1244 -0.1673
 2263TIP3   OH228279   0.638   5.934  10.341  0.0722  0.2771 -0.6721
 2263TIP3    H128280   0.684   6.005  10.296 -1.0499  2.6743  1.8140
 2263TIP3    H228281   0.549   5.937  10.308  0.0717 -0.1323 -0.7170
 2264TIP3   OH228282   3.320   0.006   4.508  0.1084 -0.0319 -0.1476
 2264TIP3    H128283   3.318  -0.045   4.427  0.9007  0.4698 -0.4809
 2264TIP3    H228284   3.367  -0.050   4.570 -1.4624 -0.8890  0.2981
 2265TIP3   OH228285   6.306   1.881  10.956  0.7641 -0.2618  0.2984
 2265TIP3    H128286   6.282   1.966  10.918  0.4191  0.2260  1.5669
 2265TIP3    H228287   6.233   1.823  10.932 -0.1574  0.4068  1.4091
 2266TIP3   OH228288   1.076   4.793   0.921 -0.4517  0.0808  0.2222
 2266TIP3    H128289   1.141   4.788   0.851 -0.6115  0.6943  0.0226
 2266TIP3    H228290   1.036   4.706   0.924  0.3656 -0.2909  0.3361
 2267TIP3   OH228291   2.234   4.720  16.115  0.2899 -0.5309  0.4551
 2267TIP3    H128292   2.233   4.806  16.074 -1.3253  0.4740  2.5171
 2267TIP3    H228293   2.306   4.674  16.072 -0.7619  0.7471 -2.8503
 2268TIP3   OH228294   2.184   0.217  17.200  0.3997  0.0569 -0.0251
 2268TIP3    H128295   2.200   0.123  17.188  1.4556  0.3462 -0.9975
 2268TIP3    H228296   2.121   0.239  17.132  1.1307  0.2998 -0.6357
 2269TIP3   OH228297   5.152   1.594   4.980  0.2106 -0.1824 -0.2266
 2269TIP3    H128298   5.189   1.593   5.068  0.2444  0.0145 -0.2384
 2269TIP3    H228299   5.210   1.652   4.930  0.5483 -0.7773 -0.5352
 2270TIP3   OH228300   3.683   2.002   0.030 -0.2425 -0.7726 -0.0926
 2270TIP3    H128301   3.692   2.024  -0.063 -0.6319  0.1692  0.0816
 2270TIP3    H228302   3.753   2.050   0.073  0.4218 -1.8266  0.0154
 2271TIP3   OH228303   6.009   6.342  13.120  0.0156 -0.2155 -0.7172
 2271TIP3    H128304   5.959   6.423  13.106  0.0641 -0.1611 -0.5767
 2271TIP3    H228305   6.069   6.338  13.045  1.3800  0.9051  0.2695
 2272TIP3   OH228306   4.040   4.612   0.628 -0.1927  0.2001 -0.1846
 2272TIP3    H128307   3.992   4.677   0.679 -0.5806  0.3788 -0.7628
 2272TIP3    H228308   3.992   4.607   0.545 -0.0259 -0.6474 -0.2386
 2273TIP3   OH228309   6.775   6.017   1.188  0.0516 -0.0398  0.4963
 2273TIP3    H128310   6.785   6.056   1.275 -1.0369 -1.8849  1.4808
 2273TIP3    H228311   6.836   5.943   1.188  0.1600  0.0419 -0.3734
 2274TIP3   OH228312   5.068   0.318   5.220 -0.6005 -0.4998  0.6802
 2274TIP3    H128313   5.164   0.326   5.221 -0.5971 -0.3397 -0.4603
 2274TIP3    H228314   5.039   0.398   5.176 -1.1644 -1.4857 -0.7426
 2275TIP3   OH228315   2.036   2.485   5.839  0.6785 -0.0673  0.1100
 2275TIP3    H128316   1.944   2.456   5.839  1.0791 -1.4555 -0.8417
 2275TIP3    H228317   2.035   2.568   5.792 -0.4645  1.3251  2.5450
 2276TIP3   OH228318   0.704   3.244  17.155  0.1097  0.2005  0.3015
 2276TIP3    H128319   0.623   3.218  17.200 -0.0751  0.0437 -0.1194
 2276TIP3    H228320   0.691   3.216  17.065 -0.0419  1.6541 -0.1393
 2277TIP3   OH228321   3.976   5.804  12.109 -0.3531  0.2162  0.0107
 2277TIP3    H128322   4.029   5.812  12.029 -1.9092  1.4906 -0.9134
 2277TIP3    H228323   4.034   5.760  12.172  1.2639  0.1940 -1.4674
 2278TIP3   OH228324   0.870   6.814  10.631  0.4717 -0.0999  0.0948
 2278TIP3    H128325   0.882   6.905  10.656 -0.6595 -0.2343  1.1949
 2278TIP3    H228326   0.954   6.788  10.594  1.1057  1.1139  0.6540
 2279TIP3   OH228327   0.564   5.252   1.290 -0.1014 -0.0540  0.2218
 2279TIP3    H128328   0.494   5.228   1.351 -1.2446  0.2770 -0.9411
 2279TIP3    H228329   0.620   5.175   1.286 -0.5044 -0.3966  1.0168
 2280TIP3   OH228330   5.000   3.726  13.624 -0.5229  0.0594 -0.1124
 2280TIP3    H128331   5.019   3.820  13.629  0.9673 -0.2472  0.4231
 2280TIP3    H228332   4.908   3.719  13.647 -0.1541  1.2128  1.8907
 2281TIP3   OH228333   2.468   5.084   0.864  0.3791  0.4132  0.4562
 2281TIP3    H128334   2.551   5.129   0.880  0.4596 -0.5374  2.8540
 2281TIP3    H228335   2.494   4.993   0.848 -0.0697  0.4808 -0.6835
 2282TIP3   OH228336   6.725   4.108   4.824 -0.1613  0.7033  0.0458
 2282TIP3    H128337   6.674   4.179   4.785 -1.7676 -0.4790 -0.0779
 2282TIP3    H228338   6.660   4.056   4.872  1.4211  0.9042  2.5025
 2283TIP3   OH228339   5.970   3.196  16.798 -0.0325 -0.7499  0.6624
 2283TIP3    H128340   6.045   3.204  16.856  1.0135  1.1755 -0.8855
 2283TIP3    H228341   6.006   3.162  16.716 -0.5175  1.8043 -0.6545
 2284TIP3   OH228342   0.262   4.145  12.066  0.0146 -0.0841 -0.1170
 2284TIP3    H128343   0.232   4.193  12.143 -1.0718 -0.0548 -0.5545
 2284TIP3    H228344   0.279   4.056  12.098 -0.6309 -0.1271  0.1146
 2285TIP3   OH228345   5.991   0.958  16.158 -0.4369  0.3377  0.4131
 2285TIP3    H128346   5.912   0.904  16.149 -1.3569  1.6075  0.6236
 2285TIP3    H228347   5.996   0.976  16.252  0.1059  0.2812  0.3950
 2286TIP3   OH228348   0.579   2.108   1.227  0.2649  0.2500  0.3704
 2286TIP3    H128349   0.566   2.030   1.281 -2.3578 -0.4304 -1.1579
 2286TIP3    H228350   0.521   2.174   1.264 -1.5686 -0.2276 -1.5510
 2287TIP3   OH228351   5.947   0.473  14.713 -0.1208 -0.5040 -0.3520
 2287TIP3    H128352   5.884   0.419  14.761  0.1392 -0.4615  0.0396
 2287TIP3    H228353   5.975   0.539  14.776 -0.4434  0.0884 -0.8333
 2288TIP3   OH228354   0.065   0.865  16.358  0.1276  0.5146  0.0376
 2288TIP3    H128355   0.071   0.823  16.444 -1.3387  1.2878  0.5371
 2288TIP3    H228356  -0.019   0.911  16.360 -0.1198  0.1865 -1.9659
 2289TIP3   OH228357   1.270   4.847  11.592  0.4879 -0.3462  0.0939
 2289TIP3    H128358   1.188   4.798  11.595  1.0786 -1.3610 -0.3978
 2289TIP3    H228359   1.278   4.875  11.501  0.7470 -0.3448  0.1165
 2290TIP3   OH228360   0.382   1.520  15.304  0.1612 -0.1166  0.2585
 2290TIP3    H128361   0.473   1.547  15.289  0.2164 -1.6211 -2.3466
 2290TIP3    H228362   0.388   1.434  15.346 -0.0343 -0.7593 -1.0003
 2291TIP3   OH228363   6.438   5.543  11.729  0.0630  0.2397 -0.0012
 2291TIP3    H128364   6.362   5.517  11.677  0.0078  0.1270  0.1362
 2291TIP3    H228365   6.498   5.468  11.724 -0.1248  0.0572  0.4489
 2292TIP3   OH228366   4.275   2.277   2.432 -0.3514  0.2825  0.3261
 2292TIP3    H128367   4.190   2.279   2.388  0.2769 -1.9029 -1.1171
 2292TIP3    H228368   4.269   2.204   2.493  1.1417 -1.2934 -1.3232
 2293TIP3   OH228369   4.060   4.677   4.234  0.1135  0.3650 -0.4771
 2293TIP3    H128370   3.994   4.607   4.230  0.4012 -0.0781  1.8967
 2293TIP3    H228371   4.055   4.718   4.148 -0.9767 -1.7420 -1.4840
 2294TIP3   OH228372   4.793   0.283  15.111 -0.0833 -0.1061 -0.1787
 2294TIP3    H128373   4.794   0.286  15.206 -2.0082  2.6424 -0.1748
 2294TIP3    H228374   4.860   0.346  15.084 -0.7275  0.4036 -0.6147
 2295TIP3   OH228375   5.160   1.055  16.503  0.3847 -0.4134 -0.7332
 2295TIP3    H128376   5.099   1.007  16.446 -2.0638 -1.2574  2.4204
 2295TIP3    H228377   5.211   0.986  16.546 -1.3151 -0.1083  1.8441
 2296TIP3   OH228378   6.708   1.437  14.072 -0.1404 -0.8765  0.1810
 2296TIP3    H128379   6.787   1.405  14.028 -0.4173 -1.6665  0.2370
 2296TIP3    H228380   6.695   1.375  14.144 -0.1497 -0.0702  0.8818
 2297TIP3   OH228381   3.577   6.590   0.865 -0.4335 -0.5540  0.2687
 2297TIP3    H128382   3.650   6.626   0.916  0.0698 -1.2157  0.0213
 2297TIP3    H228383   3.499   6.628   0.905  0.1600  2.2956 -1.1656
 2298TIP3   OH228384   1.998   3.232  12.419 -0.3685 -0.2253  0.0206
 2298TIP3    H128385   1.974   3.159  12.362 -0.1969 -0.1889 -0.0984
 2298TIP3    H228386   1.953   3.214  12.502 -0.3968 -0.4185 -0.0372
 2299TIP3   OH228387   5.701   0.809   6.022 -0.3676 -0.0853  0.2323
 2299TIP3    H128388   5.620   0.759   6.017 -0.2531 -0.4282  1.6174
 2299TIP3    H228389   5.675   0.900   6.011 -1.2328  0.0250  2.9184
 2300TIP3   OH228390   3.412   3.731   1.192 -0.4980  0.1248 -0.0790
 2300TIP3    H128391   3.365   3.729   1.276 -2.5517  1.8702 -1.1550
 2300TIP3    H228392   3.503   3.745   1.217 -0.9195 -0.4432  1.9120
 2301TIP3   OH228393   3.132   1.888   3.238  0.0673  0.7917  0.0168
 2301TIP3    H128394   3.169   1.964   3.282  1.1097  0.6081 -0.5519
 2301TIP3    H228395   3.206   1.845   3.196 -0.4372 -0.7897  0.7047
 2302TIP3   OH228396   3.121   3.816  14.869 -0.6963 -0.6148 -0.3060
 2302TIP3    H128397   3.172   3.738  14.852  0.8057  0.3189 -0.1928
 2302TIP3    H228398   3.125   3.828  14.964  1.6176  1.2450 -0.5899
 2303TIP3   OH228399   1.304   2.503   6.020 -0.7064 -0.5682  0.2104
 2303TIP3    H128400   1.224   2.552   6.039 -1.0977 -0.5075 -1.4875
 2303TIP3    H228401   1.333   2.470   6.105 -1.6632  0.7413  1.0630
 2304TIP3   OH228402   0.736   3.589  13.040 -0.4981 -0.7846  0.8098
 2304TIP3    H128403   0.827   3.561  13.051 -0.3463 -0.4925  0.2885
 2304TIP3    H228404   0.726   3.662  13.102  0.6042  1.4170 -1.5360
 2305TIP3   OH228405   0.945   6.050  12.190  0.0376  0.0728 -0.5633
 2305TIP3    H128406   1.014   6.022  12.130  0.6901  1.8708 -0.6797
 2305TIP3    H228407   0.863   6.029  12.145  0.5221 -0.2412 -1.2992
 2306TIP3   OH228408   6.303   5.531  11.957 -0.6598 -0.3826 -0.7210
 2306TIP3    H128409   6.290   5.448  12.003 -1.3729 -0.2880 -0.7488
 2306TIP3    H228410   6.358   5.508  11.882 -0.2541 -0.6992 -0.3284
 2307TIP3   OH228411   3.786   0.691   1.110  0.3958  0.1739 -0.1101
 2307TIP3    H128412   3.786   0.731   1.023  0.9313  1.1078  0.3163
 2307TIP3    H228413   3.703   0.643   1.114 -0.1092  0.9846 -0.7403
 2308TIP3   OH228414   5.807   4.824   0.489  0.0994  0.1352  0.2128
 2308TIP3    H128415   5.742   4.843   0.556 -1.8957 -1.6396 -1.1383
 2308TIP3    H228416   5.791   4.890   0.421  0.7840  0.6745  0.5647
 2309TIP3   OH228417   5.188   1.097   3.935 -0.3055 -0.0424 -0.0439
 2309TIP3    H128418   5.103   1.111   3.976  0.2304  0.1456  1.0152
 2309TIP3    H228419   5.210   1.007   3.956 -0.5864 -0.3279 -0.9644
 2310TIP3   OH228420   1.910   0.489  13.099 -0.0411  0.2465 -0.5985
 2310TIP3    H128421   2.001   0.463  13.107  0.5423  1.9080 -1.6172
 2310TIP3    H228422   1.861   0.407  13.109  1.5531 -0.6930 -0.2668
 2311TIP3   OH228423   5.046   1.977  14.142  0.2293 -0.2179  0.1828
 2311TIP3    H128424   5.130   1.939  14.169  0.5390 -0.3622 -0.9935
 2311TIP3    H228425   4.981   1.914  14.172  0.3861  0.8397  2.8936
 2312TIP3   OH228426   5.984   3.784  14.063 -0.3170 -0.3657 -0.0893
 2312TIP3    H128427   6.049   3.853  14.075 -0.5428 -0.1827  0.0727
 2312TIP3    H228428   5.931   3.787  14.142 -2.2731  1.3260 -1.4049
 2313TIP3   OH228429   2.836   4.483  15.026 -0.2275 -0.3829  0.4280
 2313TIP3    H128430   2.829   4.498  14.932  0.9337  0.2959  0.4362
 2313TIP3    H228431   2.750   4.508  15.061  0.1026  1.6878 -0.1701
 2314TIP3   OH228432   1.768   5.096  15.224 -0.1834  0.1282  1.0472
 2314TIP3    H128433   1.828   5.023  15.209  1.4605  1.4909  0.8621
 2314TIP3    H228434   1.806   5.144  15.297 -0.4844  1.5826  0.2731
 2315TIP3   OH228435   1.610   6.256  13.118  0.1482  0.0847 -0.1038
 2315TIP3    H128436   1.518   6.280  13.108 -0.1762 -0.2806  1.7533
 2315TIP3    H228437   1.643   6.314  13.186  1.5602  0.8235 -1.3745
 2316TIP3   OH228438   5.503   5.079  14.912  0.4363  0.2524 -0.3205
 2316TIP3    H128439   5.444   5.010  14.943  1.0582 -0.2366 -0.2233
 2316TIP3    H228440   5.484   5.086  14.818  0.0684  0.2512 -0.2461
 2317TIP3   OH228441   1.695   5.983   6.667 -0.0658  0.3629 -0.5932
 2317TIP3    H128442   1.748   6.057   6.637  1.2479 -1.2741 -2.4058
 2317TIP3    H228443   1.722   5.970   6.758 -0.7893  2.4917 -0.0334
 2318TIP3   OH228444   0.776   0.777   5.366  0.5273 -0.6855  0.0579
 2318TIP3    H128445   0.769   0.749   5.457 -1.8416 -2.0762 -0.5026
 2318TIP3    H228446   0.710   0.726   5.320  0.1429  1.6054 -2.0560
 2319TIP3   OH228447   2.646   1.816   3.987  0.4605  0.1472 -0.1146
 2319TIP3    H128448   2.595   1.806   3.906  0.6946  1.2144 -0.3964
 2319TIP3    H228449   2.685   1.729   4.000 -1.1838 -0.6037 -0.0412
 2320TIP3   OH228450   3.905   0.597   5.816 -0.1393 -0.5489 -0.1067
 2320TIP3    H128451   3.944   0.514   5.843  0.9360  0.1764  0.6194
 2320TIP3    H228452   3.866   0.633   5.895 -1.5014 -0.8390 -0.6435
 2321TIP3   OH228453   1.123   4.236  14.735  0.0279 -0.0274  0.3090
 2321TIP3    H128454   1.100   4.327  14.719  0.9093  0.2247  0.4316
 2321TIP3    H228455   1.177   4.238  14.814  0.0262 -0.6554  0.3294
 2322TIP3   OH228456   4.991   2.542   4.866  0.4243  0.3933 -0.5081
 2322TIP3    H128457   4.940   2.462   4.856  0.5117  0.0829  1.2844
 2322TIP3    H228458   5.062   2.518   4.926 -0.1864  2.0845  0.9376
 2323TIP3   OH228459   3.748   6.185   0.192 -0.6123  0.1901  0.0695
 2323TIP3    H128460   3.666   6.146   0.222 -1.2193 -0.0018 -1.7860
 2323TIP3    H228461   3.808   6.174   0.266 -2.2204  0.2854  1.4380
 2324TIP3   OH228462   4.005   2.951   0.941 -0.7361  0.0470  0.0868
 2324TIP3    H128463   3.966   2.934   0.855  0.7210  0.1679 -0.6102
 2324TIP3    H228464   4.042   2.867   0.967 -3.6285 -0.7396  1.9165
 2325TIP3   OH228465   1.804   4.826  15.448 -0.1070 -0.5451 -0.0078
 2325TIP3    H128466   1.724   4.786  15.482 -1.4903  0.7962 -1.5569
 2325TIP3    H228467   1.803   4.915  15.483  0.8335 -0.5964  0.1539
 2326TIP3   OH228468   2.100   6.677   4.233 -0.1087 -0.4001 -0.8259
 2326TIP3    H128469   2.134   6.588   4.226 -0.8325 -0.7185 -0.3584
 2326TIP3    H228470   2.068   6.684   4.324  3.1281  1.4770  0.2478
 2327TIP3   OH228471   0.108   0.398   0.322 -1.0578 -0.0318 -0.4554
 2327TIP3    H128472   0.168   0.466   0.353 -0.8755 -0.2676 -0.2899
 2327TIP3    H228473   0.046   0.445   0.266 -0.9449  0.2751 -0.3276
 2328TIP3   OH228474   2.678   0.564   4.515  0.0002  0.1615 -0.1438
 2328TIP3    H128475   2.690   0.602   4.428 -0.5875  1.9228  0.5244
 2328TIP3    H228476   2.684   0.469   4.501  0.8147  0.4649 -1.9483
 2329TIP3   OH228477   2.393   1.044  12.370  0.1367  0.3659 -0.1057
 2329TIP3    H128478   2.487   1.042  12.352 -0.1574  0.7286 -1.6761
 2329TIP3    H228479   2.353   0.997  12.297 -0.9710  0.9438  0.1196
 2330TIP3   OH228480   2.673   1.202   3.594  0.4059 -0.7250  0.1342
 2330TIP3    H128481   2.600   1.194   3.656  1.4777 -2.4615  1.2266
 2330TIP3    H228482   2.642   1.157   3.516 -0.0872 -0.5646  0.2357
 2331TIP3   OH228483   0.172   0.790   4.829 -0.0986 -0.2833  0.0780
 2331TIP3    H128484   0.266   0.772   4.829 -0.1683 -0.6422  0.5208
 2331TIP3    H228485   0.148   0.792   4.921 -1.1006 -3.1385 -0.0866
 2332TIP3   OH228486   2.353   5.663  15.136  0.7699 -0.4117  0.0542
 2332TIP3    H128487   2.402   5.690  15.059  0.4730 -0.5867 -0.1964
 2332TIP3    H228488   2.262   5.687  15.117  0.4776 -1.6574 -0.2170
 2333TIP3   OH228489   0.374   0.284   5.124 -0.1363  0.0149  0.5132
 2333TIP3    H128490   0.297   0.273   5.068  0.3071  0.4750 -0.1959
 2333TIP3    H228491   0.342   0.269   5.213 -1.1036  0.5018  0.2509
 2334TIP3   OH228492   2.332   5.537  16.164  0.0601 -0.1937  0.3852
 2334TIP3    H128493   2.305   5.575  16.247  1.5298 -0.4040  0.9777
 2334TIP3    H228494   2.419   5.575  16.147  0.7650 -1.8749  0.0999
 2335TIP3   OH228495   2.267   1.753  12.329 -0.6737  0.1624  0.2261
 2335TIP3    H128496   2.338   1.808  12.360  2.1831 -1.4198 -3.1926
 2335TIP3    H228497   2.268   1.677  12.388  0.5953  0.0607  0.0721
 2336TIP3   OH228498   6.383   0.513   2.176 -0.0328  0.5729  0.1355
 2336TIP3    H128499   6.302   0.467   2.156  1.2789 -0.7722 -2.4342
 2336TIP3    H228500   6.391   0.509   2.271 -0.7323 -3.2241  0.0962
 2337TIP3   OH228501   0.009   4.021  15.291 -0.1164 -0.0837  0.4611
 2337TIP3    H128502   0.092   3.983  15.265  0.5150  0.5741  1.4562
 2337TIP3    H228503   0.030   4.072  15.369 -1.1181  1.4928 -0.2770
 2338TIP3   OH228504   2.267   3.784  11.087 -0.9988 -0.3831 -0.4963
 2338TIP3    H128505   2.345   3.762  11.036  0.7460  1.6373  1.2265
 2338TIP3    H228506   2.228   3.858  11.042  0.0384  0.8214  0.5483
 2339TIP3   OH228507   2.030   3.057  16.720  0.4187  0.1602 -0.2399
 2339TIP3    H128508   2.093   3.000  16.675  0.7011  0.9756 -0.8815
 2339TIP3    H228509   2.077   3.088  16.797 -0.3410 -1.8936  1.0976
 2340TIP3   OH228510   3.726   4.585   2.314 -0.1114 -0.6369 -0.0439
 2340TIP3    H128511   3.679   4.526   2.373  0.5823 -1.5819 -0.4289
 2340TIP3    H228512   3.818   4.561   2.324  0.1537  0.2341 -0.3625
 2341TIP3   OH228513   1.677   6.734   2.603 -0.2850  0.0422 -0.1542
 2341TIP3    H128514   1.680   6.794   2.528 -1.4209 -0.2645 -0.4556
 2341TIP3    H228515   1.697   6.648   2.566  0.4221  0.0837  0.1197
 2342TIP3   OH228516   3.676   1.604   4.766  0.5204 -0.0595 -0.8176
 2342TIP3    H128517   3.752   1.548   4.776  1.9896  2.3254  2.1148
 2342TIP3    H228518   3.684   1.639   4.677  3.8320  1.4483 -0.0060
 2343TIP3   OH228519   1.706   2.806  11.680 -0.8102 -0.0730 -0.1079
 2343TIP3    H128520   1.635   2.866  11.659 -0.3694  0.3124 -0.5086
 2343TIP3    H228521   1.771   2.820  11.611 -1.1785 -1.8020 -0.8273
 2344TIP3   OH228522   2.306   1.939   1.150  0.2042  0.4361  0.4816
 2344TIP3    H128523   2.253   1.980   1.081  0.0976  0.3943  0.5392
 2344TIP3    H228524   2.295   1.997   1.225 -2.3489 -1.2772  1.4867
 2345TIP3   OH228525   5.662   3.565  11.591 -0.1261  0.0234 -0.0667
 2345TIP3    H128526   5.694   3.644  11.547 -2.3792  1.3319  0.5654
 2345TIP3    H228527   5.593   3.597  11.649 -1.2352 -2.4679  0.0222
 2346TIP3   OH228528   1.611   5.738   3.808  0.3011  0.0239 -0.2269
 2346TIP3    H128529   1.695   5.715   3.768 -0.8553  0.0067 -2.7360
 2346TIP3    H228530   1.551   5.669   3.779 -0.5925 -0.0195  1.6212
 2347TIP3   OH228531   2.078   5.603   4.954  0.5952 -0.2534  0.1534
 2347TIP3    H128532   2.098   5.572   5.042  0.7595  1.3104  0.6808
 2347TIP3    H228533   1.987   5.632   4.959  0.7299  0.2060 -0.0942
 2348TIP3   OH228534   3.750   2.373  13.012  0.5498 -0.0397 -0.2853
 2348TIP3    H128535   3.839   2.406  13.015  0.5616 -0.2051  1.1372
 2348TIP3    H228536   3.758   2.279  13.028  0.1751 -0.1745 -0.8346
 2349TIP3   OH228537   5.235   1.420  17.281  0.0021  0.7886  0.1428
 2349TIP3    H128538   5.310   1.412  17.341 -0.3911  0.3242  0.5709
 2349TIP3    H228539   5.249   1.504  17.238  1.1132  0.4260 -0.2450
 2350TIP3   OH228540   5.101   5.881  12.907 -0.5910 -0.2295  0.2367
 2350TIP3    H128541   5.176   5.922  12.865  0.3464 -1.3880  0.7381
 2350TIP3    H228542   5.079   5.939  12.980 -0.5262  0.3955 -0.2468
 2351TIP3   OH228543   5.059   4.513  10.868 -0.1143  0.1296  0.4434
 2351TIP3    H128544   5.013   4.550  10.793 -0.3816  0.9270  0.9834
 2351TIP3    H228545   4.991   4.507  10.936  0.7144  1.9177  1.4513
 2352TIP3   OH228546   1.177   4.656  14.903 -0.3713  0.1395  0.5861
 2352TIP3    H128547   1.095   4.654  14.953 -0.9186 -0.0619 -0.3060
 2352TIP3    H228548   1.150   4.680  14.814  0.3029 -1.8480 -0.1792
 2353TIP3   OH228549   3.143   5.241   1.486 -0.4603  0.3552 -0.3066
 2353TIP3    H128550   3.203   5.190   1.540  0.3943  2.2174  0.5431
 2353TIP3    H228551   3.136   5.191   1.404  0.3679 -1.0812  0.4825
 2354TIP3   OH228552   0.166   1.910  14.881 -0.2780 -0.0972 -0.4912
 2354TIP3    H128553   0.101   1.858  14.929  0.7377 -2.3519 -1.4974
 2354TIP3    H228554   0.121   1.937  14.801 -1.6975  2.9618  1.2278
 2355TIP3   OH228555   3.965   3.080   1.357  0.6792  0.1828  0.0460
 2355TIP3    H128556   4.059   3.067   1.347  0.6264  0.1920 -0.4814
 2355TIP3    H228557   3.925   3.008   1.308  0.4107  0.9102 -0.8369
 2356TIP3   OH228558   4.051   2.872  16.068  0.1671 -0.1112  0.1709
 2356TIP3    H128559   4.003   2.921  16.001 -1.4326 -1.8792 -0.0060
 2356TIP3    H228560   3.993   2.873  16.144 -0.1958 -2.2466 -0.0366
 2357TIP3   OH228561   0.586   0.568   5.312 -0.3220 -0.4909  0.0849
 2357TIP3    H128562   0.626   0.481   5.315  0.1536 -0.2501  0.8629
 2357TIP3    H228563   0.495   0.553   5.341 -0.1766 -0.6964  0.4485
 2358TIP3   OH228564   6.419   4.424   1.695 -0.0792 -0.1740  0.3150
 2358TIP3    H128565   6.473   4.467   1.629 -2.1989  1.2182 -0.5860
 2358TIP3    H228566   6.477   4.360   1.736  1.7146 -0.0072 -1.8534
 2359TIP3   OH228567   3.316   1.189  14.815 -0.1272 -0.2228  0.0286
 2359TIP3    H128568   3.225   1.220  14.817  0.5199  1.9540 -1.7646
 2359TIP3    H228569   3.367   1.266  14.839  1.1892 -1.8999  2.8290
 2360TIP3   OH228570   5.108   6.555  17.112  0.0267 -0.2197 -0.5583
 2360TIP3    H128571   5.094   6.488  17.046  0.4916 -0.3213 -0.5579
 2360TIP3    H228572   5.061   6.525  17.189 -0.2119 -0.2802 -0.7305
 2361TIP3   OH228573   1.786   4.458  14.715 -0.6431 -0.0704 -0.0353
 2361TIP3    H128574   1.700   4.416  14.720 -0.7501 -0.6558 -4.3131
 2361TIP3    H228575   1.771   4.539  14.665  1.1940 -0.0066 -0.5431
 2362TIP3   OH228576   4.001   5.854  13.691  0.1669 -0.2658 -0.1022
 2362TIP3    H128577   3.953   5.771  13.701 -1.3096  0.7987  1.7867
 2362TIP3    H228578   4.082   5.841  13.740  0.1152 -0.7032 -0.1277
 2363TIP3   OH228579   6.480   3.412   0.524 -0.4544  0.0010  0.3195
 2363TIP3    H128580   6.411   3.447   0.469  0.9261 -0.5196 -1.7907
 2363TIP3    H228581   6.516   3.488   0.569 -0.5921  0.6287 -0.6361
 2364TIP3   OH228582   5.470   1.888  13.404 -0.5172  0.1684  0.5466
 2364TIP3    H128583   5.488   1.954  13.336 -1.2024 -1.1323 -0.9272
 2364TIP3    H228584   5.375   1.879  13.404 -0.4448 -0.6334  0.9246
 2365TIP3   OH228585   4.676   2.757  13.509 -0.1086  0.0075  0.1152
 2365TIP3    H128586   4.645   2.844  13.483  0.9988  0.6241  0.7527
 2365TIP3    H228587   4.656   2.700  13.435 -1.4671  0.6666 -0.0372
 2366TIP3   OH228588   4.308   5.398   6.545  0.0730 -0.3026  0.2972
 2366TIP3    H128589   4.368   5.330   6.574  0.5704 -0.5524 -1.2934
 2366TIP3    H228590   4.261   5.359   6.472  0.2703  1.0143 -0.5458
 2367TIP3   OH228591   2.610   6.189  14.491  0.1231  0.5957  0.0691
 2367TIP3    H128592   2.553   6.237  14.431 -1.2203  0.2628  1.0507
 2367TIP3    H228593   2.693   6.238  14.491  0.1178  0.6085 -1.9909
 2368TIP3   OH228594   6.073   2.657  11.884 -0.3801  0.4021  0.4320
 2368TIP3    H128595   6.010   2.717  11.924 -0.7791  0.8281 -0.8174
 2368TIP3    H228596   6.148   2.712  11.863 -1.7070  1.0597 -3.0104
 2369TIP3   OH228597   1.518   3.288  11.845  0.2695  0.0984  0.3019
 2369TIP3    H128598   1.594   3.258  11.795  0.7055  1.5564  0.0610
 2369TIP3    H228599   1.533   3.382  11.857 -0.6618  0.0755  1.7270
 2370TIP3   OH228600   0.966   1.925  11.512 -0.3641 -0.2187 -0.0539
 2370TIP3    H128601   0.997   1.895  11.427  0.8444 -0.8874  0.6070
 2370TIP3    H228602   0.872   1.907  11.512 -0.4832  0.3556 -1.4718
 2371TIP3   OH228603   3.634   3.308  13.704  0.3209  0.3521  0.3964
 2371TIP3    H128604   3.614   3.366  13.778 -3.0518  0.7953 -0.7424
 2371TIP3    H228605   3.610   3.359  13.627 -0.7144 -1.7893 -0.7430
 2372TIP3   OH228606   5.015   3.139   2.731 -0.8031 -0.4480  0.3716
 2372TIP3    H128607   5.110   3.123   2.730 -0.6879  0.1669  0.8778
 2372TIP3    H228608   4.988   3.131   2.640  0.0159  0.9857 -0.0112
 2373TIP3   OH228609   0.281   2.019   6.046 -0.1974 -0.1671 -0.7577
 2373TIP3    H128610   0.291   2.007   6.141  0.5725  0.2445 -0.7872
 2373TIP3    H228611   0.366   1.994   6.010 -1.0265 -2.0524 -1.5128
 2374TIP3   OH228612   6.254   4.730  11.426 -0.1977 -0.4214 -0.8369
 2374TIP3    H128613   6.179   4.715  11.368  0.7832  0.7033 -2.4463
 2374TIP3    H228614   6.255   4.825  11.437 -0.1494 -0.6020  0.7476
 2375TIP3   OH228615   5.354   3.911   5.264 -0.5911 -0.5219  0.5648
 2375TIP3    H128616   5.325   3.899   5.174  2.0195 -1.7122 -0.1358
 2375TIP3    H228617   5.405   3.992   5.263  0.7973 -1.3963  0.6489
 2376TIP3   OH228618   5.657   4.032  16.695 -0.0582 -0.4271 -0.0904
 2376TIP3    H128619   5.570   4.071  16.705  0.5873  0.6439  1.5952
 2376TIP3    H228620   5.647   3.942  16.727 -0.3956 -0.1142  0.6806
 2377TIP3   OH228621   4.275   0.601   2.339 -0.4209 -0.2191  0.3153
 2377TIP3    H128622   4.367   0.578   2.353 -0.4783  1.1369  3.2728
 2377TIP3    H228623   4.231   0.572   2.419 -2.5685 -0.7885 -1.0507
 2378TIP3   OH228624   5.762   4.398   1.976  0.6735 -0.3192  0.2082
 2378TIP3    H128625   5.760   4.304   1.993  0.4443 -0.3693 -0.0789
 2378TIP3    H228626   5.851   4.425   2.000  0.0289 -0.1751  2.5102
 2379TIP3   OH228627   1.886   3.987  17.087 -0.6257 -0.5243 -0.3956
 2379TIP3    H128628   1.910   3.928  17.159  0.8188  0.4121 -0.0982
 2379TIP3    H228629   1.819   4.044  17.124 -0.4070 -0.5176 -0.0113
 2380TIP3   OH228630   6.534   2.707  17.108 -0.2821  0.1570 -0.2427
 2380TIP3    H128631   6.477   2.638  17.143 -0.5823  0.5348  0.0221
 2380TIP3    H228632   6.622   2.672  17.117 -0.1310  1.2486  3.3018
 2381TIP3   OH228633   4.075   3.238   0.572  0.1344 -0.6544  0.0925
 2381TIP3    H128634   4.154   3.292   0.577  1.4509 -2.6192  1.0800
 2381TIP3    H228635   4.021   3.269   0.645  0.2990  0.1947 -0.1353
 2382TIP3   OH228636   3.256   1.671   5.196 -0.7911  0.2053 -0.0488
 2382TIP3    H128637   3.170   1.703   5.171 -0.7030  0.5115  0.0370
 2382TIP3    H228638   3.317   1.739   5.167 -0.5644 -0.0763 -0.2409
 2383TIP3   OH228639   6.622   0.635   1.468 -0.3014  0.1905  0.3888
 2383TIP3    H128640   6.533   0.668   1.468 -0.5063 -0.3257  1.5493
 2383TIP3    H228641   6.661   0.673   1.547 -0.2270 -1.4784  1.1692
 2384TIP3   OH228642   4.383   3.304   2.590 -0.0204 -0.1549  0.1410
 2384TIP3    H128643   4.332   3.319   2.511 -0.3279  1.0808  0.5489
 2384TIP3    H228644   4.338   3.233   2.635  0.0678 -0.7562 -0.7136
 2385TIP3   OH228645   6.529   3.212   2.941 -0.3349  0.3884 -0.7834
 2385TIP3    H128646   6.445   3.191   2.900 -0.4452 -1.0695  0.1445
 2385TIP3    H228647   6.552   3.132   2.989  0.8430  1.3145  0.2049
 2386TIP3   OH228648   0.906   3.787   5.096  0.7630 -0.6330  0.1756
 2386TIP3    H128649   0.872   3.778   5.185 -0.4679  0.9755 -0.0964
 2386TIP3    H228650   0.838   3.747   5.040  0.3400  0.5886 -0.2055
 2387TIP3   OH228651   3.336   4.815  12.930 -0.0380 -0.3017  0.8083
 2387TIP3    H128652   3.414   4.872  12.931  0.1075 -0.3686 -1.9673
 2387TIP3    H228653   3.291   4.835  13.012  1.7005  1.4434  1.3958
 2388TIP3   OH228654   1.425   2.445   3.883  0.2341  0.0757 -0.1645
 2388TIP3    H128655   1.452   2.494   3.806  0.3404 -0.3889 -0.4260
 2388TIP3    H228656   1.474   2.363   3.878 -0.5456 -0.4045 -0.1747
 2389TIP3   OH228657   3.315   2.870  16.440 -0.4928 -0.2383 -0.2465
 2389TIP3    H128658   3.290   2.784  16.474 -0.8802  0.4188  1.1730
 2389TIP3    H228659   3.254   2.931  16.482  0.6091  0.8716 -0.2359
 2390TIP3   OH228660   1.818   1.648   2.978 -0.0085  0.0697 -0.5506
 2390TIP3    H128661   1.839   1.687   3.062  0.2672 -1.5619  0.1470
 2390TIP3    H228662   1.749   1.704   2.942 -0.6186  0.3700  1.0706
 2391TIP3   OH228663   5.829   4.133   1.136 -0.3067 -0.2116 -0.0164
 2391TIP3    H128664   5.754   4.191   1.123 -0.3968 -0.5597 -1.0889
 2391TIP3    H228665   5.796   4.046   1.113  0.8010 -0.1679 -1.8212
 2392TIP3   OH228666   2.977   0.093   0.415 -0.2954 -0.1929 -0.3249
 2392TIP3    H128667   2.898   0.098   0.468 -0.7847 -1.2105 -0.9355
 2392TIP3    H228668   2.971   0.008   0.371  1.3720 -0.4816 -0.0163
 2393TIP3   OH228669   6.512   1.467   4.211 -0.0569  0.0771  0.5962
 2393TIP3    H128670   6.580   1.532   4.229 -0.7490  1.2359 -0.8736
 2393TIP3    H228671   6.431   1.505   4.245 -0.7222  0.6699 -1.5442
 2394TIP3   OH228672   6.719   6.813  13.099 -0.1681 -0.0449  0.2449
 2394TIP3    H128673   6.726   6.718  13.090 -0.7760 -0.1006  0.3373
 2394TIP3    H228674   6.672   6.826  13.182 -0.9636  0.3133 -0.2573
 2395TIP3   OH228675   2.619   3.041   2.718 -0.3602  0.1151  0.1924
 2395TIP3    H128676   2.694   2.987   2.742 -0.8658 -0.6256  0.1005
 2395TIP3    H228677   2.600   3.092   2.797  1.0023  1.2160 -0.1610
 2396TIP3   OH228678   5.637   5.287  12.220  0.1637 -0.1174  0.5547
 2396TIP3    H128679   5.662   5.254  12.306  1.3605 -1.2765 -0.2285
 2396TIP3    H228680   5.715   5.332  12.187 -0.0717 -0.2560 -0.2099
 2397TIP3   OH228681   2.000   3.603  13.349 -0.0194 -0.1312  0.3878
 2397TIP3    H128682   1.919   3.602  13.401  0.9828 -0.7452  1.9560
 2397TIP3    H228683   1.982   3.666  13.279 -1.0704  1.4175  2.0036
 2398TIP3   OH228684   1.014   0.818  16.487  0.5327 -0.1561  0.4394
 2398TIP3    H128685   0.922   0.796  16.500  0.5481 -1.3213 -1.3187
 2398TIP3    H228686   1.032   0.886  16.552 -1.9768  1.2295 -0.2688
 2399TIP3   OH228687   5.188   1.238   0.325  0.0718  0.1546 -0.2059
 2399TIP3    H128688   5.271   1.248   0.277  1.6713  0.4943  2.5185
 2399TIP3    H228689   5.168   1.326   0.356 -0.3877 -0.2252  0.5876
 2400TIP3   OH228690   1.856   2.371  13.985 -0.2665 -0.2942  0.4891
 2400TIP3    H128691   1.920   2.433  13.949 -0.0451 -0.8079 -0.0115
 2400TIP3    H228692   1.773   2.417  13.981 -0.0979 -0.0163  0.1474
 2401TIP3   OH228693   0.873   2.850  12.757  0.7766 -0.0585 -0.5502
 2401TIP3    H128694   0.866   2.759  12.786  1.2543 -0.6307 -2.1822
 2401TIP3    H228695   0.796   2.864  12.703  1.2898  0.1599 -1.2246
 2402TIP3   OH228696   4.272   3.511   0.794  0.3544 -0.4417 -0.1650
 2402TIP3    H128697   4.329   3.582   0.824  0.9624 -0.5663 -1.0040
 2402TIP3    H228698   4.186   3.552   0.783  0.6313  0.1016 -0.3461
 2403TIP3   OH228699   3.948   6.483  11.174  0.5543  0.2010  0.1219
 2403TIP3    H128700   4.000   6.427  11.116  0.2563 -0.3661  0.3945
 2403TIP3    H228701   3.963   6.572  11.142  1.2947 -0.0046 -0.1134
 2404TIP3   OH228702   1.657   5.079   4.516  0.7466  0.7471 -0.4478
 2404TIP3    H128703   1.657   4.983   4.509 -2.2338  0.4989  2.1159
 2404TIP3    H228704   1.742   5.099   4.556  0.0403 -1.1551  2.1596
 2405TIP3   OH228705   3.492   3.266  15.551 -0.1237  0.6315  0.3175
 2405TIP3    H128706   3.554   3.199  15.522 -0.9489  0.0332 -0.0792
 2405TIP3    H228707   3.524   3.293  15.637 -0.1591 -0.7510  0.7719
 2406TIP3   OH228708   6.272   2.796  14.246 -0.1067  0.1171 -0.0530
 2406TIP3    H128709   6.202   2.752  14.199 -0.2967 -0.5805  0.8623
 2406TIP3    H228710   6.327   2.725  14.279  1.3292  0.6728 -1.2005
 2407TIP3   OH228711   2.867   3.606   4.045  0.4115  0.4422  0.9557
 2407TIP3    H128712   2.784   3.653   4.032 -0.4411 -1.1737  0.4018
 2407TIP3    H228713   2.841   3.526   4.089  1.2795 -1.5014 -1.9509
 2408TIP3   OH228714   1.964   5.263   1.790 -0.3892  0.0999  0.2745
 2408TIP3    H128715   1.979   5.319   1.866  1.1181  0.8691 -0.5715
 2408TIP3    H228716   2.024   5.189   1.803  2.1989  1.7724 -1.6900
 2409TIP3   OH228717   6.693   1.510   4.640  0.0277 -0.2365  0.6535
 2409TIP3    H128718   6.619   1.521   4.700  0.2905 -0.1777  0.9684
 2409TIP3    H228719   6.693   1.417   4.618 -0.7631 -0.0579 -0.1518
 2410TIP3   OH228720   0.698   2.639  14.610  0.4065  0.1374 -0.3397
 2410TIP3    H128721   0.626   2.686  14.567 -1.7723 -0.5501  2.3857
 2410TIP3    H228722   0.762   2.708  14.632 -0.1699  1.0111 -1.3593
 2411TIP3   OH228723   1.415   4.316   1.448  0.7472 -0.0208  0.1489
 2411TIP3    H128724   1.381   4.238   1.492  1.3493 -0.4349 -0.1119
 2411TIP3    H228725   1.417   4.383   1.516 -2.7727  0.6785 -0.3739
 2412TIP3   OH228726   5.016   1.927   5.506 -0.3381 -0.3215  0.2051
 2412TIP3    H128727   4.964   1.986   5.451 -2.2406 -1.4217  0.7483
 2412TIP3    H228728   5.073   1.985   5.556 -1.3764  0.9904 -0.0872
 2413TIP3   OH228729   4.691   4.438   4.148 -0.2663 -0.4507 -0.8595
 2413TIP3    H128730   4.713   4.508   4.088  1.2925 -1.3199 -1.3166
 2413TIP3    H228731   4.637   4.378   4.097 -1.7635  0.4951 -0.4124
 2414TIP3   OH228732   1.271   4.883  12.525  0.3308  0.8125 -0.0780
 2414TIP3    H128733   1.244   4.918  12.440  0.4131  1.3918  0.1292
 2414TIP3    H228734   1.366   4.896  12.527  0.7572 -1.7357 -1.0389
 2415TIP3   OH228735   5.408   1.841   5.386 -0.0077 -0.7047  0.4285
 2415TIP3    H128736   5.362   1.925   5.381  1.4014  0.2383  2.7332
 2415TIP3    H228737   5.475   1.846   5.317 -0.1492 -0.0927  0.3317
 2416TIP3   OH228738   6.525   6.503   0.465  0.1373 -0.1103  0.7901
 2416TIP3    H128739   6.541   6.544   0.550 -0.1343 -1.1485  1.3512
 2416TIP3    H228740   6.612   6.488   0.428  0.2484  0.5482  0.7758
 2417TIP3   OH228741   1.795   0.600  12.860 -0.0292  1.0980 -0.1638
 2417TIP3    H128742   1.842   0.682  12.845 -0.2996  1.6352  1.7844
 2417TIP3    H228743   1.829   0.568  12.944 -0.7500 -0.2083 -0.3522
 2418TIP3   OH228744   1.524   6.629  15.083  0.1106 -0.4126 -0.7337
 2418TIP3    H128745   1.610   6.617  15.045 -0.0368  1.9017 -1.8480
 2418TIP3    H228746   1.497   6.541  15.109  3.6218 -0.9043  1.5088
 2419TIP3   OH228747   3.407   2.879   1.802 -0.4797 -0.0523 -0.0222
 2419TIP3    H128748   3.357   2.798   1.792 -2.0650  0.6895  1.4588
 2419TIP3    H228749   3.410   2.893   1.897  1.4444  0.6123 -0.1672
 2420TIP3   OH228750   0.147   5.365   2.212 -0.1222  0.1456 -0.0113
 2420TIP3    H128751   0.160   5.275   2.240 -2.6880 -0.7925 -1.6347
 2420TIP3    H228752   0.154   5.417   2.292 -2.4850 -1.9410  1.6182
 2421TIP3   OH228753   6.237   0.166  16.829 -0.8131 -0.1435 -0.0668
 2421TIP3    H128754   6.322   0.167  16.873 -0.8518 -0.6759  0.0201
 2421TIP3    H228755   6.237   0.246  16.775 -0.2047 -0.2099 -0.1663
 2422TIP3   OH228756   4.648   3.468   1.342 -0.1133  0.0388  0.3822
 2422TIP3    H128757   4.563   3.425   1.347  0.7147 -1.5705  0.9754
 2422TIP3    H228758   4.699   3.429   1.413  1.5139  0.0917 -0.7310
 2423TIP3   OH228759   6.233   5.301   0.249 -0.1920 -0.2713 -0.2729
 2423TIP3    H128760   6.317   5.319   0.290  0.1015 -0.2506 -0.8693
 2423TIP3    H228761   6.233   5.206   0.234  0.0687 -0.1567 -1.0082
 2424TIP3   OH228762   2.217   2.617  10.973  0.4893  0.3746  0.2388
 2424TIP3    H128763   2.197   2.710  10.983 -1.4783  0.0338 -0.2223
 2424TIP3    H228764   2.216   2.602  10.878 -0.1790 -0.2993  0.3455
 2425TIP3   OH228765   4.133   6.460   4.964 -0.4496  0.2246  0.2524
 2425TIP3    H128766   4.125   6.522   4.891  1.5294 -0.7701 -0.8540
 2425TIP3    H228767   4.044   6.448   4.996 -1.1714  1.6579 -1.1944
 2426TIP3   OH228768   5.040   2.665   0.366 -0.5775  0.8842 -0.2462
 2426TIP3    H128769   5.080   2.581   0.343 -0.3068  1.2398 -1.1125
 2426TIP3    H228770   5.050   2.672   0.460 -0.5173 -0.0161 -0.1784
 2427TIP3   OH228771   2.366   2.972   2.626 -0.0654 -0.6230  0.1223
 2427TIP3    H128772   2.348   2.900   2.687  1.8625  1.0667  2.7925
 2427TIP3    H228773   2.453   3.003   2.652  0.4247  0.7016 -2.9987
 2428TIP3   OH228774   5.169   2.753  16.510 -0.7955 -0.0632  0.3371
 2428TIP3    H128775   5.240   2.800  16.555  0.6610 -1.1255 -0.8552
 2428TIP3    H228776   5.125   2.821  16.458 -0.5246  0.5409  0.8805
 2429TIP3   OH228777   4.068   4.288  16.616  0.0492  0.3914  0.6557
 2429TIP3    H128778   3.990   4.263  16.666 -0.6959 -0.1674 -0.7348
 2429TIP3    H228779   4.133   4.221  16.639 -0.3708 -0.0101  0.6937
 2430TIP3   OH228780   5.251   5.528  16.713  0.7154 -0.7261 -0.3591
 2430TIP3    H128781   5.283   5.448  16.670  2.1122 -1.3248  1.7412
 2430TIP3    H228782   5.319   5.593  16.697  0.0944 -0.2601 -1.1251
 2431TIP3   OH228783   3.557   3.808   4.744 -0.1521 -0.9069 -0.4676
 2431TIP3    H128784   3.531   3.797   4.835  1.7798 -1.4765  0.0242
 2431TIP3    H228785   3.544   3.902   4.727  0.2655 -0.6487  0.6268
 2432TIP3   OH228786   2.872   4.532  14.767  0.1671 -0.2070  0.1491
 2432TIP3    H128787   2.847   4.607  14.713  0.9253  0.4336  0.6740
 2432TIP3    H228788   2.910   4.470  14.705 -0.1807 -0.0286 -0.2473
 2433TIP3   OH228789   3.289   4.359  13.479  0.1160  0.3808  0.7576
 2433TIP3    H128790   3.346   4.416  13.428  1.3349  0.2693  1.9639
 2433TIP3    H228791   3.262   4.291  13.417  1.3049  0.4321  0.1656
 2434TIP3   OH228792   1.317   2.944  13.198  0.1159  0.4518  0.0529
 2434TIP3    H128793   1.262   3.022  13.189  0.4954  0.9028  1.4807
 2434TIP3    H228794   1.304   2.916  13.289 -0.9089 -1.8440 -0.7734
 2435TIP3   OH228795   1.548   6.092   0.879 -0.0170  0.1940 -0.0932
 2435TIP3    H128796   1.553   6.113   0.972  2.6131 -1.9142  0.2883
 2435TIP3    H228797   1.592   6.164   0.835  2.8644 -1.0219  0.6884
 2436TIP3   OH228798   2.295   5.699   1.089 -0.2517  0.2457  0.8355
 2436TIP3    H128799   2.344   5.728   1.165  1.2061  3.2525 -1.1689
 2436TIP3    H228800   2.212   5.746   1.094  1.0804  2.9696 -1.0033
 2437TIP3   OH228801   1.523   0.779   2.848  0.6367  0.4833 -0.0405
 2437TIP3    H128802   1.511   0.773   2.753  0.4744  1.6188 -0.1093
 2437TIP3    H228803   1.551   0.692   2.875  1.5633  0.3807 -1.2657
 2438TIP3   OH228804   1.322   5.143   2.090  0.2318  0.4912 -0.5102
 2438TIP3    H128805   1.242   5.195   2.080 -0.0210 -0.0449 -1.2835
 2438TIP3    H228806   1.291   5.053   2.104  0.7064  0.1880 -1.3886
 2439TIP3   OH228807   1.748   6.161  13.829  0.0930  0.4369  0.0847
 2439TIP3    H128808   1.730   6.124  13.915 -0.3436 -0.0350 -0.2057
 2439TIP3    H228809   1.664   6.199  13.801 -0.1064 -0.5383 -0.6743
 2440TIP3   OH228810   0.989   4.890  10.592  1.2305 -0.3361  0.0413
 2440TIP3    H128811   0.992   4.795  10.601  2.2082 -0.3795 -0.6536
 2440TIP3    H228812   0.903   4.915  10.626  1.1087 -1.4315  0.5474
 2441TIP3   OH228813   1.944   2.289  13.116 -0.1054 -0.2623  0.5325
 2441TIP3    H128814   1.915   2.330  13.035  1.5008 -0.7347 -0.3123
 2441TIP3    H228815   1.972   2.362  13.171  1.8702 -0.1020 -0.6154
 2442TIP3   OH228816   1.350   3.086  16.567  0.7314  0.3742 -0.3822
 2442TIP3    H128817   1.351   3.135  16.649 -0.0460 -0.2761  0.0242
 2442TIP3    H228818   1.403   3.138  16.506 -0.2370  1.8070 -0.0089
 2443TIP3   OH228819   2.673   0.606  16.104  0.5012  0.6371 -0.0596
 2443TIP3    H128820   2.685   0.619  16.010 -0.9387 -2.5035 -0.7092
 2443TIP3    H228821   2.584   0.635  16.121  0.3738  0.1283  0.1325
 2444TIP3   OH228822   1.234   4.432   4.691  0.8200  0.1836 -0.7506
 2444TIP3    H128823   1.265   4.343   4.673  1.1887  0.3469 -0.9361
 2444TIP3    H228824   1.293   4.464   4.759 -0.6139 -0.4577  0.8260
 2445TIP3   OH228825   1.265   4.877  15.098 -0.1908  0.0140  0.2946
 2445TIP3    H128826   1.187   4.921  15.064  0.5943  0.0898 -1.4516
 2445TIP3    H228827   1.300   4.829  15.023  2.1273  0.9505  0.7234
 2446TIP3   OH228828   2.753   5.331   5.501  0.0534 -0.4606  0.4887
 2446TIP3    H128829   2.675   5.277   5.492  0.0596 -0.8502  2.5597
 2446TIP3    H228830   2.722   5.420   5.487 -0.1193 -0.8616 -2.0321
 2447TIP3   OH228831   6.285   3.157  11.563 -0.1430 -0.3276  0.0708
 2447TIP3    H128832   6.198   3.168  11.525 -0.0968 -0.1884  0.0079
 2447TIP3    H228833   6.307   3.065  11.545 -0.8727 -0.7529  1.3371
 2448TIP3   OH228834   0.967   1.106  13.041 -0.0832 -0.6075 -0.4210
 2448TIP3    H128835   0.967   1.198  13.067 -2.2804 -1.3741  2.5397
 2448TIP3    H228836   0.896   1.100  12.977  0.1557 -0.2411 -0.7246
 2449TIP3   OH228837   3.943   3.863  13.395 -0.2096 -0.3452 -0.1921
 2449TIP3    H128838   3.872   3.829  13.341  0.5042 -0.7737 -0.8769
 2449TIP3    H228839   3.960   3.794  13.459 -0.4585 -0.2135  0.0153
 2450TIP3   OH228840   4.548   0.487   1.183  0.0449 -0.3382 -0.6698
 2450TIP3    H128841   4.490   0.414   1.162 -0.0319 -0.5013  0.0952
 2450TIP3    H228842   4.566   0.477   1.276  3.3712 -1.7504 -1.3895
 2451TIP3   OH228843   3.757   5.826   0.692 -0.1920  0.2299 -0.6686
 2451TIP3    H128844   3.696   5.836   0.619  0.5235 -0.6574 -1.3983
 2451TIP3    H228845   3.772   5.732   0.698  2.5033  0.5529 -1.6848
 2452TIP3   OH228846   2.529   6.374   3.095 -0.0960  0.3622 -0.2675
 2452TIP3    H128847   2.518   6.402   3.185 -0.2987 -1.1345  0.1969
 2452TIP3    H228848   2.440   6.370   3.060  0.1067  2.7424 -1.1228
 2453TIP3   OH228849   3.190   5.313   0.977  0.4436  0.3728  0.2366
 2453TIP3    H128850   3.221   5.355   1.057  0.4693  0.1901  0.3241
 2453TIP3    H228851   3.270   5.290   0.930  0.3958  2.1274 -0.7050
 2454TIP3   OH228852   6.377   1.076   3.928 -0.5932  0.3762 -0.6728
 2454TIP3    H128853   6.421   1.023   3.994 -1.7155 -1.9967 -1.7493
 2454TIP3    H228854   6.361   1.160   3.970  1.4458 -0.0444  1.0157
 2455TIP3   OH228855   2.056   4.242  14.123 -0.1560  0.1830  0.3180
 2455TIP3    H128856   2.106   4.295  14.060  0.9538  0.5547  1.4814
 2455TIP3    H228857   2.060   4.153  14.088 -0.5968  0.5869 -0.7753
 2456TIP3   OH228858   6.444   6.648  15.946  0.1586  0.6697 -0.1266
 2456TIP3    H128859   6.411   6.586  15.882  1.0657  1.1247 -1.0520
 2456TIP3    H228860   6.461   6.728  15.896 -0.9916  1.6702  1.0500
 2457TIP3   OH228861   2.637   5.556  13.708  0.0102 -0.0772 -0.0652
 2457TIP3    H128862   2.657   5.503  13.631  2.1658 -1.0904  1.1463
 2457TIP3    H228863   2.671   5.643  13.687  1.5300 -0.6145  0.1385
 2458TIP3   OH228864   0.594   1.776   3.232 -0.2744 -0.0988  0.0416
 2458TIP3    H128865   0.550   1.693   3.250 -1.3862  1.2988  4.3851
 2458TIP3    H228866   0.532   1.825   3.178 -1.8978 -0.0835  1.8934
 2459TIP3   OH228867   1.214   2.368   2.477 -0.1643 -0.2198  0.2786
 2459TIP3    H128868   1.297   2.414   2.462  0.0652 -0.5469  0.5372
 2459TIP3    H228869   1.150   2.438   2.490  0.0573  0.0370  0.0198
 2460TIP3   OH228870   1.955   2.617   6.116  0.1846 -0.7275 -0.8127
 2460TIP3    H128871   1.991   2.552   6.176 -1.2632 -0.6662  0.1526
 2460TIP3    H228872   1.971   2.580   6.029  1.7952 -1.0817 -0.3871
 2461TIP3   OH228873   5.282   0.903  12.431  0.5042  0.5730 -0.1763
 2461TIP3    H128874   5.278   0.886  12.336  0.8548 -0.5845  0.0035
 2461TIP3    H228875   5.198   0.944  12.452 -0.3380 -0.8455 -0.6795
 2462TIP3   OH228876   4.943   4.879   2.004 -0.1703  0.2227 -0.7886
 2462TIP3    H128877   4.906   4.967   2.001 -1.5710 -0.3483 -0.4743
 2462TIP3    H228878   4.923   4.847   2.092  0.8267 -0.2112 -0.7080
 2463TIP3   OH228879   5.425   3.487  15.562  0.0289  0.3219  0.6550
 2463TIP3    H128880   5.410   3.402  15.520 -0.8923 -1.4096  4.2694
 2463TIP3    H228881   5.520   3.492  15.574  0.0257 -0.5294  1.0583
 2464TIP3   OH228882   4.182   5.118   4.175 -0.3911 -0.0330  0.2787
 2464TIP3    H128883   4.102   5.091   4.130 -1.2527 -0.3284  1.9703
 2464TIP3    H228884   4.157   5.197   4.223  1.2384  1.8778 -1.9060
 2465TIP3   OH228885   5.934   1.289   1.730  0.0303  0.1694  0.1152
 2465TIP3    H128886   5.847   1.253   1.715 -0.6086  1.8070 -0.1901
 2465TIP3    H228887   5.994   1.217   1.711 -1.1954 -0.5427 -1.0706
 2466TIP3   OH228888   0.646   4.671   3.174 -0.6242 -0.0231 -0.5234
 2466TIP3    H128889   0.712   4.722   3.126 -0.8190  0.7817  0.0596
 2466TIP3    H228890   0.573   4.731   3.186 -1.4204 -0.8866 -1.0653
 2467TIP3   OH228891   5.350   3.621  13.171  0.2361  0.4195  0.1120
 2467TIP3    H128892   5.344   3.716  13.175 -0.3180  0.3112  2.3657
 2467TIP3    H228893   5.432   3.600  13.215  0.2819 -0.1742 -0.2374
 2468TIP3   OH228894   0.186   4.910   1.215 -0.6720 -0.3538  0.0607
 2468TIP3    H128895   0.090   4.913   1.211 -0.6106  2.4095 -1.1549
 2468TIP3    H228896   0.209   4.983   1.271  0.6996 -2.3016  2.0782
 2469TIP3   OH228897   1.032   1.208  17.133 -0.2385  0.4253  0.1907
 2469TIP3    H128898   1.101   1.241  17.191  1.0250 -1.1821 -0.3681
 2469TIP3    H228899   0.987   1.141  17.185  0.1220 -0.1688 -0.2625
 2470TIP3   OH228900   2.199   3.921  16.782  0.2250 -0.0759  0.1899
 2470TIP3    H128901   2.152   3.925  16.699  0.6411  1.2155  0.0050
 2470TIP3    H228902   2.283   3.879  16.760  0.2160 -0.0054  0.0208
 2471TIP3   OH228903   6.698   2.801   1.815  0.6164  0.2217  0.8084
 2471TIP3    H128904   6.700   2.897   1.813 -0.9397  0.2562 -0.4417
 2471TIP3    H228905   6.606   2.779   1.798  1.5728 -1.5430 -2.6737
 2472TIP3   OH228906   0.801   0.277   5.114 -0.1791  0.4251  0.3597
 2472TIP3    H128907   0.810   0.362   5.072 -1.7344 -0.1234 -1.1424
 2472TIP3    H228908   0.824   0.214   5.045 -0.4588 -0.4089  1.0275
 2473TIP3   OH228909   2.616   0.159  16.559 -0.1023 -0.7598 -0.4515
 2473TIP3    H128910   2.554   0.182  16.490 -1.2399 -1.0839  0.4450
 2473TIP3    H228911   2.671   0.236  16.570 -0.8825 -0.1746 -0.6797
 2474TIP3   OH228912   5.493   5.437  17.067  0.5844  0.1539  0.3591
 2474TIP3    H128913   5.401   5.413  17.066  0.6600 -0.1881  0.9227
 2474TIP3    H228914   5.519   5.441  16.975  0.4498 -1.4674  0.2365
 2475TIP3   OH228915   6.074   5.139  15.370  0.2252  0.8483 -0.1260
 2475TIP3    H128916   6.081   5.102  15.458  0.6498 -0.0051 -0.5108
 2475TIP3    H228917   6.000   5.093  15.330  1.8797 -0.9570 -1.2366
 2476TIP3   OH228918   3.030   5.415  15.082  0.2628  0.0550  0.6687
 2476TIP3    H128919   3.122   5.391  15.093  0.1002 -0.6229  0.5498
 2476TIP3    H228920   2.994   5.416  15.171  0.1618 -0.5766  0.6349
 2477TIP3   OH228921   1.141   2.021   1.856 -0.0505 -0.3928 -0.1710
 2477TIP3    H128922   1.143   1.936   1.812  0.2879  0.8274 -2.5898
 2477TIP3    H228923   1.052   2.052   1.844 -0.0009 -0.1238  0.1635
 2478TIP3   OH228924   1.001   3.593   0.201 -0.1973 -0.0658  0.3023
 2478TIP3    H128925   0.924   3.600   0.144  0.2714 -0.8555 -0.4487
 2478TIP3    H228926   1.062   3.538   0.152  0.1456 -0.9161  1.6664
 2479TIP3   OH228927   3.315   3.649   3.392 -0.8830  0.4940  0.4897
 2479TIP3    H128928   3.242   3.656   3.331 -0.1070  2.3693 -0.2680
 2479TIP3    H228929   3.360   3.568   3.367 -3.1192 -1.0587  1.4532
 2480TIP3   OH228930   6.072   1.812   6.134 -0.3055  0.1965 -0.6136
 2480TIP3    H128931   6.156   1.825   6.091 -0.4132  1.5136 -0.4284
 2480TIP3    H228932   6.065   1.717   6.144  1.4153  0.1166 -0.1000
 2481TIP3   OH228933   0.779   5.525  16.716 -0.4206 -0.5301 -0.2110
 2481TIP3    H128934   0.820   5.466  16.653  0.5058 -0.6251  0.4657
 2481TIP3    H228935   0.728   5.468  16.774  1.7187 -0.8651  1.4000
 2482TIP3   OH228936   2.182   4.676   1.976 -0.7437  0.9782 -0.0251
 2482TIP3    H128937   2.091   4.696   1.954 -0.6591  0.3187 -1.0132
 2482TIP3    H228938   2.232   4.747   1.937 -0.6647  0.2417 -1.2864
 2483TIP3   OH228939   3.537   0.474  15.666  0.5784  0.6621  0.1199
 2483TIP3    H128940   3.574   0.471  15.578 -0.4727  0.8033 -0.3371
 2483TIP3    H228941   3.445   0.451  15.654  0.6687 -0.3748  1.3261
 2484TIP3   OH228942   2.245   3.028  13.743  0.1081  0.2050 -0.4181
 2484TIP3    H128943   2.272   2.964  13.677  2.3196 -0.8140  1.3979
 2484TIP3    H228944   2.275   3.112  13.710 -1.2432  0.0960 -1.9873
 2485TIP3   OH228945   5.806   3.325  14.412  0.7805  0.1737  0.4233
 2485TIP3    H128946   5.852   3.274  14.345 -0.7409 -0.6238 -0.0412
 2485TIP3    H228947   5.748   3.383  14.362 -0.5577 -0.6117  1.0462
 2486TIP3   OH228948   3.467   5.942  16.901  0.0111  0.3255 -0.5043
 2486TIP3    H128949   3.447   6.011  16.838  3.7762 -0.0679 -2.3253
 2486TIP3    H228950   3.439   5.861  16.857  1.4777  0.1736 -1.2200
 2487TIP3   OH228951   1.744   3.012   3.014  0.3488  0.1919 -0.1543
 2487TIP3    H128952   1.671   3.062   3.051  0.2069 -0.2947  0.2237
 2487TIP3    H228953   1.810   3.078   2.994  0.2194  0.5193  0.4743
 2488TIP3   OH228954   6.666   1.388  16.502 -0.6183 -0.1143  0.7101
 2488TIP3    H128955   6.668   1.292  16.498  0.0241 -0.0488 -1.9818
 2488TIP3    H228956   6.595   1.413  16.443 -0.9928  1.0747  1.6382
 2489TIP3   OH228957   2.885   5.004   1.200  0.1496  0.2563 -0.0337
 2489TIP3    H128958   2.857   5.090   1.231  1.0052  0.9707 -1.2395
 2489TIP3    H228959   2.805   4.964   1.166  0.1458  1.4155 -1.4095
 2490TIP3   OH228960   2.895   3.806  14.303 -0.3308  0.0738 -0.2719
 2490TIP3    H128961   2.963   3.757  14.257  0.1118  0.5097 -0.0904
 2490TIP3    H228962   2.831   3.828  14.235 -0.6228 -0.9012 -0.3189
 2491TIP3   OH228963   4.942   0.002   4.369 -0.0307  0.2902 -0.0143
 2491TIP3    H128964   4.867   0.054   4.340 -1.1393 -1.8207 -1.0949
 2491TIP3    H228965   4.907  -0.054   4.438  1.0150  0.6015  0.7805
 2492TIP3   OH228966   4.110   1.119   4.354  0.0684  0.2429 -0.1752
 2492TIP3    H128967   4.099   1.168   4.435 -0.0985 -0.5496  0.2748
 2492TIP3    H228968   4.161   1.042   4.378 -1.1391 -0.6855 -0.5676
 2493TIP3   OH228969   2.363   5.693  13.063 -0.1671  0.0457  0.0135
 2493TIP3    H128970   2.392   5.664  12.976  0.2862  0.9462 -0.1509
 2493TIP3    H228971   2.295   5.757  13.045  1.7927  2.2639  0.2104
 2494TIP3   OH228972   1.620   3.369   4.569  0.1814  0.2858  0.2938
 2494TIP3    H128973   1.694   3.379   4.629  0.3783 -1.6593  0.4123
 2494TIP3    H228974   1.658   3.379   4.482  0.0460  2.2518  0.4378
 2495TIP3   OH228975   3.286   1.135   5.305 -0.1774 -0.1934 -0.1028
 2495TIP3    H128976   3.191   1.126   5.299 -0.4555  1.2163  1.7463
 2495TIP3    H228977   3.300   1.230   5.308  1.3361 -0.3752 -1.0425
 2496TIP3   OH228978   2.883   6.785   6.248  0.4037  0.2608  0.0129
 2496TIP3    H128979   2.933   6.803   6.168  0.3222 -1.6242 -0.4779
 2496TIP3    H228980   2.900   6.861   6.305  1.5920  0.9367 -1.2289
 2497TIP3   OH228981   0.904   4.007  11.639 -0.3445  0.3624 -0.2078
 2497TIP3    H128982   0.882   4.033  11.728  2.2837  1.4251  0.1815
 2497TIP3    H228983   0.829   3.956  11.609 -1.8098  1.0775  2.1435
 2498TIP3   OH228984   6.605   2.967   3.781  0.4703 -0.0533  0.4775
 2498TIP3    H128985   6.669   2.927   3.722  0.0346 -0.7121  0.4425
 2498TIP3    H228986   6.520   2.945   3.742  0.2444  2.0685 -0.2907
 2499TIP3   OH228987   0.369   4.545   1.449 -0.4424 -0.2179  0.3467
 2499TIP3    H128988   0.351   4.599   1.372  0.9078 -1.7857 -1.1076
 2499TIP3    H228989   0.449   4.581   1.486 -0.5386 -0.1013  0.4447
 2500TIP3   OH228990   0.699   1.205  17.076  0.3427  0.1087 -0.2487
 2500TIP3    H128991   0.737   1.266  17.140  1.9381 -0.2422 -0.8388
 2500TIP3    H228992   0.707   1.119  17.117 -0.1800  0.0669 -0.2230
 2501TIP3   OH228993   5.069   3.168   3.211  0.0031 -0.3423  0.4915
 2501TIP3    H128994   5.025   3.253   3.217  0.7508 -0.0067  1.1255
 2501TIP3    H228995   5.160   3.189   3.189  0.2432 -0.9731  0.8887
 2502TIP3   OH228996   5.516   6.505   4.706 -0.0141 -0.2901  0.0150
 2502TIP3    H128997   5.469   6.573   4.755  1.9650 -0.1820  1.8235
 2502TIP3    H228998   5.500   6.527   4.614 -3.7319 -0.4489  0.5446
 2503TIP3   OH228999   1.802   6.345   4.549  0.1287  0.1250 -0.1545
 2503TIP3    H129000   1.739   6.274   4.537  0.7297 -0.9146  2.4909
 2503TIP3    H229001   1.748   6.422   4.571 -0.3836 -0.0458 -0.8050
 2504TIP3   OH229002   3.048   4.940  13.982  0.2711  0.0603 -0.0204
 2504TIP3    H129003   2.985   5.013  13.978  1.0904  0.7294 -1.0060
 2504TIP3    H229004   3.131   4.979  13.954  0.6504 -1.3276 -0.8556
 2505TIP3   OH229005   4.615   0.756  11.433 -0.3911 -0.4070 -0.1251
 2505TIP3    H129006   4.677   0.717  11.495 -2.1468 -0.0457  1.9114
 2505TIP3    H229007   4.656   0.839  11.407  0.4520 -0.6489  0.4213
 2506TIP3   OH229008   0.603   1.104   5.124 -0.0489 -0.0706  0.3922
 2506TIP3    H129009   0.688   1.063   5.111 -0.0005 -0.7777  2.6547
 2506TIP3    H229010   0.609   1.189   5.081  0.4127 -1.7236 -2.9773
 2507TIP3   OH229011   0.676   1.550  17.159 -0.7368  0.1019 -0.1347
 2507TIP3    H129012   0.725   1.521  17.082 -1.0373  0.2105 -0.3682
 2507TIP3    H229013   0.743   1.575  17.223 -0.4750  1.3075 -0.8533
 2508TIP3   OH229014   0.134   4.578   0.831 -0.4424  0.2047 -0.2352
 2508TIP3    H129015   0.191   4.655   0.838  1.2520 -1.2004  2.2666
 2508TIP3    H229016   0.185   4.515   0.781 -0.6472 -0.3158  0.2067
 2509TIP3   OH229017   3.546   3.442  13.940 -0.4847 -0.4104  0.4399
 2509TIP3    H129018   3.593   3.412  14.018  0.0293  1.6622  0.9613
 2509TIP3    H229019   3.529   3.535  13.956 -0.6570 -0.0182 -1.7691
 2510TIP3   OH229020   0.263   0.149  16.170 -0.8224 -0.1760  0.0068
 2510TIP3    H129021   0.186   0.207  16.171  0.5503  1.6984  2.2487
 2510TIP3    H229022   0.258   0.103  16.254  0.8504  0.4922  0.4876
 2511TIP3   OH229023   1.631   5.060   1.697 -0.3893  0.5104 -0.4741
 2511TIP3    H129024   1.578   5.136   1.671 -1.1696  0.7678  1.7508
 2511TIP3    H229025   1.678   5.089   1.775  1.4713 -0.4150 -1.2137
 2512TIP3   OH229026   2.074   4.517  16.035  0.3795  0.0690  0.4216
 2512TIP3    H129027   2.100   4.590  16.090  2.1527  0.8002 -1.3101
 2512TIP3    H229028   2.148   4.457  16.036 -0.2390 -0.7191  0.1910
 2513TIP3   OH229029   2.261   0.555  14.266  0.0765 -0.0025 -0.1321
 2513TIP3    H129030   2.260   0.535  14.360  0.3951  1.1611  0.1222
 2513TIP3    H229031   2.237   0.647  14.261 -0.4058 -0.1829 -1.2334
 2514TIP3   OH229032   1.540   2.260   0.106  0.0147 -0.3706 -0.6978
 2514TIP3    H129033   1.495   2.291   0.027  0.8123 -0.0226 -1.0146
 2514TIP3    H229034   1.566   2.339   0.152  0.8916 -0.5689 -0.8489
 2515TIP3   OH229035   0.474   4.383   1.724 -0.1190  0.1276 -0.1293
 2515TIP3    H129036   0.561   4.358   1.693  0.4463  1.6338  0.1988
 2515TIP3    H229037   0.415   4.351   1.656  0.9440  1.7365 -1.8730
 2516TIP3   OH229038   0.712   4.850  14.965 -0.5145 -0.4352  0.3648
 2516TIP3    H129039   0.636   4.864  15.023 -1.0887 -0.4213 -0.3925
 2516TIP3    H229040   0.709   4.758  14.942 -0.1286 -0.5003  0.5660
 2517TIP3   OH229041   5.238   2.365   3.395 -0.1914  0.7138  0.2777
 2517TIP3    H129042   5.294   2.414   3.456  0.2048  1.6336 -0.8165
 2517TIP3    H229043   5.215   2.286   3.443  1.2739  0.7647  1.1116
 2518TIP3   OH229044   1.243   5.340   1.653  0.0509  0.1891  0.0607
 2518TIP3    H129045   1.203   5.422   1.680  0.0416 -0.3213  1.6209
 2518TIP3    H229046   1.169   5.280   1.641 -0.0817  0.8455 -2.7073
 2519TIP3   OH229047   0.738   0.421  12.430  0.1209 -0.4999 -0.4050
 2519TIP3    H129048   0.799   0.399  12.360 -1.2706  2.8632 -2.8197
 2519TIP3    H229049   0.773   0.500  12.469  0.0479 -1.4856  1.7356
 2520TIP3   OH229050   5.289   3.311   6.708  0.3870  0.2727  0.7490
 2520TIP3    H129051   5.295   3.327   6.614 -0.9606 -0.4145  0.5311
 2520TIP3    H229052   5.376   3.329   6.741  1.2633 -0.9114 -0.8511
 2521TIP3   OH229053   0.045   0.509   3.042  0.0104 -0.1653 -0.1077
 2521TIP3    H129054  -0.013   0.509   2.965  1.2780  0.8011 -1.0816
 2521TIP3    H229055   0.048   0.417   3.069  0.0391 -0.6182 -1.5859
 2522TIP3   OH229056   5.663   3.423   2.613 -0.0439  0.0904  0.1426
 2522TIP3    H129057   5.708   3.338   2.610  0.9555  0.5925  0.5080
 2522TIP3    H229058   5.570   3.401   2.620  0.2964 -0.9682  1.4581
 2523TIP3   OH229059   5.889   2.721   4.978 -0.3691  0.2597  0.2341
 2523TIP3    H129060   5.971   2.673   4.985 -0.6815 -0.2682  0.2752
 2523TIP3    H229061   5.909   2.795   4.920  0.7386  1.4538  2.1126
 2524TIP3   OH229062   0.237   4.833   0.921  0.0747  0.3015  0.1160
 2524TIP3    H129063   0.241   4.877   1.006 -2.8515  1.4161 -0.3008
 2524TIP3    H229064   0.160   4.869   0.878  1.7526  0.0571 -3.2278
 2525TIP3   OH229065   4.679   1.131  13.603  0.7820 -0.2844  0.2986
 2525TIP3    H129066   4.594   1.104  13.569  0.8811 -0.6692  0.3526
 2525TIP3    H229067   4.698   1.212  13.558 -0.0814  0.3416  1.0359
 2526TIP3   OH229068   6.625   4.047  11.808 -0.2493 -0.0547  0.0704
 2526TIP3    H129069   6.688   4.034  11.737 -1.3354  1.1416 -1.1404
 2526TIP3    H229070   6.675   4.092  11.876  0.0609  1.4988 -1.1553
 2527TIP3   OH229071   4.463   0.917   2.131 -0.3705  0.4581 -0.4710
 2527TIP3    H129072   4.430   0.937   2.043 -1.0299  0.7815 -0.1517
 2527TIP3    H229073   4.451   0.998   2.180  1.8820  0.9217 -0.6218
 2528TIP3   OH229074   0.364   2.216  11.475 -0.1153 -0.3507 -0.2754
 2528TIP3    H129075   0.342   2.252  11.389 -1.8109  0.7693  0.5935
 2528TIP3    H229076   0.394   2.292  11.525  0.4187 -0.9249  0.2763
 2529TIP3   OH229077   5.861   0.546   3.310  0.2978  0.4975 -0.4784
 2529TIP3    H129078   5.939   0.491   3.321  1.0409  1.5473 -0.3900
 2529TIP3    H229079   5.891   0.634   3.332 -1.6678  0.4783  2.5723
 2530TIP3   OH229080   1.068   2.077  15.809 -0.3695 -0.5702  0.2403
 2530TIP3    H129081   1.160   2.064  15.786  0.8180 -0.1192  4.4178
 2530TIP3    H229082   1.040   1.993  15.846 -1.1178 -0.1424  0.6574
 2531TIP3   OH229083   1.728   0.675  10.844 -0.7949  0.0242 -0.5491
 2531TIP3    H129084   1.783   0.607  10.882 -1.5326  0.0056  0.4886
 2531TIP3    H229085   1.773   0.699  10.763 -0.2010 -1.2565 -0.6166
 2532TIP3   OH229086   1.687   3.292   0.283  0.1944 -0.5976 -0.1336
 2532TIP3    H129087   1.725   3.216   0.239  1.0047 -0.6793  0.7010
 2532TIP3    H229088   1.629   3.255   0.349  0.8315 -0.5039  0.4867
 2533TIP3   OH229089   0.658   4.964  16.788  0.0269 -0.0510  0.0146
 2533TIP3    H129090   0.666   4.894  16.723  1.1111  0.0338  0.0500
 2533TIP3    H229091   0.606   5.031  16.743 -0.6173 -0.6727 -0.1826
 2534TIP3   OH229092   1.448   2.952   5.320  0.1552  0.2568  0.2848
 2534TIP3    H129093   1.509   2.999   5.262 -0.6152 -1.3170 -1.8745
 2534TIP3    H229094   1.376   3.013   5.334  1.5450  1.6190  1.7325
 2535TIP3   OH229095   0.735   0.278   3.159 -0.6122 -0.6507 -0.2304
 2535TIP3    H129096   0.783   0.195   3.151 -1.3585 -1.1031 -0.0795
 2535TIP3    H229097   0.800   0.346   3.142 -0.4800 -1.3279 -2.4904
 2536TIP3   OH229098   5.226   2.311  15.753 -0.3053 -0.7802 -0.1766
 2536TIP3    H129099   5.174   2.382  15.790  0.7690  0.2802 -0.6539
 2536TIP3    H229100   5.162   2.251  15.714 -1.1385  0.8667 -1.4220
 2537TIP3   OH229101   6.739   1.022   3.082 -1.1996  0.3704  0.0233
 2537TIP3    H129102   6.704   0.975   3.006  0.0063  2.1905 -1.6987
 2537TIP3    H229103   6.831   0.998   3.085 -1.1916  0.4813  0.8016
 2538TIP3   OH229104   1.917   2.984   5.242 -0.3726  0.8119 -0.5642
 2538TIP3    H129105   1.931   2.891   5.224  0.2944  0.7472  0.2632
 2538TIP3    H229106   1.971   3.030   5.177  1.9480  0.5815  1.1366
 2539TIP3   OH229107   1.962   1.435  12.721  0.5113  0.0685 -0.4658
 2539TIP3    H129108   1.971   1.486  12.802  1.5644 -0.8300  0.0107
 2539TIP3    H229109   1.868   1.422  12.711  0.1493  2.8530 -1.0947
 2540TIP3   OH229110   4.591   3.246   3.453  0.1142  0.1358 -0.1783
 2540TIP3    H129111   4.619   3.269   3.365  1.4279 -0.4874  0.0573
 2540TIP3    H229112   4.515   3.190   3.441  0.1283  0.2751 -0.9104
 2541TIP3   OH229113   3.623   0.877  13.680  0.1784 -0.4494  0.1680
 2541TIP3    H129114   3.639   0.888  13.774  0.7993 -0.4576  0.0628
 2541TIP3    H229115   3.709   0.862  13.642 -0.2323 -2.0103 -0.1882
 2542TIP3   OH229116   2.614   2.274  11.184 -0.3241 -0.0002  0.2107
 2542TIP3    H129117   2.589   2.182  11.184  3.7139 -1.2098 -0.7188
 2542TIP3    H229118   2.685   2.280  11.248 -0.0943  2.3237 -0.2092
 2543TIP3   OH229119   4.585   3.042  13.945  0.4501  0.0851 -0.0402
 2543TIP3    H129120   4.679   3.046  13.925  0.3081 -0.2644 -0.7984
 2543TIP3    H229121   4.545   3.101  13.881  0.1741  0.4145  0.4348
 2544TIP3   OH229122   1.605   4.140  13.690 -0.1247  0.0334 -0.6972
 2544TIP3    H129123   1.597   4.047  13.712 -1.0124  0.6906  1.9929
 2544TIP3    H229124   1.691   4.165  13.724 -0.3054  0.4179 -0.5208
 2545TIP3   OH229125   2.745   2.962   0.770 -0.2027 -0.5295 -0.3866
 2545TIP3    H129126   2.712   3.036   0.720  0.6464 -0.3980 -0.7684
 2545TIP3    H229127   2.678   2.894   0.761 -0.1688 -0.4186 -1.4842
 2546TIP3   OH229128   3.612   0.792   7.049 -0.3557 -0.2541  0.7790
 2546TIP3    H129129   3.581   0.847   7.120 -0.6418 -0.8581  1.1328
 2546TIP3    H229130   3.540   0.792   6.986  0.2358  0.9644  0.0882
 2547TIP3   OH229131   5.004   1.175   0.131  0.4180  0.1695  0.8107
 2547TIP3    H129132   4.945   1.109   0.169 -0.1909  1.4277  2.1083
 2547TIP3    H229133   5.075   1.183   0.195 -0.6219  2.3121  1.7347
 2548TIP3   OH229134   4.598   4.370   5.642  0.2219  0.7857 -0.1731
 2548TIP3    H129135   4.587   4.448   5.588  0.8664  0.9523 -0.0623
 2548TIP3    H229136   4.677   4.328   5.608  0.5888  0.8517  0.5829
 2549TIP3   OH229137   3.033   2.068   0.769 -0.9365  0.1253 -0.3343
 2549TIP3    H129138   2.950   2.036   0.803 -0.5348  0.4996  1.0708
 2549TIP3    H229139   3.027   2.163   0.779 -0.2950  0.1439 -0.0775
 2550TIP3   OH229140   3.887   4.635  13.793  0.3939 -0.6182 -0.3560
 2550TIP3    H129141   3.978   4.642  13.821  0.5379  1.7386 -1.2972
 2550TIP3    H229142   3.890   4.570  13.722  1.5366  0.2015 -1.0900
 2551TIP3   OH229143   0.968   5.256  14.956 -0.7450 -0.2839  0.5164
 2551TIP3    H129144   0.888   5.207  14.934 -1.3557  1.1408 -0.5465
 2551TIP3    H229145   1.011   5.271  14.872  0.5681 -0.8835  1.0660
 2552TIP3   OH229146   1.522   3.993   4.376  0.2036  0.1462 -0.2937
 2552TIP3    H129147   1.574   4.055   4.428  1.0776  0.7155 -1.8121
 2552TIP3    H229148   1.434   4.028   4.378  0.3321  0.4365  0.3870
 2553TIP3   OH229149   4.682   4.154   0.350 -0.8046  0.3583 -0.2928
 2553TIP3    H129150   4.751   4.089   0.339 -1.9843 -0.7125 -1.7256
 2553TIP3    H229151   4.728   4.236   0.368  0.8242 -0.3841 -0.9857
 2554TIP3   OH229152   1.786   6.696  16.528 -0.6295  0.0756 -0.4603
 2554TIP3    H129153   1.802   6.760  16.596 -1.4224  0.0604 -0.2583
 2554TIP3    H229154   1.764   6.748  16.450  1.8205  0.1566 -1.1440
 2555TIP3   OH229155   0.542   1.265  14.906 -0.3708  0.3368  0.2630
 2555TIP3    H129156   0.618   1.288  14.852 -0.9495 -1.1482 -1.2368
 2555TIP3    H229157   0.524   1.344  14.957  0.4393  1.6556 -1.4233
 2556TIP3   OH229158   1.176   5.132   4.675  0.0674  0.0485 -0.2240
 2556TIP3    H129159   1.128   5.202   4.631  1.0184 -0.7800 -2.6696
 2556TIP3    H229160   1.262   5.132   4.631  0.5190 -1.7807  0.6460
 2557TIP3   OH229161   1.730   4.322  14.168 -0.1162 -0.1911  0.4053
 2557TIP3    H129162   1.776   4.381  14.228  1.0899 -1.0708  0.3626
 2557TIP3    H229163   1.774   4.334  14.084  1.4186 -2.4771  0.7978
 2558TIP3   OH229164   2.692   5.517   0.405  0.6775 -0.3353 -0.2461
 2558TIP3    H129165   2.691   5.509   0.500  0.3670 -0.3607 -0.2520
 2558TIP3    H229166   2.759   5.456   0.376  1.0341 -0.0518 -0.0162
 2559TIP3   OH229167   5.002   4.363   3.792 -0.3594  0.1448 -0.6466
 2559TIP3    H129168   4.962   4.291   3.742  0.4635 -0.5257 -0.3568
 2559TIP3    H229169   5.070   4.320   3.845 -1.1486  0.8448  0.9853
 2560TIP3   OH229170   5.641   5.404   1.518  0.4780 -0.0372  0.1785
 2560TIP3    H129171   5.621   5.310   1.512  0.1852  0.0885 -1.0614
 2560TIP3    H229172   5.736   5.407   1.530  0.5617 -0.4874 -0.3143
 2561TIP3   OH229173   2.174   4.171   4.195 -0.0007 -0.0597 -0.3562
 2561TIP3    H129174   2.221   4.225   4.259  0.3087 -0.9031  0.1411
 2561TIP3    H229175   2.086   4.161   4.232  1.0793 -3.2110  1.6015
 2562TIP3   OH229176   3.597   4.675  12.470  0.0499  0.8917 -0.1588
 2562TIP3    H129177   3.660   4.694  12.540  1.9974 -1.9810 -1.0039
 2562TIP3    H229178   3.652   4.654  12.394 -1.9581 -0.2165 -1.3452
 2563TIP3   OH229179   1.259   0.728   0.639  0.8903  0.3343 -0.1389
 2563TIP3    H129180   1.302   0.796   0.690  0.3685  0.7355 -0.2312
 2563TIP3    H229181   1.218   0.670   0.703 -1.2452  1.8059 -0.1273
 2564TIP3   OH229182   0.415   5.194  16.925  0.1459  0.7585 -0.2278
 2564TIP3    H129183   0.342   5.139  16.896  1.0851 -0.4116 -0.3855
 2564TIP3    H229184   0.409   5.272  16.870 -0.4400  0.2665 -0.8741
 2565TIP3   OH229185   2.184   3.185  16.490 -0.0908  0.2234  0.2260
 2565TIP3    H129186   2.224   3.256  16.441  1.1135  1.1684  2.4894
 2565TIP3    H229187   2.093   3.214  16.505  0.0958  0.8148  0.2211
 2566TIP3   OH229188   2.644   0.703   5.707  0.4567  0.0276 -0.0482
 2566TIP3    H129189   2.563   0.663   5.738  0.8083 -2.0270 -1.6298
 2566TIP3    H229190   2.713   0.664   5.761  0.4171  1.6555  1.1938
 2567TIP3   OH229191   3.478   6.543   4.162  0.3137 -0.3797  0.1749
 2567TIP3    H129192   3.562   6.547   4.116 -0.6419  1.6205 -1.5075
 2567TIP3    H229193   3.413   6.529   4.093 -1.1408  2.5021  0.8705
 2568TIP3   OH229194   5.603   3.074  15.899 -0.1619 -0.0079  0.5684
 2568TIP3    H129195   5.538   3.054  15.831 -0.4934  0.8721  0.6251
 2568TIP3    H229196   5.681   3.027  15.871  0.1073  1.4231 -1.1561
 2569TIP3   OH229197   1.747   2.601   4.626  0.3022  0.2694 -0.5586
 2569TIP3    H129198   1.753   2.512   4.663 -0.4803 -0.0135 -1.1169
 2569TIP3    H229199   1.654   2.621   4.628  0.0348 -0.3990 -3.9136
 2570TIP3   OH229200   3.681   1.022  14.207 -0.3743  0.5294  0.0107
 2570TIP3    H129201   3.656   0.967  14.133 -0.1329  1.2061 -0.5684
 2570TIP3    H229202   3.670   1.112  14.176 -1.1435  0.8223  1.0837
 2571TIP3   OH229203   1.450   1.683  11.969 -0.1462  0.1479  0.1220
 2571TIP3    H129204   1.364   1.709  12.002  0.1076  0.9940  0.1270
 2571TIP3    H229205   1.466   1.598  12.010 -0.9668 -0.0018  0.1415
 2572TIP3   OH229206   0.238   4.875  15.079 -0.9103 -0.3534 -0.1174
 2572TIP3    H129207   0.239   4.803  15.017 -1.7228  0.0878 -0.6552
 2572TIP3    H229208   0.145   4.888  15.099 -0.7865  0.6494 -0.1551
 2573TIP3   OH229209   6.048   2.514  17.196  0.3200 -0.3561  0.0965
 2573TIP3    H129210   5.996   2.498  17.275 -2.0576  1.7029 -0.9532
 2573TIP3    H229211   6.113   2.578  17.223 -0.8985  0.8336  0.2780
 2574TIP3   OH229212   1.122   1.637  10.487  0.2084  0.5223  0.3969
 2574TIP3    H129213   1.137   1.578  10.561  0.4837 -0.3645 -0.3637
 2574TIP3    H229214   1.135   1.725  10.524  1.1946  0.0490  1.1875
 2575TIP3   OH229215   3.364   1.901  12.726 -0.6292  0.4065  0.5579
 2575TIP3    H129216   3.409   1.902  12.811 -0.1056  2.0396  0.2762
 2575TIP3    H229217   3.419   1.845  12.671  0.5026  1.4919  0.5385
 2576TIP3   OH229218   1.729   5.631  11.771  0.2395  0.2905 -0.4091
 2576TIP3    H129219   1.635   5.616  11.772  0.4867 -1.2551 -0.0190
 2576TIP3    H229220   1.742   5.706  11.830 -0.4990 -0.8779  1.2610
 2577TIP3   OH229221   5.495   2.608  13.174  0.4744 -0.0255 -0.5960
 2577TIP3    H129222   5.486   2.700  13.150  0.7259  0.0853 -0.2660
 2577TIP3    H229223   5.459   2.560  13.099 -1.8528  0.3871  0.2029
 2578TIP3   OH229224   6.275   4.202  11.544  0.4779 -0.3059 -0.9142
 2578TIP3    H129225   6.232   4.275  11.499 -0.5985 -0.6242 -0.4254
 2578TIP3    H229226   6.360   4.194  11.501  0.8770  1.6571 -0.5398
 2579TIP3   OH229227   1.243   6.606  15.334 -0.0705 -0.1352 -0.1884
 2579TIP3    H129228   1.215   6.697  15.322 -0.7135  0.1468  3.0238
 2579TIP3    H229229   1.328   6.612  15.377 -0.2809 -1.0484  0.3772
 2580TIP3   OH229230   0.389   1.462  15.025 -0.0052 -0.3881  0.4219
 2580TIP3    H129231   0.314   1.421  14.982  0.1328 -0.7176  0.4929
 2580TIP3    H229232   0.365   1.464  15.118  0.2847 -0.9628  0.5131
 2581TIP3   OH229233   5.858   4.437   1.689  0.0069  0.6178  0.9624
 2581TIP3    H129234   5.800   4.432   1.765  0.3435  1.2671  1.2717
 2581TIP3    H229235   5.804   4.412   1.615 -1.2856  3.3649  0.9250
 2582TIP3   OH229236   2.341   4.328  12.957 -0.2040  0.3075 -0.0820
 2582TIP3    H129237   2.334   4.234  12.968 -0.6603  0.1050 -1.8452
 2582TIP3    H229238   2.379   4.360  13.038  2.0083 -1.6472 -0.3097
 2583TIP3   OH229239   5.537   5.399  15.949  0.4768  0.0952 -0.2847
 2583TIP3    H129240   5.598   5.325  15.957 -1.2876 -1.4283 -0.4501
 2583TIP3    H229241   5.566   5.447  15.872  1.6462 -0.4241 -0.1753
 2584TIP3   OH229242   4.194   4.255  13.126 -0.2321 -0.8029  0.2127
 2584TIP3    H129243   4.216   4.195  13.055  0.1948  1.9107 -2.0200
 2584TIP3    H229244   4.100   4.244  13.139 -0.3567 -1.1460 -0.9609
 2585TIP3   OH229245   3.458   6.817   5.675  0.1695 -0.3456  0.0139
 2585TIP3    H129246   3.445   6.820   5.770  1.3541 -2.0773  0.2543
 2585TIP3    H229247   3.511   6.739   5.661  0.8119  0.4276 -1.9956
 2586TIP3   OH229248   2.359   5.449  10.467 -0.1249 -0.6455 -0.5890
 2586TIP3    H129249   2.287   5.477  10.410  0.6710 -0.1031 -1.3450
 2586TIP3    H229250   2.325   5.459  10.556 -1.1733 -0.9236 -0.9576
 2587TIP3   OH229251   1.499   2.714   0.082 -0.2650 -0.4498 -0.3387
 2587TIP3    H129252   1.461   2.669   0.007  1.1832  0.4289 -1.6270
 2587TIP3    H229253   1.587   2.740   0.053 -0.0717  0.8143  1.2933
 2588TIP3   OH229254   4.678   6.417  16.736  0.0545  0.4013 -0.1836
 2588TIP3    H129255   4.744   6.392  16.673 -1.2237 -0.8046 -1.0720
 2588TIP3    H229256   4.686   6.353  16.807  0.1234  0.5158 -0.0857
 2589TIP3   OH229257   1.787   1.478  11.686 -0.1989  0.1618 -0.2268
 2589TIP3    H129258   1.793   1.382  11.683  1.5891  0.2390  0.2946
 2589TIP3    H229259   1.701   1.495  11.724  0.5087 -1.2630  2.1312
 2590TIP3   OH229260   6.355   2.514  13.145  0.3309  0.3437 -0.1595
 2590TIP3    H129261   6.297   2.454  13.192  1.5161 -1.2442 -0.6544
 2590TIP3    H229262   6.345   2.490  13.053  3.4300 -1.5541 -0.0873
 2591TIP3   OH229263   6.067   1.408   0.146  0.4440 -0.3168  0.1746
 2591TIP3    H129264   6.066   1.354   0.226  2.0113 -2.3724 -1.1326
 2591TIP3    H229265   6.125   1.481   0.168 -0.2770 -0.0912  1.3859
 2592TIP3   OH229266   5.314   0.569   0.479  0.0764 -0.2034  0.3639
 2592TIP3    H129267   5.282   0.485   0.447  0.1252  0.2406 -0.9133
 2592TIP3    H229268   5.337   0.554   0.570 -1.2593 -1.2092  0.5472
 2593TIP3   OH229269   2.455   1.630  13.973  0.1000 -0.4519  0.0700
 2593TIP3    H129270   2.435   1.542  13.941 -1.7176  0.0404 -0.2288
 2593TIP3    H229271   2.534   1.655  13.926  0.6973 -1.9696  0.2501
 2594TIP3   OH229272   2.131   2.686   1.071 -0.4679 -0.0533  0.1641
 2594TIP3    H129273   2.082   2.622   1.123  0.8340 -1.8049 -0.7185
 2594TIP3    H229274   2.220   2.680   1.104 -0.3595  1.4584  0.1911
 2595TIP3   OH229275   0.856   0.589  11.252 -0.8699  0.8534 -0.2052
 2595TIP3    H129276   0.830   0.506  11.293  0.5344  1.0906  1.2602
 2595TIP3    H229277   0.850   0.573  11.158 -0.5612 -0.9512  0.0613
 2596TIP3   OH229278   4.393   5.650  10.673  0.3115 -0.3488  0.1348
 2596TIP3    H129279   4.392   5.636  10.768 -0.0160 -1.1582  0.0234
 2596TIP3    H229280   4.325   5.716  10.658  1.1953  0.6735  0.5824
 2597TIP3   OH229281   3.949   2.415   3.881 -0.3223 -0.2024 -0.2490
 2597TIP3    H129282   3.906   2.393   3.798  0.6799  0.1702 -0.8735
 2597TIP3    H229283   4.038   2.382   3.871 -0.8389 -2.2745  1.5967
 2598TIP3   OH229284   4.277   0.180   0.292 -0.9103 -0.1878  0.0154
 2598TIP3    H129285   4.365   0.187   0.330 -0.5816  2.9256 -1.2008
 2598TIP3    H229286   4.235   0.110   0.343  1.9921 -1.2180  1.1086
 2599TIP3   OH229287   3.522   2.661   2.106  0.3371  0.4111 -0.4884
 2599TIP3    H129288   3.467   2.656   2.184 -1.9090  0.1726 -2.0386
 2599TIP3    H229289   3.507   2.749   2.072  1.5797  0.6369 -0.4953
 2600TIP3   OH229290   6.109   1.401  14.615  0.2611 -0.1326 -0.2827
 2600TIP3    H129291   6.089   1.478  14.667 -0.0535 -0.0959 -0.4536
 2600TIP3    H229292   6.198   1.416  14.583  0.5763 -0.3071  0.5047
 2601TIP3   OH229293   4.443   4.576  12.115 -1.1349 -0.2124  0.6548
 2601TIP3    H129294   4.410   4.613  12.197  0.5918  0.3586  1.1030
 2601TIP3    H229295   4.434   4.648  12.052 -0.7870 -0.0668  0.7692
 2602TIP3   OH229296   1.986   5.021   1.268  0.6684 -0.6064 -0.3342
 2602TIP3    H129297   1.982   4.926   1.261  0.8639 -0.8590  2.4542
 2602TIP3    H229298   1.975   5.039   1.362 -0.4771  2.1761 -0.9368
 2603TIP3   OH229299   1.694   1.356  14.688  0.2802 -0.1062 -0.5451
 2603TIP3    H129300   1.653   1.399  14.612  1.4790  0.6843 -0.7619
 2603TIP3    H229301   1.784   1.339  14.660  0.2159 -1.4826  0.0635
 2604TIP3   OH229302   5.660   4.249  16.938 -0.0019  0.6082  0.3530
 2604TIP3    H129303   5.683   4.241  16.845  0.3310  0.4481  0.4509
 2604TIP3    H229304   5.673   4.161  16.973 -1.4844  0.3302  0.2371
 2605TIP3   OH229305   4.667   6.603  12.069 -0.1419  0.9227  0.3883
 2605TIP3    H129306   4.619   6.524  12.046  0.3206  1.0810 -1.1883
 2605TIP3    H229307   4.604   6.657  12.118 -0.3059 -0.6121  1.9044
 2606TIP3   OH229308   3.769   5.118   6.637 -0.5971  0.3155 -0.0650
 2606TIP3    H129309   3.853   5.140   6.676 -0.6698  0.0754  0.2320
 2606TIP3    H229310   3.790   5.052   6.571 -0.6164 -0.1408  0.3809
 2607TIP3   OH229311   3.319   1.266  17.205  0.5986 -0.1195  0.5672
 2607TIP3    H129312   3.303   1.318  17.126 -1.8835  0.4729  1.4124
 2607TIP3    H229313   3.400   1.218  17.186  0.9697  1.2979 -1.6572
 2608TIP3   OH229314   3.502   0.825  12.782  0.2483 -0.1656  0.3193
 2608TIP3    H129315   3.485   0.902  12.836  0.5176  0.0729  0.0597
 2608TIP3    H229316   3.415   0.789  12.764  0.2019 -0.7065  1.5888
 2609TIP3   OH229317   6.492   2.256   5.732  0.3919  0.0188  0.2929
 2609TIP3    H129318   6.456   2.325   5.788  0.2309  0.2405 -0.0769
 2609TIP3    H229319   6.415   2.209   5.700  0.4344  0.4008 -0.3816
 2610TIP3   OH229320   5.937   2.237   5.272 -0.3387  0.1547  0.1763
 2610TIP3    H129321   5.882   2.183   5.328  0.5781 -0.2437  0.7086
 2610TIP3    H229322   6.007   2.269   5.329  0.1248  0.4578 -0.5390
 2611TIP3   OH229323   6.668   1.508   1.685  0.0750  0.5142  0.2008
 2611TIP3    H129324   6.731   1.580   1.678  1.6821 -0.9234 -0.4257
 2611TIP3    H229325   6.689   1.451   1.612 -0.8963 -0.8198  0.9454
 2612TIP3   OH229326   0.393   3.961  14.369 -0.0366  0.0394 -0.0161
 2612TIP3    H129327   0.451   3.915  14.429  0.4933 -1.7819 -1.8800
 2612TIP3    H229328   0.444   3.971  14.288 -1.8728 -0.5488 -1.2860
 2613TIP3   OH229329   2.586   3.452   0.077  0.1249  0.5753 -0.2008
 2613TIP3    H129330   2.629   3.420  -0.002  0.6263  0.9807 -0.0916
 2613TIP3    H229331   2.503   3.404   0.080  1.5919 -1.9799  0.8978
 2614TIP3   OH229332   5.593   0.757  15.218 -0.0751 -0.1450  0.0516
 2614TIP3    H129333   5.517   0.770  15.161 -0.0034  0.3050  0.0555
 2614TIP3    H229334   5.610   0.844  15.255 -0.3744 -0.5060  1.0755
 2615TIP3   OH229335   2.036   5.237  11.806  0.1916  0.1132 -0.5749
 2615TIP3    H129336   1.979   5.304  11.769 -2.4240 -2.0661 -0.6113
 2615TIP3    H229337   2.113   5.237  11.749  0.1643  2.9282 -0.6676
 2616TIP3   OH229338   1.214   5.414  16.988  0.9587  0.5360 -0.6649
 2616TIP3    H129339   1.133   5.364  17.001  0.2006  1.3703 -2.1212
 2616TIP3    H229340   1.224   5.463  17.070 -0.0222  0.4646 -0.4920
 2617TIP3   OH229341   4.862   2.297  13.439 -0.1421  0.3222 -0.4198
 2617TIP3    H129342   4.954   2.301  13.412 -0.1375  0.4058 -0.3897
 2617TIP3    H229343   4.817   2.356  13.379 -0.0512  0.9281  0.1069
 2618TIP3   OH229344   2.859   5.045   6.535 -0.7161  0.4360  0.0133
 2618TIP3    H129345   2.905   5.065   6.454 -1.0927  2.7130  0.3258
 2618TIP3    H229346   2.927   5.016   6.596 -0.2244  0.2026 -0.6481
 2619TIP3   OH229347   6.110   4.842  10.689 -0.1269  0.2221  0.2323
 2619TIP3    H129348   6.192   4.882  10.718  0.3714 -1.4987  1.2007
 2619TIP3    H229349   6.045   4.869  10.754  0.0571  0.0192  0.4980
 2620TIP3   OH229350   3.975   1.772  15.096  0.1820 -0.1037 -0.0816
 2620TIP3    H129351   3.983   1.801  15.006  1.1259  0.7757  0.2796
 2620TIP3    H229352   4.028   1.834  15.147 -3.4245  1.8044  1.5701
 2621TIP3   OH229353   1.374   3.394   5.207  0.0839 -0.3350 -0.0647
 2621TIP3    H129354   1.351   3.434   5.123  1.9673  0.3044 -0.2857
 2621TIP3    H229355   1.337   3.453   5.272 -0.1257 -0.0679 -0.4217
 2622TIP3   OH229356   4.866   6.646  16.196  0.0372  0.3643 -0.0119
 2622TIP3    H129357   4.922   6.658  16.120 -0.3479 -2.4096 -0.7979
 2622TIP3    H229358   4.927   6.642  16.270  0.8407 -1.8215 -0.7599
 2623TIP3   OH229359   3.201   4.257  12.252 -0.3945 -0.7532  0.0665
 2623TIP3    H129360   3.263   4.186  12.234 -0.7804 -0.7010 -1.5177
 2623TIP3    H229361   3.117   4.224  12.218 -0.7812  0.0683  0.2194
 2624TIP3   OH229362   6.177   3.470   2.049 -0.5907  0.2533 -0.1758
 2624TIP3    H129363   6.243   3.518   2.000 -0.2140  0.9436  0.9993
 2624TIP3    H229364   6.226   3.424   2.118 -0.9726 -1.6014 -1.0963
 2625TIP3   OH229365   6.421   0.602  14.464  0.1173  0.1402 -0.0730
 2625TIP3    H129366   6.515   0.598  14.481  0.3117  2.3757 -0.3919
 2625TIP3    H229367   6.413   0.654  14.384 -1.2734 -2.1108 -1.4455
 2626TIP3   OH229368   3.069   3.444   1.156 -0.3555  0.0687  0.0981
 2626TIP3    H129369   3.058   3.525   1.105 -1.4779 -0.4796 -0.5545
 2626TIP3    H229370   3.003   3.451   1.226 -0.8232 -0.5208 -0.2805
 2627TIP3   OH229371   3.614   2.319  14.115 -0.7692  0.1024 -0.0706
 2627TIP3    H129372   3.604   2.330  14.210 -2.1157 -1.1342 -0.0478
 2627TIP3    H229373   3.556   2.384  14.077 -1.4157 -0.4418 -0.0232
 2628TIP3   OH229374   6.564   1.127  16.080  0.3301 -0.2477  0.3009
 2628TIP3    H129375   6.542   1.147  15.989 -1.2547  0.2878  0.8056
 2628TIP3    H229376   6.647   1.172  16.094 -0.8865  2.1242  0.0148
 2629TIP3   OH229377   4.244   1.634  17.047  0.2903  0.1292 -0.2741
 2629TIP3    H129378   4.289   1.717  17.068  0.5097  0.5198 -2.1637
 2629TIP3    H229379   4.315   1.571  17.038  0.1800 -0.0884  0.3737
 2630TIP3   OH229380   3.500   1.326  11.733  0.7650  0.4837 -0.1910
 2630TIP3    H129381   3.531   1.416  11.727  1.9045  0.1497  0.4446
 2630TIP3    H229382   3.479   1.301  11.643  0.9364  1.2091 -0.4368
 2631TIP3   OH229383   3.970   4.415   4.003 -0.3015  0.3284  0.0087
 2631TIP3    H129384   3.904   4.468   3.958  0.2657  0.8207 -0.2519
 2631TIP3    H229385   4.053   4.441   3.962  0.0246 -0.4532  0.1764
 2632TIP3   OH229386   0.456   2.885  15.178 -0.3075 -0.7303  0.5146
 2632TIP3    H129387   0.414   2.873  15.263 -0.8766 -1.3104  0.1484
 2632TIP3    H229388   0.514   2.810  15.168 -0.1182 -0.5790  0.4581
 2633TIP3   OH229389   6.646   5.112   1.761 -0.9097 -0.1584  0.5333
 2633TIP3    H129390   6.734   5.137   1.787  0.4935 -2.5877 -1.5976
 2633TIP3    H229391   6.651   5.099   1.666 -3.9497  1.1383  0.1402
 2634TIP3   OH229392   0.422   3.439   6.354  0.1491 -0.0745  0.1355
 2634TIP3    H129393   0.422   3.494   6.432 -0.6430 -2.4558  1.8759
 2634TIP3    H229394   0.425   3.350   6.388 -1.2446 -1.1908 -2.5352
 2635TIP3   OH229395   5.328   4.147   3.119 -0.4907 -0.0571 -0.4223
 2635TIP3    H129396   5.403   4.089   3.133  0.0331  0.8613  0.6221
 2635TIP3    H229397   5.280   4.106   3.047  0.4782 -1.1823 -0.4509
 2636TIP3   OH229398   5.405   1.665   0.835 -0.0715  0.2627 -0.5254
 2636TIP3    H129399   5.323   1.707   0.863 -0.5754 -0.7409 -0.4668
 2636TIP3    H229400   5.463   1.737   0.814 -1.4238  0.9901 -1.8507
 2637TIP3   OH229401   1.042   1.108   3.227  0.0672  0.1328  0.0230
 2637TIP3    H129402   0.964   1.127   3.174  0.9824  0.2828 -1.2920
 2637TIP3    H229403   1.080   1.030   3.187  1.1300  0.6283  0.0451
 2638TIP3   OH229404   0.764   3.434  14.723 -0.1017 -0.1851 -0.0000
 2638TIP3    H129405   0.761   3.433  14.819  3.9483 -1.3598  0.1926
 2638TIP3    H229406   0.856   3.423  14.702 -0.6916  1.8498 -4.0637
 2639TIP3   OH229407   1.851   5.254   4.880 -0.4998 -0.5744  0.0967
 2639TIP3    H129408   1.796   5.331   4.872 -0.4692 -0.5180  0.4100
 2639TIP3    H229409   1.869   5.227   4.790  1.4601  1.1682 -0.0569
 2640TIP3   OH229410   0.843   5.370   6.003 -0.4423 -0.0420 -0.2722
 2640TIP3    H129411   0.929   5.337   5.975  0.3492  0.1270  1.8498
 2640TIP3    H229412   0.845   5.463   5.981 -0.0323 -0.0179 -0.1485
 2641TIP3   OH229413   1.219   1.881  14.417  0.4094 -0.4926 -0.1861
 2641TIP3    H129414   1.221   1.900  14.323 -2.1365  0.0931 -0.1399
 2641TIP3    H229415   1.203   1.787  14.422 -0.3763 -0.3651 -0.3276
 2642TIP3   OH229416   0.120   3.406  16.112  0.2547  0.5182 -0.1041
 2642TIP3    H129417   0.057   3.441  16.174  1.2840  1.8379  0.2240
 2642TIP3    H229418   0.154   3.483  16.065 -0.0207 -0.3862 -1.8347
 2643TIP3   OH229419   2.484   1.505  13.482  0.6464 -0.0606 -0.1038
 2643TIP3    H129420   2.443   1.468  13.560  1.6696 -0.1168  0.4127
 2643TIP3    H229421   2.544   1.571  13.516  0.6925  0.2967 -0.8800
 2644TIP3   OH229422   2.595   5.850  16.679 -0.0060  0.1781 -0.0906
 2644TIP3    H129423   2.499   5.843  16.676 -0.0263  0.6964 -0.8222
 2644TIP3    H229424   2.621   5.845  16.587  0.6610  0.1981  0.0998
 2645TIP3   OH229425   5.595   5.106   1.516  0.0970 -0.4819 -0.0033
 2645TIP3    H129426   5.632   5.018   1.510 -0.9822 -0.8441 -2.1056
 2645TIP3    H229427   5.600   5.140   1.427  0.2220  1.4881  0.7319
 2646TIP3   OH229428   3.924   0.024  16.550 -0.1434  0.1592  0.6116
 2646TIP3    H129429   3.974  -0.031  16.490 -0.6972  0.9672 -0.6150
 2646TIP3    H229430   3.991   0.067  16.604  0.3157 -1.2460  1.1828
 2647TIP3   OH229431   3.436   4.453   3.920  0.4012  0.0092 -0.4472
 2647TIP3    H129432   3.384   4.501   3.985 -0.6875 -0.2900 -1.0880
 2647TIP3    H229433   3.517   4.503   3.913  0.3615  0.2772  0.8394
 2648TIP3   OH229434   1.819   4.139   3.895  0.3070  0.1126 -0.0539
 2648TIP3    H129435   1.798   4.121   3.987 -1.9730 -0.4613 -0.6475
 2648TIP3    H229436   1.784   4.064   3.847 -1.4273  1.9151 -1.6989
 2649TIP3   OH229437   0.062   1.663   6.161 -0.7323  0.1132  0.0337
 2649TIP3    H129438   0.073   1.731   6.227 -0.0529  0.7854 -0.7688
 2649TIP3    H229439  -0.001   1.699   6.099  0.1943  0.3185 -0.7925
 2650TIP3   OH229440   0.354   2.401   4.449  0.0832 -0.1510  0.7395
 2650TIP3    H129441   0.259   2.399   4.460 -0.0132  1.8282  0.4584
 2650TIP3    H229442   0.375   2.493   4.436  1.8402 -0.7614 -1.0641
 2651TIP3   OH229443   5.318   3.826   2.049  0.0633 -0.0013  0.2970
 2651TIP3    H129444   5.301   3.886   2.121  1.5563  0.8798 -0.0563
 2651TIP3    H229445   5.310   3.880   1.970  2.6293  0.0689  0.0376
 2652TIP3   OH229446   2.373   6.690   1.411 -0.4926  0.2652  0.1257
 2652TIP3    H129447   2.310   6.636   1.459 -0.3814 -0.0893 -0.1191
 2652TIP3    H229448   2.322   6.764   1.378 -0.6137  0.4001  0.6043
 2653TIP3   OH229449   1.135   4.994   5.204 -0.3325  0.2073  0.0167
 2653TIP3    H129450   1.126   5.058   5.133  0.1637 -0.4268 -0.6264
 2653TIP3    H229451   1.080   4.921   5.177  1.0572 -0.6722 -0.4548
 2654TIP3   OH229452   5.350   4.838   1.718 -0.0590 -0.8044  0.1532
 2654TIP3    H129453   5.420   4.776   1.698 -0.5842 -1.7234  1.1022
 2654TIP3    H229454   5.270   4.793   1.692 -0.4275 -0.4385  0.6480
 2655TIP3   OH229455   0.141   6.801   0.602 -0.1945 -0.1387 -0.6827
 2655TIP3    H129456   0.064   6.855   0.584 -0.6421 -0.6778 -0.4061
 2655TIP3    H229457   0.115   6.713   0.577  0.0249 -0.4755  0.2495
 2656TIP3   OH229458   2.614   5.431   2.000 -0.4790 -0.7302 -0.0685
 2656TIP3    H129459   2.566   5.369   1.944 -0.2633 -0.9962  0.0371
 2656TIP3    H229460   2.704   5.397   2.000  0.1328  0.7980 -1.7588
 2657TIP3   OH229461   4.937   1.747   1.671  0.5494  0.5131  0.1812
 2657TIP3    H129462   4.972   1.835   1.682  2.0236  0.1657 -1.5997
 2657TIP3    H229463   4.958   1.723   1.581  2.4558 -2.6449  1.3828
 2658TIP3   OH229464   1.796   5.071   0.902  0.3741 -0.8367  1.1431
 2658TIP3    H129465   1.871   5.060   0.843 -0.1939  1.1156 -0.0230
 2658TIP3    H229466   1.805   5.160   0.935 -1.8098 -0.2979  0.3896
 2659TIP3   OH229467   5.878   3.031  11.560 -0.4984 -0.5485  0.2476
 2659TIP3    H129468   5.934   2.976  11.614 -0.9971 -1.1456  0.1651
 2659TIP3    H229469   5.802   3.049  11.614  0.4419  1.5254  0.9216
 2660TIP3   OH229470   0.230   3.173   5.319  0.2326  0.8649 -0.1077
 2660TIP3    H129471   0.234   3.209   5.408 -0.1215  1.3917 -0.2990
 2660TIP3    H229472   0.140   3.192   5.290 -0.9522 -2.8611  0.9018
 2661TIP3   OH229473   4.280   5.592  14.864  0.5173  0.0170  0.1407
 2661TIP3    H129474   4.335   5.651  14.813 -0.0032 -0.2600 -0.7467
 2661TIP3    H229475   4.255   5.643  14.941  0.2450  0.8743 -0.5197
 2662TIP3   OH229476   1.626   2.421  15.838  0.4956 -0.1242  0.5286
 2662TIP3    H129477   1.622   2.354  15.906  0.5346 -0.0013  0.6514
 2662TIP3    H229478   1.713   2.412  15.800  0.0884 -0.9027 -0.2254
 2663TIP3   OH229479   0.330   1.246  11.863 -0.0534 -0.2436  0.0865
 2663TIP3    H129480   0.312   1.321  11.806 -0.3257  0.0386  0.5401
 2663TIP3    H229481   0.425   1.246  11.874 -0.1197  0.4668  0.6695
 2664TIP3   OH229482   1.374   0.348  16.114 -0.0234  0.2258 -0.4198
 2664TIP3    H129483   1.315   0.420  16.092  1.0051  1.2716  0.2061
 2664TIP3    H229484   1.357   0.332  16.207 -0.2919 -0.4012 -0.5690
 2665TIP3   OH229485   5.142   5.502  13.674 -0.0224 -0.2352  0.6813
 2665TIP3    H129486   5.076   5.571  13.671  0.0477 -0.2244 -1.0339
 2665TIP3    H229487   5.112   5.437  13.611  0.6665 -1.0871  1.2226
 2666TIP3   OH229488   1.781   5.867  11.930 -0.3867  0.9415  0.4233
 2666TIP3    H129489   1.691   5.865  11.962 -0.0563 -0.6491  1.2542
 2666TIP3    H229490   1.803   5.960  11.929 -2.2110  1.4002 -0.3162
 2667TIP3   OH229491   4.106   4.347   2.835  0.3411 -0.0027  0.3789
 2667TIP3    H129492   4.046   4.295   2.888  0.5282 -1.4068 -0.7556
 2667TIP3    H229493   4.068   4.435   2.835 -1.3418 -0.7125  0.2255
 2668TIP3   OH229494   6.127   5.097   4.717  0.5417  0.1328 -0.2746
 2668TIP3    H129495   6.192   5.157   4.679 -0.6153  1.1877 -0.6220
 2668TIP3    H229496   6.152   5.091   4.809 -0.4138  2.6464  0.1902
 2669TIP3   OH229497   1.600   5.325  12.792  0.3622  0.5923 -0.6701
 2669TIP3    H129498   1.627   5.253  12.734 -0.6974  0.1193 -0.6034
 2669TIP3    H229499   1.678   5.347  12.842  0.2700 -1.7363  0.5909
 2670TIP3   OH229500   4.329   6.119   2.716  0.5043  0.0288  0.1940
 2670TIP3    H129501   4.265   6.159   2.775  0.6118 -0.1913  0.4602
 2670TIP3    H229502   4.319   6.168   2.634 -0.1301 -0.1130  0.1771
 2671TIP3   OH229503   4.300   0.908   5.922 -0.0065  0.4008  0.1839
 2671TIP3    H129504   4.295   0.814   5.937 -0.1085  0.7452  2.6219
 2671TIP3    H229505   4.212   0.933   5.894  0.5408 -0.5058 -2.4183
 2672TIP3   OH229506   5.092   1.519   0.434  0.1924 -0.6575 -0.2339
 2672TIP3    H129507   5.008   1.516   0.479 -0.4502  4.1519 -0.8211
 2672TIP3    H229508   5.156   1.530   0.505 -0.3110  1.5793 -0.0768
 2673TIP3   OH229509   5.948   0.183  14.362 -0.5012  0.3543  0.1310
 2673TIP3    H129510   5.915   0.157  14.276  0.4641 -0.3854 -0.0216
 2673TIP3    H229511   5.870   0.184  14.418 -0.8416 -1.2020 -0.2780
 2674TIP3   OH229512   2.564   0.181  17.006  0.0233  0.0509 -0.1669
 2674TIP3    H129513   2.658   0.171  16.996 -0.3602 -1.7332 -2.3255
 2674TIP3    H229514   2.530   0.092  17.008 -1.6341  0.6757  0.6773
 2675TIP3   OH229515   1.482   3.337  12.608 -0.4895  0.4513 -0.6729
 2675TIP3    H129516   1.478   3.431  12.626 -0.5825  0.0708  1.3175
 2675TIP3    H229517   1.394   3.315  12.578 -0.9055  0.7071  0.3412
 2676TIP3   OH229518   4.177   3.135  15.824  0.4923  0.2531  0.3182
 2676TIP3    H129519   4.245   3.091  15.875 -0.4502 -1.3830  0.1715
 2676TIP3    H229520   4.150   3.070  15.759 -0.4009  1.3025 -0.3734
 2677TIP3   OH229521   5.013   6.452   1.612  0.3640  0.1387  0.1428
 2677TIP3    H129522   4.953   6.498   1.554  1.9113  2.8304  0.6013
 2677TIP3    H229523   5.088   6.431   1.556 -0.1110 -1.4356  0.0624
 2678TIP3   OH229524   4.445   1.974   5.134 -0.2285 -0.2592 -0.1148
 2678TIP3    H129525   4.537   1.974   5.161  0.3844 -1.1453 -2.1372
 2678TIP3    H229526   4.432   1.890   5.091 -2.0259 -0.1765  0.2327
 2679TIP3   OH229527   1.202   5.179  15.281  0.8177 -0.4403  0.4444
 2679TIP3    H129528   1.229   5.115  15.215  3.1943  0.8218  0.1276
 2679TIP3    H229529   1.120   5.144  15.316 -0.5752 -1.0511 -3.2431
 2680TIP3   OH229530   4.086   4.521  14.901  0.2854 -0.2246  0.3806
 2680TIP3    H129531   4.012   4.461  14.911  0.0091 -0.0343 -0.4620
 2680TIP3    H229532   4.153   4.470  14.857 -0.2282  0.3027 -1.0177
 2681TIP3   OH229533   4.381   2.488  14.041 -0.7378  0.1446  0.0702
 2681TIP3    H129534   4.394   2.548  13.968 -0.5796  0.4523  0.3497
 2681TIP3    H229535   4.469   2.460  14.066 -0.8727 -1.0543 -0.7631
 2682TIP3   OH229536   1.519   0.275   2.277 -0.0794  0.8841 -0.4819
 2682TIP3    H129537   1.609   0.283   2.309 -0.1863 -0.9026  0.3432
 2682TIP3    H229538   1.529   0.269   2.181  0.8861 -1.2240 -0.2953
 2683TIP3   OH229539   3.406   4.040   1.322 -0.0816 -0.4435  0.2556
 2683TIP3    H129540   3.380   4.003   1.237  0.1566  0.6013 -0.2871
 2683TIP3    H229541   3.370   4.129   1.321 -2.5310 -1.3490  2.4271
 2684TIP3   OH229542   6.242   2.446   4.068 -0.1121 -0.2845  0.3217
 2684TIP3    H129543   6.156   2.484   4.086  0.4522  1.1999 -0.0567
 2684TIP3    H229544   6.302   2.495   4.123  1.0186  1.3911 -2.3109
 2685TIP3   OH229545   6.535   3.937  14.340 -0.1431  0.1441  0.0693
 2685TIP3    H129546   6.466   3.884  14.299  1.3399 -0.5983 -1.5167
 2685TIP3    H229547   6.523   3.924  14.434 -2.5602  0.5297 -0.1497
 2686TIP3   OH229548   0.769   1.563   4.441  0.0108 -0.0818  0.4296
 2686TIP3    H129549   0.735   1.644   4.402  0.4418  1.6548  3.4782
 2686TIP3    H229550   0.864   1.572   4.437  0.0603 -0.4053  0.8339
 2687TIP3   OH229551   2.467   3.716   0.904 -0.4971  0.1050  0.6244
 2687TIP3    H129552   2.541   3.777   0.902 -0.7154  0.3385 -0.3478
 2687TIP3    H229553   2.390   3.772   0.904 -0.7571 -0.1552 -2.7256
 2688TIP3   OH229554   4.428   5.393  15.714  0.2879 -0.2245 -0.6250
 2688TIP3    H129555   4.387   5.306  15.716 -0.2089  0.0306  0.4856
 2688TIP3    H229556   4.361   5.452  15.748  1.0054  0.4450 -0.3592
 2689TIP3   OH229557   5.322   5.711  12.991  0.8670  0.4922 -0.4856
 2689TIP3    H129558   5.334   5.800  12.956 -1.1989  0.4785 -1.2510
 2689TIP3    H229559   5.257   5.671  12.934  1.8289 -1.5532 -0.1701
 2690TIP3   OH229560   4.342   1.766   0.393 -0.4166 -0.0818  0.1193
 2690TIP3    H129561   4.333   1.857   0.365  1.1248 -0.5025 -1.8034
 2690TIP3    H229562   4.296   1.715   0.326  3.4259 -1.1112 -1.8945
 2691TIP3   OH229563   4.499   3.926   5.539 -0.1230 -0.1877  0.1130
 2691TIP3    H129564   4.579   3.920   5.592 -0.3376 -1.2682  0.3406
 2691TIP3    H229565   4.519   3.992   5.473  0.9353 -0.3935  0.2094
 2692TIP3   OH229566   1.876   1.803   4.073 -0.0263 -0.4163 -0.2310
 2692TIP3    H129567   1.897   1.881   4.021 -0.9654  1.1576  1.6807
 2692TIP3    H229568   1.941   1.802   4.143 -0.6841 -0.7219  0.3894
 2693TIP3   OH229569   3.761   2.768   5.117  0.1353  0.5871 -0.2386
 2693TIP3    H129570   3.713   2.692   5.149 -0.7854  0.2497 -2.3155
 2693TIP3    H229571   3.701   2.811   5.056  0.5085  3.1947  1.1359
 2694TIP3   OH229572   3.629   0.938   3.306 -0.2602  0.1085 -0.3982
 2694TIP3    H129573   3.576   0.896   3.374  1.1775  1.1058  1.3797
 2694TIP3    H229574   3.701   0.980   3.353  0.1474  1.8190 -2.4322
 2695TIP3   OH229575   3.715   1.975  12.483 -0.0180  0.1957 -0.0027
 2695TIP3    H129576   3.783   2.030  12.524  0.5022 -0.0587 -0.5155
 2695TIP3    H229577   3.760   1.893  12.462 -0.7828 -0.4128  0.7170
 2696TIP3   OH229578   0.920   2.689   4.580 -0.3122  0.5008 -0.4888
 2696TIP3    H129579   0.987   2.735   4.630 -1.5433  3.6482 -1.6165
 2696TIP3    H229580   0.843   2.689   4.637 -0.4265  0.2001 -0.6415
 2697TIP3   OH229581   2.635   0.328  15.804  0.5500 -0.1598  0.0339
 2697TIP3    H129582   2.642   0.422  15.787  0.0201 -0.0520  0.4122
 2697TIP3    H229583   2.645   0.287  15.718  3.2890  0.1098  0.1541
 2698TIP3   OH229584   3.375   5.758   4.938 -0.2244  0.2063 -0.0897
 2698TIP3    H129585   3.379   5.663   4.929  1.7383  0.1186  1.4423
 2698TIP3    H229586   3.386   5.774   5.031  0.2616  1.9720 -0.4314
 2699TIP3   OH229587   0.666   0.453  11.683 -0.0474  0.2525  0.4083
 2699TIP3    H129588   0.577   0.436  11.652  0.4739  0.3792 -1.2125
 2699TIP3    H229589   0.707   0.367  11.687  0.3800  0.3879 -0.8425
 2700TIP3   OH229590   1.627   0.870   3.171 -0.3509  0.7526  0.4700
 2700TIP3    H129591   1.693   0.893   3.237  1.3032 -0.9886 -0.5099
 2700TIP3    H229592   1.639   0.776   3.158 -1.7308  0.7891 -1.1536
 2701TIP3   OH229593   0.578   3.671  12.776 -0.2752 -0.2401 -0.1496
 2701TIP3    H129594   0.634   3.604  12.736  1.0083  0.6197  0.1638
 2701TIP3    H229595   0.516   3.622  12.830  1.2283 -1.1507  0.7907
 2702TIP3   OH229596   6.316   4.799  14.785 -0.1030 -0.1340 -0.1605
 2702TIP3    H129597   6.222   4.807  14.771 -0.1418 -1.0337 -0.4412
 2702TIP3    H229598   6.355   4.826  14.701 -0.0702  1.0897  0.2398
 2703TIP3   OH229599   3.834   6.133   6.607  0.0390  0.1643  0.1007
 2703TIP3    H129600   3.820   6.045   6.644 -2.4813 -0.5120 -2.2554
 2703TIP3    H229601   3.864   6.186   6.681  0.5965 -2.4169  1.8042
 2704TIP3   OH229602   6.381   3.194   5.741 -0.1096  0.2119 -0.7289
 2704TIP3    H129603   6.311   3.146   5.697 -0.7380  0.5783 -0.1261
 2704TIP3    H229604   6.418   3.250   5.673 -0.3919  0.0163 -1.0435
 2705TIP3   OH229605   3.303   4.664   0.968 -0.1488  0.3639 -0.0781
 2705TIP3    H129606   3.208   4.669   0.968 -0.1720 -0.0043  1.2812
 2705TIP3    H229607   3.323   4.572   0.984  0.4344  0.8369  2.0941
 2706TIP3   OH229608   5.247   4.699  16.961  0.0448  0.1382 -0.1879
 2706TIP3    H129609   5.228   4.735  16.875 -0.6002 -0.2357 -0.2039
 2706TIP3    H229610   5.340   4.677  16.959 -0.1389 -0.5478 -1.0258
 2707TIP3   OH229611   6.144   1.012   0.009 -0.3893 -0.1305 -0.3427
 2707TIP3    H129612   6.223   1.051  -0.028 -0.7267 -0.7542 -1.7441
 2707TIP3    H229613   6.158   1.014   0.103  0.9445  0.5164 -0.5500
 2708TIP3   OH229614   5.809   1.294   0.927 -0.1233  0.2319  0.6907
 2708TIP3    H129615   5.741   1.355   0.959  0.1810 -0.4459  2.6890
 2708TIP3    H229616   5.767   1.208   0.927 -0.1943  0.2350 -1.0471
 2709TIP3   OH229617   4.146   1.551  15.128 -0.4758 -0.1143  0.1562
 2709TIP3    H129618   4.066   1.603  15.137 -0.9457 -0.5952 -1.1887
 2709TIP3    H229619   4.115   1.462  15.111  0.3391 -0.6391  1.3112
 2710TIP3   OH229620   0.881   5.530   4.638  0.6135 -0.2834 -0.0217
 2710TIP3    H129621   0.830   5.574   4.706 -1.2789  0.3681 -1.8199
 2710TIP3    H229622   0.966   5.575   4.638 -1.1473  3.1623 -1.5791
 2711TIP3   OH229623   0.661   2.299   6.007 -0.4899 -0.2484  0.2413
 2711TIP3    H129624   0.632   2.215   6.044  1.2785 -0.0739  2.1039
 2711TIP3    H229625   0.601   2.363   6.044 -0.6823 -0.4650  0.3076
 2712TIP3   OH229626   3.941   1.408  14.894 -0.6471 -0.3228 -0.3699
 2712TIP3    H129627   3.862   1.381  14.847 -0.7918  0.8783 -0.8447
 2712TIP3    H229628   3.978   1.478  14.840 -1.3136  1.7245  1.7060
 2713TIP3   OH229629   4.747   5.440  15.390  0.7344  0.5172  0.3554
 2713TIP3    H129630   4.724   5.527  15.355  0.2088  0.0609 -0.4623
 2713TIP3    H229631   4.749   5.384  15.313 -0.9416 -0.6250  1.1278
 2714TIP3   OH229632   1.539   2.597  14.465  0.1290 -0.3990  0.3512
 2714TIP3    H129633   1.516   2.567  14.553 -1.8764 -0.0566 -0.0105
 2714TIP3    H229634   1.454   2.613  14.423  1.0868  0.9102 -1.1368
 2715TIP3   OH229635   3.447   6.494  11.851  0.2698 -0.2197  0.3975
 2715TIP3    H129636   3.398   6.576  11.843  1.8208  0.8447  1.4639
 2715TIP3    H229637   3.514   6.499  11.783  0.0205 -0.8795  0.0947
 2716TIP3   OH229638   0.769   5.970   5.303  0.4434 -0.0346  0.2076
 2716TIP3    H129639   0.807   6.056   5.284 -0.7764  0.3238 -0.6876
 2716TIP3    H229640   0.676   5.980   5.281  0.4645 -1.8325 -0.7372
 2717TIP3   OH229641   1.391   0.549  11.889 -0.3596 -0.2986  0.6865
 2717TIP3    H129642   1.455   0.510  11.949 -0.5901 -0.5540  0.7664
 2717TIP3    H229643   1.369   0.633  11.930  2.5361  1.4343 -1.0881
 2718TIP3   OH229644   3.696   1.363  16.281  0.3533  0.1331 -0.1765
 2718TIP3    H129645   3.741   1.281  16.262 -0.0107 -0.0739 -0.1479
 2718TIP3    H229646   3.767   1.426  16.296  0.6203 -0.6194  1.7595
 2719TIP3   OH229647   0.253   1.661  13.736  0.4936  0.4188 -0.2308
 2719TIP3    H129648   0.289   1.703  13.814  1.2872 -0.3754 -0.1707
 2719TIP3    H229649   0.158   1.668  13.747  0.6000 -0.1200  1.0361
 2720TIP3   OH229650   1.288   0.232   1.415  0.3930  0.2325  0.6024
 2720TIP3    H129651   1.218   0.187   1.368  0.7640  1.0120 -0.7389
 2720TIP3    H229652   1.276   0.208   1.507 -1.9413  0.7731  0.4572
 2721TIP3   OH229653   6.028   4.890  13.235 -0.0781 -0.0834  0.8457
 2721TIP3    H129654   6.113   4.856  13.263  0.1050 -1.9668 -1.7481
 2721TIP3    H229655   5.968   4.865  13.306  0.8056 -2.4474  0.8292
 2722TIP3   OH229656   4.931   2.455   3.477 -0.5755 -0.2262 -0.1359
 2722TIP3    H129657   4.839   2.460   3.504 -0.7222  0.4792 -0.7358
 2722TIP3    H229658   4.972   2.532   3.518 -0.1595 -0.7810  0.4866
 2723TIP3   OH229659   0.985   1.034   2.574  0.6012  0.0776  0.0124
 2723TIP3    H129660   1.062   1.078   2.610  0.6125 -0.0657  0.1688
 2723TIP3    H229661   1.021   0.974   2.508  0.8115 -1.2712  1.3074
 2724TIP3   OH229662   1.923   5.762  11.566 -0.3031 -0.4157  0.4318
 2724TIP3    H129663   1.912   5.746  11.472  0.0833 -2.5655  0.7149
 2724TIP3    H229664   1.861   5.701  11.607  0.0079  0.0376  1.5791
 2725TIP3   OH229665   0.842   3.308   1.152 -0.0271 -0.2353  0.1669
 2725TIP3    H129666   0.767   3.333   1.206 -0.4794 -0.9454 -0.1233
 2725TIP3    H229667   0.803   3.277   1.070  0.5978 -0.2927 -0.1096
 2726TIP3   OH229668   3.371   5.434  10.337  0.4069 -0.3019  0.5527
 2726TIP3    H129669   3.434   5.473  10.396  0.9684 -1.7415  0.9326
 2726TIP3    H229670   3.401   5.343  10.327 -0.9283 -0.6726 -0.1849
 2727TIP3   OH229671   2.090   5.969  12.165  0.3437 -0.8269  0.1120
 2727TIP3    H129672   2.130   6.002  12.084 -1.9258  1.0955 -0.2803
 2727TIP3    H229673   2.130   6.022  12.234 -0.5049  0.1880 -0.1533
 2728TIP3   OH229674   2.635   6.190   4.186 -0.2866 -0.6237  0.0639
 2728TIP3    H129675   2.675   6.107   4.162  0.0342  0.1760 -2.3115
 2728TIP3    H229676   2.708   6.251   4.195 -0.5417 -0.4912  1.4989
 2729TIP3   OH229677   2.855   2.716  14.346  0.1095 -0.0635 -0.2580
 2729TIP3    H129678   2.895   2.802  14.336  0.6496 -0.4192 -1.2871
 2729TIP3    H229679   2.805   2.721  14.427  0.5229  1.0661 -0.0733
 2730TIP3   OH229680   2.778   3.579   3.517  0.0490 -0.2120 -0.2885
 2730TIP3    H129681   2.848   3.643   3.523  0.4339 -0.7242  0.9221
 2730TIP3    H229682   2.741   3.575   3.606 -0.9309 -0.5847 -0.6998
 2731TIP3   OH229683   4.211   1.735  16.263  0.2741 -0.4247  0.5098
 2731TIP3    H129684   4.165   1.731  16.347  2.8134 -2.1108  1.8692
 2731TIP3    H229685   4.211   1.644  16.232  2.9674 -0.5244  0.7150
 2732TIP3   OH229686   0.575   2.438   2.211  0.0183 -0.4753 -0.0403
 2732TIP3    H129687   0.654   2.387   2.226 -0.0586 -0.4839  0.3411
 2732TIP3    H229688   0.503   2.378   2.229 -0.0786 -0.4763 -0.4156
 2733TIP3   OH229689   3.732   5.528  12.307  0.6004 -0.0423  0.1349
 2733TIP3    H129690   3.734   5.477  12.226  1.1915 -0.0268  0.1373
 2733TIP3    H229691   3.696   5.613  12.281 -0.6114 -0.5284  0.1740
 2734TIP3   OH229692   6.609   4.112  13.126 -0.1640  0.1250  0.5965
 2734TIP3    H129693   6.572   4.043  13.071 -0.0855  0.6696 -0.1470
 2734TIP3    H229694   6.606   4.076  13.214 -2.0690 -0.0228  0.4956
 2735TIP3   OH229695   1.710   4.141   6.370  0.7211  0.3302  0.1432
 2735TIP3    H129696   1.675   4.222   6.333  2.5650  0.4609 -1.3530
 2735TIP3    H229697   1.799   4.135   6.337  0.0351 -3.2830 -1.3321
 2736TIP3   OH229698   3.137   0.187   1.165 -0.4070 -0.5896  0.4061
 2736TIP3    H129699   3.078   0.118   1.136 -2.0402  0.1435  1.8626
 2736TIP3    H229700   3.171   0.156   1.248  1.6819 -1.2322 -0.6729
 2737TIP3   OH229701   0.169   1.705  11.061 -0.0768  0.1059 -0.6206
 2737TIP3    H129702   0.155   1.701  11.155 -1.0731 -0.7904 -0.7971
 2737TIP3    H229703   0.106   1.769  11.030 -0.3745 -0.2621 -0.7857
 2738TIP3   OH229704   4.748   1.274   2.641  0.1185 -0.5798 -0.9760
 2738TIP3    H129705   4.676   1.302   2.584 -0.6606  0.0343  0.2803
 2738TIP3    H229706   4.822   1.328   2.615 -0.2784 -0.1839 -1.2929
 2739TIP3   OH229707   1.594   5.788  12.095  0.9572 -0.5107 -0.5728
 2739TIP3    H129708   1.502   5.767  12.078  1.3155 -1.8004 -1.0210
 2739TIP3    H229709   1.596   5.813  12.187 -0.3660  2.7597 -1.3719
 2740TIP3   OH229710   4.112   0.964  13.360 -0.2150  0.1906 -0.1401
 2740TIP3    H129711   4.065   1.020  13.298  0.2167  1.4366  0.6463
 2740TIP3    H229712   4.119   0.880  13.316 -0.9577  0.7294 -1.2974
 2741TIP3   OH229713   1.007   0.394  14.704  0.5996 -0.4821 -0.8155
 2741TIP3    H129714   1.093   0.429  14.683  1.4899 -0.5139  2.5581
 2741TIP3    H229715   0.970   0.457  14.765  0.0582 -2.7021  1.2166
 2742TIP3   OH229716   4.290   4.189  10.987  0.4798 -0.7257  0.2610
 2742TIP3    H129717   4.225   4.243  10.941  1.5470  1.6734  1.4679
 2742TIP3    H229718   4.366   4.189  10.928  0.3234 -1.2872  0.0594
 2743TIP3   OH229719   4.471   3.420   3.681 -0.4083 -0.2907 -0.7213
 2743TIP3    H129720   4.513   3.382   3.603  0.6022 -1.5350  0.4055
 2743TIP3    H229721   4.537   3.415   3.749 -1.6636 -0.2800  0.5268
 2744TIP3   OH229722   5.328   0.452  16.483  0.1395 -0.9451 -0.0392
 2744TIP3    H129723   5.315   0.437  16.577 -1.4855  0.9722  0.0703
 2744TIP3    H229724   5.352   0.544  16.477  3.5209 -1.8364 -1.2540
 2745TIP3   OH229725   0.116   6.392  13.834 -0.0724  0.4776 -0.0427
 2745TIP3    H129726   0.074   6.429  13.911 -0.6873  1.3335 -0.7767
 2745TIP3    H229727   0.209   6.407  13.848  0.0704 -1.8337  1.8065
 2746TIP3   OH229728   0.249   5.432  15.342  0.0670 -0.4845 -0.0917
 2746TIP3    H129729   0.265   5.489  15.266 -0.3867  2.0360  1.6453
 2746TIP3    H229730   0.332   5.385  15.353  0.3760 -0.3670 -1.7071
 2747TIP3   OH229731   5.303   0.554  13.026  0.2478 -0.1010  0.1818
 2747TIP3    H129732   5.372   0.496  12.992  0.8399  1.0292 -0.6155
 2747TIP3    H229733   5.351   0.627  13.066 -0.4698  1.0826 -1.0660
 2748TIP3   OH229734   5.549   4.379  16.242 -0.0062 -0.4541  0.2084
 2748TIP3    H129735   5.504   4.412  16.320 -1.9071  1.6970 -1.7421
 2748TIP3    H229736   5.574   4.458  16.194 -1.9502 -1.7696 -3.0781
 2749TIP3   OH229737   1.912   1.226   3.349  0.2407  0.0621 -0.8194
 2749TIP3    H129738   1.918   1.276   3.267 -1.0270  0.3980 -0.7169
 2749TIP3    H229739   1.894   1.137   3.321  2.1997 -0.2967 -0.9919
 2750TIP3   OH229740   2.937   0.696   2.459 -0.0708 -0.3668 -0.3873
 2750TIP3    H129741   2.855   0.736   2.428 -0.0583 -0.2075 -0.2088
 2750TIP3    H229742   2.928   0.692   2.554  0.6429  0.7644 -0.2626
 2751TIP3   OH229743   1.732   6.421  14.824  0.1854 -0.0123  0.0626
 2751TIP3    H129744   1.714   6.341  14.873  2.3386 -1.2081 -1.0449
 2751TIP3    H229745   1.756   6.485  14.890 -2.3446  0.0118  1.0362
 2752TIP3   OH229746   1.970   1.626  12.019  0.9332 -0.0618  0.3672
 2752TIP3    H129747   1.890   1.634  11.967  1.6057  2.4885 -0.3370
 2752TIP3    H229748   1.940   1.598  12.105 -0.3579 -2.6344 -0.8484
 2753TIP3   OH229749   3.242   6.125   1.612 -0.5038 -0.4456  0.6025
 2753TIP3    H129750   3.151   6.149   1.627 -0.0200  0.4088  2.3993
 2753TIP3    H229751   3.292   6.199   1.647  0.9046 -1.8143  1.5602
 2754TIP3   OH229752   6.388   3.696  10.935  0.1594  0.7812  0.0047
 2754TIP3    H129753   6.342   3.672  11.016  0.4264  4.5029  1.3470
 2754TIP3    H229754   6.318   3.718  10.874  0.0474  1.6341  0.4415
 2755TIP3   OH229755   0.593   6.448  15.875  0.4738 -0.5306  0.0470
 2755TIP3    H129756   0.575   6.497  15.794 -1.7523 -1.8186 -0.2881
 2755TIP3    H229757   0.536   6.371  15.869  1.8849 -1.7461  1.8514
 2756TIP3   OH229758   4.589   0.143   4.031 -0.1239 -0.3607 -0.2028
 2756TIP3    H129759   4.587   0.224   3.980  0.4614  0.9017  1.7135
 2756TIP3    H229760   4.510   0.096   4.005  0.1073  0.2899 -2.1682
 2757TIP3   OH229761   0.422   4.275  14.455 -0.1987 -0.0787  0.0517
 2757TIP3    H129762   0.501   4.227  14.478  1.0504  1.5452 -0.7679
 2757TIP3    H229763   0.367   4.211  14.409  0.8345 -1.0802  0.2051
 2758TIP3   OH229764   6.519   6.161   4.361 -0.4732 -0.3748  0.5792
 2758TIP3    H129765   6.584   6.189   4.426 -1.6239 -0.7582  1.9389
 2758TIP3    H229766   6.570   6.125   4.289  0.8534  0.4814  1.0672
 2759TIP3   OH229767   2.881   3.011  12.253  0.0527  0.2903  0.0053
 2759TIP3    H129768   2.802   2.958  12.254  0.8180 -0.8686  0.5217
 2759TIP3    H229769   2.872   3.069  12.329 -0.1200 -0.1302  0.3098
 2760TIP3   OH229770   1.183   5.867   3.108  0.0541  0.2888 -0.6588
 2760TIP3    H129771   1.112   5.836   3.164  0.2495  0.4901 -0.2965
 2760TIP3    H229772   1.250   5.896   3.169 -0.1930  1.5842 -0.9959
 2761TIP3   OH229773   4.370   2.509   0.160 -0.4764 -0.0664 -0.2958
 2761TIP3    H129774   4.411   2.553   0.235  1.4485 -0.6375 -1.0027
 2761TIP3    H229775   4.420   2.428   0.149 -1.3846 -0.4636 -1.5964
 2762TIP3   OH229776   3.587   4.252   6.212 -0.1138  0.2239 -0.0341
 2762TIP3    H129777   3.631   4.171   6.237  4.5326  3.3067  2.3828
 2762TIP3    H229778   3.514   4.260   6.273  0.4835 -1.1968  0.8902
 2763TIP3   OH229779   3.112   6.255  13.351  0.4770 -0.2387 -0.8229
 2763TIP3    H129780   3.021   6.236  13.325 -0.9229  3.2983  1.1732
 2763TIP3    H229781   3.141   6.322  13.289  0.7897  0.5740  0.1950
 2764TIP3   OH229782   3.296   6.705   0.900 -0.9300  0.0632 -0.1562
 2764TIP3    H129783   3.265   6.689   0.989  0.3782  0.1223  0.3198
 2764TIP3    H229784   3.216   6.719   0.849 -1.7426 -0.8891  0.8192
 2765TIP3   OH229785   0.454   5.980  11.844  0.1896 -0.4931  0.0610
 2765TIP3    H129786   0.454   6.047  11.912  0.4454 -0.8603  0.4312
 2765TIP3    H229787   0.361   5.961  11.828  0.0561  1.2373 -1.3545
 2766TIP3   OH229788   2.102   5.645   2.178  0.2778 -0.2972 -0.6960
 2766TIP3    H129789   2.193   5.670   2.161 -0.0118  0.7122 -0.7393
 2766TIP3    H229790   2.079   5.587   2.105  1.7721 -2.8243  0.7544
 2767TIP3   OH229791   1.585   2.984   3.749 -0.1119  0.2434  0.3599
 2767TIP3    H129792   1.539   3.011   3.828 -0.5414  1.0399 -0.1553
 2767TIP3    H229793   1.524   3.002   3.678  0.8083  0.9141 -0.2861
 2768TIP3   OH229794   3.009   0.303  10.551  0.2893 -1.1922 -0.3632
 2768TIP3    H129795   3.019   0.213  10.522  0.1706 -1.3715  0.1429
 2768TIP3    H229796   3.099   0.332  10.572  0.4745 -0.7947 -1.6784
 2769TIP3   OH229797   3.686   2.111   3.207  0.3710 -0.3942 -0.1536
 2769TIP3    H129798   3.765   2.059   3.193  0.1538 -0.2729 -1.9501
 2769TIP3    H229799   3.639   2.066   3.276  2.4242 -0.0007  1.5375
 2770TIP3   OH229800   1.159   5.300  14.700 -0.3167  0.3145 -0.2420
 2770TIP3    H129801   1.158   5.331  14.610  1.4173 -2.3659 -1.2303
 2770TIP3    H229802   1.121   5.212  14.696 -1.6888  0.7603  1.9016
 2771TIP3   OH229803   3.238   0.877   4.405  0.4254  0.3725  0.3491
 2771TIP3    H129804   3.154   0.917   4.382  0.4768  1.1730  1.5254
 2771TIP3    H229805   3.217   0.784   4.418 -0.3357  0.6297  0.9689
 2772TIP3   OH229806   3.405   4.785   1.729  0.0437  0.8802 -0.5465
 2772TIP3    H129807   3.452   4.702   1.743  0.1042  0.9189 -0.5210
 2772TIP3    H229808   3.473   4.845   1.699 -0.4305  0.2620 -2.9745
 2773TIP3   OH229809   3.391   4.910  16.495  0.1415 -0.0114 -0.0472
 2773TIP3    H129810   3.399   4.815  16.488 -0.3331  0.0468 -1.3422
 2773TIP3    H229811   3.362   4.939  16.409 -0.2033  1.2633  0.4840
 2774TIP3   OH229812   5.936   3.901  11.502 -0.1452  0.3745  0.7965
 2774TIP3    H129813   5.844   3.894  11.530 -0.0999  1.5672  1.2959
 2774TIP3    H229814   5.972   3.971  11.557  0.7264  0.7712 -0.2691
 2775TIP3   OH229815   3.845   2.996  11.649 -0.4875  0.4198  0.3902
 2775TIP3    H129816   3.934   3.023  11.627 -0.4255  0.1831  0.3449
 2775TIP3    H229817   3.850   2.972  11.742 -0.4694  0.2706  0.3518
 2776TIP3   OH229818   4.410   3.262  14.770 -0.4474 -0.3730 -0.0676
 2776TIP3    H129819   4.374   3.227  14.689  0.5143  2.0542 -1.5920
 2776TIP3    H229820   4.333   3.283  14.823 -1.1232 -0.6051 -0.9440
 2777TIP3   OH229821   1.951   0.317  13.443  0.0660 -0.4259  0.3442
 2777TIP3    H129822   1.890   0.245  13.426 -0.0797 -0.3282  0.4506
 2777TIP3    H229823   1.896   0.395  13.441  0.0832 -0.3910  1.0483
 2778TIP3   OH229824   1.835   5.602  13.802 -0.2895 -0.0171 -0.0127
 2778TIP3    H129825   1.921   5.568  13.777 -0.5594 -0.1493 -0.7758
 2778TIP3    H229826   1.849   5.695  13.820 -0.2817  0.3019 -1.6353
 2779TIP3   OH229827   6.187   5.416  17.178 -0.1190 -0.2278 -0.0304
 2779TIP3    H129828   6.136   5.364  17.239  0.5766 -1.6104 -0.6111
 2779TIP3    H229829   6.247   5.467  17.233 -1.6862  0.9615  0.6125
 2780TIP3   OH229830   3.440   2.929   2.070  0.0948 -0.1017 -0.2789
 2780TIP3    H129831   3.419   2.909   2.161  1.8530 -0.2470  0.1209
 2780TIP3    H229832   3.367   2.983   2.040 -0.0128  0.8238  1.5482
 2781TIP3   OH229833   0.517   6.375  14.635 -0.0846  0.6428 -0.1038
 2781TIP3    H129834   0.535   6.449  14.578 -1.4346 -0.8557 -2.5781
 2781TIP3    H229835   0.427   6.389  14.665  0.1551  0.7291  0.5929
 2782TIP3   OH229836   4.563   0.039  13.592 -0.2545 -0.3019  0.3028
 2782TIP3    H129837   4.568   0.135  13.588 -2.4286 -0.2093 -2.0854
 2782TIP3    H229838   4.488   0.021  13.649 -0.8979 -0.5241 -0.6026
 2783TIP3   OH229839   5.332   3.888  13.154  0.3287 -0.5825 -0.0666
 2783TIP3    H129840   5.408   3.945  13.168 -0.8885  0.6947  1.4683
 2783TIP3    H229841   5.268   3.944  13.110 -1.3825 -0.3167  2.6692
 2784TIP3   OH229842   2.763   1.600  10.797 -0.1203 -0.4622 -0.1042
 2784TIP3    H129843   2.851   1.584  10.830 -0.4005 -0.2161  0.7732
 2784TIP3    H229844   2.767   1.574  10.705  1.1467  0.5308 -0.3493
 2785TIP3   OH229845   0.619   4.923   5.158 -0.0255 -0.4763 -0.0705
 2785TIP3    H129846   0.689   4.888   5.213 -0.9264 -3.3688 -0.7155
 2785TIP3    H229847   0.596   4.852   5.099 -1.7847  1.2841 -1.5824
 2786TIP3   OH229848   0.300   3.423   3.240  0.2532 -0.1513  0.1768
 2786TIP3    H129849   0.358   3.380   3.178  0.1879  0.5442 -0.3750
 2786TIP3    H229850   0.214   3.384   3.225  0.2706 -0.0969 -0.0633
 2787TIP3   OH229851   0.027   2.275  12.634  0.1055 -0.7868 -0.4196
 2787TIP3    H129852   0.057   2.276  12.725 -0.7843 -2.4040 -0.0853
 2787TIP3    H229853   0.057   2.358  12.598  1.0161 -0.3987  1.1734
 2788TIP3   OH229854   6.738   3.618  16.186 -0.0598  0.4967  0.2675
 2788TIP3    H129855   6.754   3.679  16.257  0.1151  0.9725 -0.1808
 2788TIP3    H229856   6.778   3.658  16.109 -0.4759  0.1144 -0.1565
 2789TIP3   OH229857   4.516   3.429  14.006 -0.3862  0.2864 -0.1686
 2789TIP3    H129858   4.560   3.514  13.996  2.2174 -0.8332  1.1837
 2789TIP3    H229859   4.463   3.438  14.085 -1.3139  1.1351 -0.8847
 2790TIP3   OH229860   6.187   6.369  13.783 -0.0554  0.3280  0.9255
 2790TIP3    H129861   6.138   6.450  13.772 -0.0135  0.2750  0.3053
 2790TIP3    H229862   6.251   6.370  13.712 -0.9444 -0.8908  0.0821
 2791TIP3   OH229863   6.486   1.816   4.015  0.3349  0.0956 -0.1427
 2791TIP3    H129864   6.472   1.908   4.037  3.8238  0.6067  0.2866
 2791TIP3    H229865   6.534   1.781   4.090  0.2246 -1.7282 -0.9011
 2792TIP3   OH229866   5.893   3.779   3.875 -0.7075  0.3375  0.4537
 2792TIP3    H129867   5.930   3.860   3.838 -1.5713  0.7087  0.3930
 2792TIP3    H229868   5.799   3.797   3.882 -1.3277 -1.6590 -2.1212
 2793TIP3   OH229869   6.168   5.583  16.345 -0.1345 -0.1294  0.0259
 2793TIP3    H129870   6.192   5.532  16.267 -0.9899 -0.0563 -0.2894
 2793TIP3    H229871   6.156   5.518  16.413  1.8602 -0.0973  0.4274
 2794TIP3   OH229872   5.957   5.525   2.673  0.2653  0.0790 -0.2908
 2794TIP3    H129873   6.020   5.472   2.723 -0.2018 -1.9162 -1.7599
 2794TIP3    H229874   6.009   5.599   2.642  1.3816 -0.4268  0.3097
 2795TIP3   OH229875   3.348   5.435   1.193  0.2048 -0.1037  0.0447
 2795TIP3    H129876   3.419   5.452   1.254 -0.4642 -0.6604  0.9902
 2795TIP3    H229877   3.274   5.484   1.228 -1.0351 -2.8330  1.4000
 2796TIP3   OH229878   4.610   1.789  17.217 -0.3945 -0.1019  0.3385
 2796TIP3    H129879   4.676   1.752  17.275 -1.2084 -2.2631 -0.0701
 2796TIP3    H229880   4.660   1.832  17.147  0.5681  0.0182  1.0978
 2797TIP3   OH229881   6.520   5.385  16.675 -0.0429  0.2664 -0.4560
 2797TIP3    H129882   6.537   5.407  16.766 -1.9031  0.7857 -0.2165
 2797TIP3    H229883   6.522   5.469  16.629 -0.0465  0.1132 -0.7403
 2798TIP3   OH229884   3.913   5.918  11.807  0.5250 -0.6630 -0.0110
 2798TIP3    H129885   3.870   6.003  11.795  0.5215 -0.2247  2.7432
 2798TIP3    H229886   4.002   5.940  11.834 -0.0775 -1.4995  2.7608
 2799TIP3   OH229887   4.002   1.093   3.274  0.2912 -0.1059  0.3660
 2799TIP3    H129888   3.913   1.126   3.286  0.3075 -0.2797  0.9424
 2799TIP3    H229889   4.050   1.123   3.351  0.6573 -0.2704  0.2036
 2800TIP3   OH229890   4.951   1.768  13.835 -0.3049 -0.3934  0.0519
 2800TIP3    H129891   4.913   1.720  13.762 -2.1018 -1.9598  1.9509
 2800TIP3    H229892   4.876   1.808  13.879  0.5126 -1.0843  2.1615
 2801TIP3   OH229893   3.246   2.761   3.519  0.3010  0.2406  0.9193
 2801TIP3    H129894   3.288   2.712   3.448 -1.2441  0.7944 -0.4207
 2801TIP3    H229895   3.259   2.853   3.496 -1.2782  0.4218  0.6568
 2802TIP3   OH229896   4.921   3.434  14.718  0.7075  0.2556  0.5002
 2802TIP3    H129897   4.902   3.524  14.745 -1.3188  0.4111 -1.2735
 2802TIP3    H229898   4.902   3.382  14.796 -1.5447  1.0501  0.5423
 2803TIP3   OH229899   3.541   6.234   5.227  0.5795 -0.1102 -0.5095
 2803TIP3    H129900   3.588   6.316   5.243 -0.9325  0.8365 -0.7137
 2803TIP3    H229901   3.592   6.188   5.161  1.5607  0.5724 -0.2277
 2804TIP3   OH229902   4.857   0.755  10.846  0.1836 -0.1652  0.3238
 2804TIP3    H129903   4.908   0.835  10.838  0.5412 -0.4696 -0.5037
 2804TIP3    H229904   4.899   0.706  10.917 -0.4655  0.6821  1.3121
 2805TIP3   OH229905   3.292   1.328   4.391 -0.0205 -0.3318  0.5978
 2805TIP3    H129906   3.290   1.275   4.471  0.1696 -1.0934  0.1017
 2805TIP3    H229907   3.370   1.383   4.401 -0.1529 -0.2275  1.0658
 2806TIP3   OH229908   5.563   3.629  13.740  0.2488 -0.0963 -0.4016
 2806TIP3    H129909   5.655   3.617  13.716  0.1763  1.7550 -1.7192
 2806TIP3    H229910   5.554   3.724  13.754 -1.2739 -0.3583  0.4546
 2807TIP3   OH229911   2.925   1.451   3.871 -0.2780 -0.8065 -0.4783
 2807TIP3    H129912   2.899   1.456   3.779 -0.7863 -0.0006 -0.2934
 2807TIP3    H229913   2.998   1.514   3.879 -1.7373  0.8435  0.1710
 2808TIP3   OH229914   6.423   2.006  13.098 -0.2058  0.2058  0.2139
 2808TIP3    H129915   6.481   1.950  13.149  0.2167 -0.9458 -1.4910
 2808TIP3    H229916   6.453   1.997  13.008 -1.4957  1.5128 -0.3806
 2809TIP3   OH229917   6.693   5.721   0.400 -0.2506 -0.3156 -0.4149
 2809TIP3    H129918   6.611   5.672   0.410 -0.5510  0.0855 -0.9267
 2809TIP3    H229919   6.749   5.687   0.470 -1.6076  0.9816  1.3361
 2810TIP3   OH229920   5.217   2.712  17.151  0.5481  0.7554 -0.2315
 2810TIP3    H129921   5.274   2.675  17.084  0.0584 -0.1712 -0.1371
 2810TIP3    H229922   5.243   2.804  17.156  0.8794  0.7355 -1.3971
 2811TIP3   OH229923   2.941   2.729   3.131  0.2239 -0.6040  0.2698
 2811TIP3    H129924   2.958   2.635   3.127  1.8012 -0.3286  0.1846
 2811TIP3    H229925   2.846   2.736   3.122  0.0780 -2.1863  0.3165
 2812TIP3   OH229926   6.281   5.860  16.932 -0.1216  0.7546 -0.2113
 2812TIP3    H129927   6.202   5.811  16.953  0.1616  0.6141  0.5744
 2812TIP3    H229928   6.262   5.903  16.849 -1.6844  2.1616  0.8431
 2813TIP3   OH229929   6.318   2.871   1.662 -0.5637 -0.2160  0.4349
 2813TIP3    H129930   6.331   2.778   1.646 -0.6748 -0.2676  0.6325
 2813TIP3    H229931   6.265   2.874   1.743 -1.7827 -0.0230 -0.3503
 2814TIP3   OH229932   4.204   2.632  12.645  0.0980  0.2413  1.1794
 2814TIP3    H129933   4.227   2.562  12.584 -0.5876  1.0552 -0.0357
 2814TIP3    H229934   4.136   2.594  12.701 -1.2026  0.3292 -0.3137
 2815TIP3   OH229935   0.872   6.582   3.337 -0.5737 -0.0398 -0.1254
 2815TIP3    H129936   0.814   6.507   3.352  2.1039 -2.1689 -0.0974
 2815TIP3    H229937   0.892   6.578   3.243  2.2955 -1.4535  0.4995
 2816TIP3   OH229938   1.052   2.403  11.841 -0.2198 -0.3415 -0.7981
 2816TIP3    H129939   0.968   2.369  11.871 -0.8983  0.6037 -1.5978
 2816TIP3    H229940   1.110   2.393  11.916 -1.2113 -0.4076 -0.0286
 2817TIP3   OH229941   5.820   4.445  11.278  0.1884  0.5686 -0.4410
 2817TIP3    H129942   5.862   4.437  11.192  0.4045 -2.1256 -0.1167
 2817TIP3    H229943   5.727   4.432  11.260  0.2874 -0.5118 -0.2266
 2818TIP3   OH229944   5.922   3.119  16.280 -0.3123 -0.5544  0.1527
 2818TIP3    H129945   5.867   3.184  16.324 -0.6742 -0.6993 -0.0787
 2818TIP3    H229946   5.864   3.044  16.267  0.2403 -1.0854  0.8123
 2819TIP3   OH229947   4.364   4.337   1.865 -0.4674 -0.5125 -0.0455
 2819TIP3    H129948   4.442   4.358   1.916 -0.2804  0.2063 -0.6209
 2819TIP3    H229949   4.291   4.365   1.920 -0.2266  1.7524 -0.8154
 2820TIP3   OH229950   5.614   4.709   6.142  0.2301  0.2597  0.1232
 2820TIP3    H129951   5.549   4.779   6.134  0.8607  1.1848  2.7838
 2820TIP3    H229952   5.695   4.749   6.110  0.0972 -0.0430 -0.6160
 2821TIP3   OH229953   1.888   4.716   0.462  0.2186 -0.7410 -0.5402
 2821TIP3    H129954   1.869   4.703   0.555  0.9070  0.9393 -0.1572
 2821TIP3    H229955   1.979   4.688   0.452  0.7368  0.8238 -0.3215
 2822TIP3   OH229956   6.352   3.275  16.158 -0.1238  0.6596 -0.2534
 2822TIP3    H129957   6.367   3.193  16.204  1.3886  0.5624 -0.8782
 2822TIP3    H229958   6.281   3.317  16.205 -1.0594 -1.1099 -0.0583
 2823TIP3   OH229959   6.820   1.762  13.837 -0.2361  0.1869 -0.1148
 2823TIP3    H129960   6.781   1.683  13.798 -0.3567  0.9755 -1.6627
 2823TIP3    H229961   6.875   1.730  13.908  0.4357 -1.3693 -1.3220
 2824TIP3   OH229962   1.998   2.161   2.506  0.1521  0.3267  0.3444
 2824TIP3    H129963   1.913   2.203   2.522 -0.0393  0.2189 -0.3645
 2824TIP3    H229964   2.012   2.170   2.411  1.0451  0.5562  0.4979
 2825TIP3   OH229965   2.867   2.526  16.738  0.3011  0.7086  0.2180
 2825TIP3    H129966   2.784   2.503  16.696  0.2188  1.2290  0.0820
 2825TIP3    H229967   2.933   2.475  16.691  0.0930  0.5529  0.0955
 2826TIP3   OH229968   2.425   5.283   1.857 -0.2549 -0.6120  0.0970
 2826TIP3    H129969   2.380   5.362   1.827  0.5686 -0.2774 -0.2839
 2826TIP3    H229970   2.362   5.212   1.842 -1.2422  0.0471  1.0549
 2827TIP3   OH229971   4.473   5.707  13.157  0.3914  0.3963  0.2416
 2827TIP3    H129972   4.538   5.778  13.150  0.4887  0.2635 -0.2137
 2827TIP3    H229973   4.490   5.668  13.242  0.8690  0.4050  0.1532
 2828TIP3   OH229974   6.813   4.865   1.716 -0.6377 -0.0315 -0.3200
 2828TIP3    H129975   6.839   4.946   1.671  0.0788 -0.5908 -0.9356
 2828TIP3    H229976   6.798   4.802   1.645  0.7391 -1.0008  0.2190
 2829TIP3   OH229977   2.738   0.786  11.381 -0.3675  0.2013  0.1759
 2829TIP3    H129978   2.678   0.787  11.456  0.1635 -0.8231  0.6150
 2829TIP3    H229979   2.825   0.778  11.420 -0.1312 -0.9335 -0.5684
 2830TIP3   OH229980   0.583   4.854   0.022  0.2210 -0.3764  0.3568
 2830TIP3    H129981   0.514   4.915   0.047 -0.3068 -0.4206 -0.9838
 2830TIP3    H229982   0.540   4.791  -0.035  0.6173 -2.3911  2.2130
 2831TIP3   OH229983   6.064   0.467   2.851 -0.0060  0.8554 -0.0804
 2831TIP3    H129984   6.151   0.471   2.893 -0.2516  2.6305  0.2970
 2831TIP3    H229985   6.002   0.469   2.924 -0.3775 -1.0407 -0.3194
 2832TIP3   OH229986   6.442   0.030   5.364  0.5108 -0.0958 -0.5223
 2832TIP3    H129987   6.407  -0.053   5.396 -0.4382  0.6301  0.3651
 2832TIP3    H229988   6.372   0.065   5.307  1.2031 -0.2493 -1.4739
 2833TIP3   OH229989   2.183   4.527  10.299 -0.3870  0.1458 -0.1903
 2833TIP3    H129990   2.148   4.467  10.233  0.6141 -0.8421  0.1615
 2833TIP3    H229991   2.195   4.609  10.252 -3.0229  0.4814 -0.3464
 2834TIP3   OH229992   5.822   3.441   2.999 -0.5008 -0.5480  0.5140
 2834TIP3    H129993   5.870   3.464   2.919 -1.2986  0.4579  0.3172
 2834TIP3    H229994   5.890   3.425   3.064  0.1526 -1.3486 -0.3606
 2835TIP3   OH229995   4.439   1.671  16.048  0.4599 -0.1486 -0.0117
 2835TIP3    H129996   4.469   1.581  16.058  1.0641  0.2105  1.5163
 2835TIP3    H229997   4.377   1.684  16.120  1.4530  1.0955  0.6362
 2836TIP3   OH229998   0.707   2.738   4.785  0.0691 -0.0832  0.3439
 2836TIP3    H129999   0.634   2.676   4.779 -2.2188  2.4722  0.6498
 2836TIP3    H230000   0.682   2.797   4.856  2.1753  1.2011  0.0552
 2837TIP3   OH230001   1.640   2.711  11.064  0.1059  0.0486  0.2308
 2837TIP3    H130002   1.596   2.695  10.980  0.5683 -1.0466  0.1908
 2837TIP3    H230003   1.708   2.644  11.069  1.1511  1.1287  0.7387
 2838TIP3   OH230004   0.526   0.080  11.859  0.2712 -0.6770  0.0047
 2838TIP3    H130005   0.469   0.142  11.905  2.2440  0.2302  1.2506
 2838TIP3    H230006   0.467   0.009  11.832 -1.0360 -0.9818  3.4602
 2839TIP3   OH230007   2.773   3.813   2.682 -0.1588  0.4753  0.2672
 2839TIP3    H130008   2.865   3.839   2.683  0.2076 -0.6481 -1.3609
 2839TIP3    H230009   2.754   3.798   2.589 -1.3470 -1.4191  0.7885
 2840TIP3   OH230010   0.408   4.673   3.857  0.7389 -0.3386  0.0230
 2840TIP3    H130011   0.403   4.695   3.764  3.1924  1.8836  0.3667
 2840TIP3    H230012   0.352   4.595   3.866 -0.8638  0.3728 -2.9720
 2841TIP3   OH230013   5.635   3.004   6.281  0.0413 -0.6663 -0.1864
 2841TIP3    H130014   5.724   3.040   6.289 -0.4953  0.5466  0.4750
 2841TIP3    H230015   5.582   3.078   6.252 -0.8460 -1.2718 -0.1170
 2842TIP3   OH230016   3.531   4.179  13.130  0.3858  0.3212  0.4239
 2842TIP3    H130017   3.532   4.257  13.185 -0.9087  2.5916 -2.6517
 2842TIP3    H230018   3.526   4.212  13.041  0.9453 -3.2861 -1.0346
 2843TIP3   OH230019   4.223   4.153  14.096  0.3028  0.0567  0.3142
 2843TIP3    H130020   4.229   4.118  14.185  0.8573 -0.5447  0.0466
 2843TIP3    H230021   4.147   4.212  14.098  2.4283  2.9009  2.1660
 2844TIP3   OH230022   0.300   3.079  16.073 -0.3450  0.2496 -0.0142
 2844TIP3    H130023   0.346   3.050  15.994  0.6310 -0.3836  0.7739
 2844TIP3    H230024   0.221   3.121  16.040 -0.0127 -0.1186 -1.3284
 2845TIP3   OH230025   4.079   5.173  11.953  0.0162  0.2577 -0.3853
 2845TIP3    H130026   4.145   5.239  11.932 -0.1480 -0.5604 -3.7718
 2845TIP3    H230027   3.996   5.222  11.954  0.3078  0.7476  0.8971
 2846TIP3   OH230028   3.331   5.704  16.779 -0.0592  0.0944 -0.1279
 2846TIP3    H130029   3.397   5.655  16.729  0.2672 -0.4084  0.8042
 2846TIP3    H230030   3.258   5.714  16.718  0.6377  0.1322 -0.9676
 2847TIP3   OH230031   3.127   6.512  17.001  0.1013 -0.0860 -1.3011
 2847TIP3    H130032   3.032   6.505  17.007  0.1747 -0.0901 -0.1875
 2847TIP3    H230033   3.142   6.548  16.913 -1.0003  1.5323 -0.8405
 2848TIP3   OH230034   2.065   2.273  12.313 -0.5258  0.2353 -0.2371
 2848TIP3    H130035   2.003   2.335  12.274  1.0204  2.5337  0.8413
 2848TIP3    H230036   2.130   2.257  12.244 -0.6772  0.1394 -0.3590
 2849TIP3   OH230037   4.935   5.146  12.437  0.6046  0.2229 -0.2440
 2849TIP3    H130038   5.010   5.193  12.401  0.1074  1.5498  0.4243
 2849TIP3    H230039   4.943   5.157  12.532  0.3702 -0.8769 -0.0893
 2850TIP3   OH230040   4.849   4.579  15.008 -0.2434  0.1428 -0.4052
 2850TIP3    H130041   4.922   4.622  14.963 -0.2434 -0.4745 -1.0041
 2850TIP3    H230042   4.854   4.488  14.980 -2.0410  0.3606 -1.4865
 2851TIP3   OH230043   1.029   3.421  14.680 -0.0611  0.5319  0.2070
 2851TIP3    H130044   1.054   3.371  14.757 -2.6814 -1.3639 -0.0918
 2851TIP3    H230045   1.108   3.427  14.627  0.4087 -3.1224  0.3864
 2852TIP3   OH230046   1.909   2.039  14.725  0.4448 -0.0853  0.4225
 2852TIP3    H130047   1.819   2.071  14.731  0.6926  1.7237 -3.8999
 2852TIP3    H230048   1.962   2.110  14.760  0.3745  0.1294  0.0958
 2853TIP3   OH230049   0.179   0.166   2.884  0.5052  0.3097  0.1129
 2853TIP3    H130050   0.272   0.191   2.884  0.2948  1.0884  0.4822
 2853TIP3    H230051   0.147   0.194   2.969 -0.2688  0.7457 -0.3227
 2854TIP3   OH230052   5.419   0.435  13.425  0.2945 -0.1476  0.0906
 2854TIP3    H130053   5.342   0.482  13.456  0.2191 -0.2010 -0.0110
 2854TIP3    H230054   5.384   0.353  13.389  0.2402  0.4728 -1.3177
 2855TIP3   OH230055   1.998   1.348  16.858  0.1102  0.0381 -0.0466
 2855TIP3    H130056   2.012   1.256  16.881  0.0318 -0.3024 -1.3522
 2855TIP3    H230057   2.079   1.391  16.885  1.8525 -1.1152 -3.1560
 2856TIP3   OH230058   2.005   4.633  14.843 -0.1164 -0.4019  0.0698
 2856TIP3    H130059   1.934   4.584  14.802 -0.3924  0.8855 -1.0515
 2856TIP3    H230060   2.084   4.582  14.824 -0.8909 -2.6213  2.6222
 2857TIP3   OH230061   6.038   3.804  16.651  0.2438  0.2383 -0.3194
 2857TIP3    H130062   6.101   3.873  16.672  0.7808  0.0569 -1.2940
 2857TIP3    H230063   5.997   3.832  16.569  1.4870 -1.2541 -1.4907
 2858TIP3   OH230064   5.323   1.250  16.370  0.6495  0.0670  0.3679
 2858TIP3    H130065   5.291   1.162  16.388 -0.6147  0.2710 -0.8663
 2858TIP3    H230066   5.327   1.256  16.275  1.6166  1.0425  0.4549
 2859TIP3   OH230067   5.205   4.440  12.944  0.4618  0.2926 -0.7579
 2859TIP3    H130068   5.130   4.464  12.999  0.9610  0.1137 -0.0022
 2859TIP3    H230069   5.167   4.427  12.857 -0.4555 -0.1778 -0.2965
 2860TIP3   OH230070   0.623   2.128   6.256  0.5272  0.2219 -0.1097
 2860TIP3    H130071   0.699   2.075   6.282  0.4156  0.2818  0.3455
 2860TIP3    H230072   0.571   2.136   6.336 -1.0165 -1.5468 -0.8934
 2861TIP3   OH230073   3.469   1.903   5.556  0.1284 -0.4526 -0.4956
 2861TIP3    H130074   3.383   1.895   5.516 -0.5489  0.7920  0.7037
 2861TIP3    H230075   3.528   1.922   5.483 -0.8237  0.0458 -1.1404
 2862TIP3   OH230076   1.533   0.471  16.709  0.3204  0.0853 -0.1118
 2862TIP3    H130077   1.445   0.439  16.728  0.1660  0.0373 -0.8720
 2862TIP3    H230078   1.586   0.445  16.784 -0.4003  0.4602  0.5295
 2863TIP3   OH230079   4.917   6.212   2.740  0.4441  0.1590  0.4938
 2863TIP3    H130080   5.000   6.244   2.706 -0.3952  1.6075 -0.2227
 2863TIP3    H230081   4.867   6.186   2.662 -0.5061  1.1050  0.7765
 2864TIP3   OH230082   3.567   5.000   1.764 -0.0250  0.4920  0.2055
 2864TIP3    H130083   3.551   5.063   1.834 -0.0041  0.6262  0.0909
 2864TIP3    H230084   3.661   5.007   1.747  0.1038 -0.0964  0.6892
 2865TIP3   OH230085   5.722   0.927  10.489  0.1029  0.1813  0.2698
 2865TIP3    H130086   5.662   0.975  10.432  0.6458  0.0341 -0.4440
 2865TIP3    H230087   5.739   0.846  10.441  1.1080  0.3575  0.3234
 2866TIP3   OH230088   1.461   1.092  13.449 -0.4816 -0.4914 -0.3530
 2866TIP3    H130089   1.554   1.111  13.435 -0.7215  0.5092 -0.5979
 2866TIP3    H230090   1.448   1.107  13.543 -0.5120 -0.1278 -0.4156
 2867TIP3   OH230091   2.044   5.540  15.022 -0.4433 -0.1166  0.0957
 2867TIP3    H130092   2.037   5.477  14.950  0.3294  0.0197 -0.1046
 2867TIP3    H230093   2.057   5.624  14.979 -2.1265  0.2952  0.3438
 2868TIP3   OH230094   2.643   4.839   2.152  0.0091 -0.1250 -0.6240
 2868TIP3    H130095   2.588   4.763   2.167  1.6949 -1.2566  0.0478
 2868TIP3    H230096   2.639   4.854   2.057 -2.2943  0.4949 -0.4394
 2869TIP3   OH230097   4.463   2.972   4.040  0.4388  0.0310 -0.0797
 2869TIP3    H130098   4.385   3.013   4.001  0.7718 -0.0869 -0.8797
 2869TIP3    H230099   4.462   3.001   4.131 -0.2041  0.5378 -0.2431
 2870TIP3   OH230100   0.068   3.681   1.730  0.6713 -0.0065  0.1066
 2870TIP3    H130101   0.112   3.601   1.761  1.6601 -0.0088 -1.2830
 2870TIP3    H230102   0.090   3.686   1.637  0.9180  2.0934  0.2683
 2871TIP3   OH230103   2.898   2.392  11.712  0.4733 -0.6243  0.1101
 2871TIP3    H130104   2.962   2.433  11.770  0.6101 -1.0087  0.2379
 2871TIP3    H230105   2.934   2.304  11.696 -0.5862 -1.2382  1.0820
 2872TIP3   OH230106   4.611   6.197  13.405  0.1909 -0.0752 -0.0754
 2872TIP3    H130107   4.706   6.193  13.398  0.2791 -0.5196  1.3279
 2872TIP3    H230108   4.590   6.288  13.385  0.9886  0.2341  0.4696
 2873TIP3   OH230109   3.949   0.117  16.077 -0.1168 -0.1840  0.6283
 2873TIP3    H130110   3.893   0.193  16.088  1.2391  1.0366 -0.7295
 2873TIP3    H230111   3.944   0.096  15.984  1.2036 -0.4240  0.5983
 2874TIP3   OH230112   3.845   1.554   0.100  0.1187 -0.2968  0.0501
 2874TIP3    H130113   3.769   1.595   0.140 -1.1718 -1.0688 -1.5495
 2874TIP3    H230114   3.836   1.574   0.007  1.7556 -0.5942 -0.1816
 2875TIP3   OH230115   4.153   3.417   4.706  0.4505  0.4487 -0.0777
 2875TIP3    H130116   4.168   3.511   4.717 -1.4289  0.8542 -0.8360
 2875TIP3    H230117   4.066   3.402   4.741 -1.0437 -0.2140 -3.8710
 2876TIP3   OH230118   5.486   0.299  14.143  0.5260  0.5966 -0.2616
 2876TIP3    H130119   5.449   0.370  14.091  0.9331  0.7937 -0.2843
 2876TIP3    H230120   5.566   0.274  14.097  1.4828  1.5314  0.8712
 2877TIP3   OH230121   3.881   0.923  12.153  0.3956  0.0283 -0.3493
 2877TIP3    H130122   3.871   0.936  12.247 -2.6815 -2.4172 -0.2542
 2877TIP3    H230123   3.954   0.861  12.145 -0.9181 -1.7205  0.6446
 2878TIP3   OH230124   2.563   0.821   3.912 -0.2566  0.1087  0.2947
 2878TIP3    H130125   2.560   0.848   4.004  0.3107 -1.5470  0.8215
 2878TIP3    H230126   2.475   0.787   3.894 -0.2366  0.0162  0.3686
 2879TIP3   OH230127   0.492   3.374   3.935  0.3139 -0.0491  0.4199
 2879TIP3    H130128   0.425   3.326   3.985  1.0712 -2.1988 -0.5775
 2879TIP3    H230129   0.445   3.410   3.860 -0.0007 -0.3722  0.4613
 2880TIP3   OH230130   1.198   5.659  14.220 -0.6894  0.1149  0.4621
 2880TIP3    H130131   1.212   5.694  14.132  0.6587  0.5546  0.8294
 2880TIP3    H230132   1.283   5.622  14.244 -1.5367 -1.5700  0.8986
 2881TIP3   OH230133   3.180   0.239   5.273  0.5137  0.2655 -0.2324
 2881TIP3    H130134   3.089   0.241   5.304 -0.6434  0.6948 -3.4439
 2881TIP3    H230135   3.222   0.172   5.327 -2.3166 -1.5708 -0.1718
 2882TIP3   OH230136   2.741   5.524  11.791 -0.0856  0.2423  0.0288
 2882TIP3    H130137   2.662   5.496  11.746 -0.1371  0.9786 -0.3425
 2882TIP3    H230138   2.784   5.584  11.730  1.2946 -0.9577 -0.2139
 2883TIP3   OH230139   1.582   1.898   0.490 -0.1686  0.0943 -0.9474
 2883TIP3    H130140   1.645   1.876   0.422  2.6994  0.6790  1.3752
 2883TIP3    H230141   1.511   1.944   0.445  0.5711 -1.4782 -3.7815
 2884TIP3   OH230142   6.266   4.336  15.848 -0.4935  0.2992 -0.2294
 2884TIP3    H130143   6.246   4.311  15.938  0.4108 -0.6097 -0.2750
 2884TIP3    H230144   6.353   4.376  15.852 -0.5485  0.4682 -0.6687
 2885TIP3   OH230145   5.863   3.295  16.505 -0.2841  0.4321 -0.1804
 2885TIP3    H130146   5.850   3.212  16.550  0.3588  0.4552  0.0411
 2885TIP3    H230147   5.864   3.361  16.575 -0.2621  0.5705 -0.3124
 2886TIP3   OH230148   4.347   4.230   2.463 -0.3168  0.3777  0.3932
 2886TIP3    H130149   4.330   4.286   2.388  0.2528  1.4153  1.0302
 2886TIP3    H230150   4.316   4.144   2.436 -1.3179  1.0219 -0.5474
 2887TIP3   OH230151   0.527   4.525  13.782  0.0217  0.0001  0.4671
 2887TIP3    H130152   0.590   4.510  13.711 -1.7463 -0.7882 -0.9833
 2887TIP3    H230153   0.517   4.439  13.823 -0.6705 -0.0307  0.2257
 2888TIP3   OH230154   5.063   3.476   2.623 -0.1763 -0.1214  0.6393
 2888TIP3    H130155   5.057   3.566   2.594 -1.0545 -0.2185  0.4830
 2888TIP3    H230156   4.994   3.430   2.574  1.2620 -1.1983 -0.4411
 2889TIP3   OH230157   5.657   1.289   5.576 -0.7293  0.5829 -0.1367
 2889TIP3    H130158   5.627   1.376   5.551 -0.1569  0.7910 -0.0952
 2889TIP3    H230159   5.689   1.250   5.494  2.3313  1.7313  0.4544
 2890TIP3   OH230160   2.631   5.778   0.767  0.8803 -0.6528  0.1772
 2890TIP3    H130161   2.680   5.812   0.693  0.7516  1.8979  1.2065
 2890TIP3    H230162   2.578   5.852   0.797  0.1230 -1.9383  2.1404
 2891TIP3   OH230163   5.688   1.187  11.624  0.2124  0.1292  0.3366
 2891TIP3    H130164   5.736   1.161  11.545 -0.5644  2.2577 -0.8903
 2891TIP3    H230165   5.756   1.197  11.691  0.8800 -1.7482 -0.0348
 2892TIP3   OH230166   3.361   3.421  14.388 -0.0033  0.3002 -0.2249
 2892TIP3    H130167   3.437   3.477  14.377  0.7215 -0.7504 -0.5719
 2892TIP3    H230168   3.326   3.409  14.300  0.8296 -1.1609 -0.3643
 2893TIP3   OH230169   2.302   0.945   4.058 -0.1950 -0.1872 -0.5654
 2893TIP3    H130170   2.272   1.035   4.041 -0.6538 -0.0245  1.0144
 2893TIP3    H230171   2.357   0.953   4.136 -1.8211 -1.5602  0.7539
 2894TIP3   OH230172   5.286   4.535  11.389 -0.5473 -0.1546 -0.3243
 2894TIP3    H130173   5.251   4.447  11.389 -0.9891  0.0194 -0.7273
 2894TIP3    H230174   5.248   4.577  11.467 -0.5859 -0.2183 -0.3095
 2895TIP3   OH230175   1.818   5.139   4.100  0.5281  0.7736 -0.3363
 2895TIP3    H130176   1.895   5.082   4.107 -0.1440 -0.0065  0.7908
 2895TIP3    H230177   1.752   5.084   4.058  0.7347  1.6049 -1.7627
 2896TIP3   OH230178   6.484   3.120  13.938  0.4546  0.0096  0.7155
 2896TIP3    H130179   6.475   3.215  13.937  0.9741  0.0485 -1.3556
 2896TIP3    H230180   6.574   3.106  13.970  0.2224  0.1876  1.4620
 2897TIP3   OH230181   1.771   3.291   3.079  0.9348 -0.2733 -0.3144
 2897TIP3    H130182   1.705   3.230   3.111  0.2213  0.2990 -0.6885
 2897TIP3    H230183   1.802   3.336   3.157  1.4600 -1.0944 -0.0346
 2898TIP3   OH230184   2.314   1.680   2.031  0.2079 -0.2843  0.2026
 2898TIP3    H130185   2.306   1.704   1.939 -0.8033  0.4014  0.4730
 2898TIP3    H230186   2.299   1.585   2.032  1.7932 -0.5598 -0.5357
 2899TIP3   OH230187   3.265   1.067   5.655 -0.1299  0.2102  0.0376
 2899TIP3    H130188   3.346   1.018   5.664 -0.8848 -1.4367 -1.6651
 2899TIP3    H230189   3.291   1.150   5.615  1.0552  0.8964  2.1634
 2900TIP3   OH230190   1.426   4.642  15.239  0.3129  0.1282 -0.0215
 2900TIP3    H130191   1.388   4.726  15.212  0.2517  0.4393  1.0228
 2900TIP3    H230192   1.516   4.646  15.209  0.2708  0.5129 -0.1065
 2901TIP3   OH230193   1.170   4.690  16.986  0.4151  0.1623 -0.0645
 2901TIP3    H130194   1.224   4.768  16.970  1.0470 -0.3027 -0.1943
 2901TIP3    H230195   1.221   4.637  17.047  0.5796 -0.7528 -0.9721
 2902TIP3   OH230196   3.081   3.975   2.406 -0.3530  0.5161  0.2853
 2902TIP3    H130197   3.080   3.908   2.474  1.1441  2.7146  2.5793
 2902TIP3    H230198   3.099   4.056   2.453  1.5830  1.9977 -2.8395
 2903TIP3   OH230199   1.765   5.859  16.746 -0.2537  0.2800  0.5061
 2903TIP3    H130200   1.835   5.871  16.683 -0.3756 -0.2391  0.2728
 2903TIP3    H230201   1.785   5.776  16.789 -1.3032 -0.4055 -0.3131
 2904TIP3   OH230202   5.275   2.735  11.143  0.1018 -0.8067  0.7309
 2904TIP3    H130203   5.217   2.684  11.199  2.0315 -1.7522  1.8974
 2904TIP3    H230204   5.355   2.746  11.194 -0.7415  4.7108  1.1824
 2905TIP3   OH230205   4.485   2.501  14.482 -0.8447  0.2269 -0.2884
 2905TIP3    H130206   4.444   2.435  14.426  0.3635 -0.9964  0.2380
 2905TIP3    H230207   4.578   2.480  14.479 -0.7047  0.4262  1.7944
 2906TIP3   OH230208   2.610   6.161  13.179 -1.2114 -0.6277  0.0849
 2906TIP3    H130209   2.615   6.139  13.086 -0.8162  0.5866 -0.1847
 2906TIP3    H230210   2.524   6.203  13.189 -0.7490  0.3390  0.0291
 2907TIP3   OH230211   2.128   1.000  13.391  0.2457  0.6508  0.6589
 2907TIP3    H130212   2.176   1.000  13.475  1.0490 -1.4151  0.2471
 2907TIP3    H230213   2.052   0.945  13.407  1.0092 -0.7189 -0.2576
 2908TIP3   OH230214   1.991   2.743  16.354  0.7128 -0.2379  0.2043
 2908TIP3    H130215   1.902   2.761  16.324  0.6932 -0.9570 -0.1819
 2908TIP3    H230216   2.044   2.814  16.317  0.5267 -0.5846 -0.7441
 2909TIP3   OH230217   3.545   5.088  11.337 -0.0279 -0.0860 -0.2529
 2909TIP3    H130218   3.635   5.071  11.307 -0.7819 -1.7879 -1.6096
 2909TIP3    H230219   3.492   5.022  11.293 -1.5479 -1.0828  2.9041
 2910TIP3   OH230220   3.948   5.518  16.276 -0.0772 -0.0374 -0.6013
 2910TIP3    H130221   3.914   5.534  16.364 -0.4809 -0.2586 -0.7192
 2910TIP3    H230222   3.872   5.494  16.224  0.3956 -1.4987 -0.6326
 2911TIP3   OH230223   2.124   3.779   0.975 -0.6981  0.0477 -0.2640
 2911TIP3    H130224   2.142   3.688   0.951 -0.3091  0.3922 -1.3218
 2911TIP3    H230225   2.040   3.799   0.932 -0.2509  0.5116 -0.9392
 2912TIP3   OH230226   1.898   4.355  12.464 -0.3227  1.0600  0.6313
 2912TIP3    H130227   1.865   4.338  12.376 -0.0112 -0.7141  0.8276
 2912TIP3    H230228   1.993   4.355  12.454 -0.2296 -0.8783  1.2199
 2913TIP3   OH230229   4.583   5.875   3.082 -0.0612  0.1425  0.0373
 2913TIP3    H130230   4.672   5.880   3.047  0.4418  1.9886  1.4854
 2913TIP3    H230231   4.528   5.861   3.004  1.3449  0.5761 -1.0632
 2914TIP3   OH230232   6.084   5.036  17.110  0.1988  0.3329 -0.3588
 2914TIP3    H130233   6.175   5.024  17.081 -0.1254  0.0444 -1.2837
 2914TIP3    H230234   6.034   5.038  17.029 -0.6083  0.6502  0.1469
 2915TIP3   OH230235   6.365   6.002  13.840 -0.6231 -0.3071 -0.2687
 2915TIP3    H130236   6.395   6.079  13.888  1.2662 -1.7569  0.9464
 2915TIP3    H230237   6.289   5.971  13.888 -0.3344 -0.2046  0.2516
 2916TIP3   OH230238   0.639   5.915   3.297 -0.4472  0.2514 -0.1932
 2916TIP3    H130239   0.655   5.835   3.246  0.9934  0.9701 -0.9218
 2916TIP3    H230240   0.692   5.904   3.376  1.0782  1.1499 -1.0398
 2917TIP3   OH230241   0.979   6.164   4.343  1.1474  0.6431 -0.1777
 2917TIP3    H130242   1.071   6.169   4.370  0.7997 -1.0307  1.4429
 2917TIP3    H230243   0.945   6.252   4.358  1.8656  0.6350  1.6399
 2918TIP3   OH230244   2.409   5.278  13.104  0.3678  0.1382 -0.0010
 2918TIP3    H130245   2.321   5.246  13.087  0.2264  1.0817 -1.1290
 2918TIP3    H230246   2.395   5.363  13.147  0.7242  0.0325  0.3256
 2919TIP3   OH230247   2.059   1.166   2.214  0.0056  0.0876  0.1350
 2919TIP3    H130248   1.969   1.134   2.219 -0.2126  0.3020 -2.0057
 2919TIP3    H230249   2.065   1.232   2.283 -1.2134 -0.5305  0.8529
 2920TIP3   OH230250   3.726   3.133   1.045 -0.3782  0.2582 -0.2971
 2920TIP3    H130251   3.778   3.065   1.002 -0.9335 -0.0148 -0.5493
 2920TIP3    H230252   3.679   3.177   0.974  1.2999  2.0703 -0.3148
 2921TIP3   OH230253   3.786   0.485  15.156  0.2010  0.5576  0.2330
 2921TIP3    H130254   3.837   0.432  15.217 -0.6258 -1.8185 -1.0672
 2921TIP3    H230255   3.851   0.519  15.094  0.8709  1.9689  1.6647
 2922TIP3   OH230256   2.709   2.560   0.982 -1.1196  0.2294  0.1300
 2922TIP3    H130257   2.740   2.502   0.913  0.6691 -1.1460  2.0118
 2922TIP3    H230258   2.780   2.623   0.994 -1.0237 -0.0827  1.2865
 2923TIP3   OH230259   2.835   3.865  14.577 -0.1371  0.6814  0.4340
 2923TIP3    H130260   2.847   3.776  14.611  3.9127  0.0529 -2.2425
 2923TIP3    H230261   2.800   3.852  14.489 -2.3335  1.9241  1.0915
 2924TIP3   OH230262   2.937   4.407  15.950 -0.0543  0.2213 -0.1220
 2924TIP3    H130263   2.952   4.454  16.032  1.0297  0.1922 -0.2953
 2924TIP3    H230264   2.987   4.326  15.960 -1.1544 -0.4827 -0.1982
 2925TIP3   OH230265   6.635   0.572   2.159  0.1250 -0.4692  0.2027
 2925TIP3    H130266   6.544   0.549   2.142  0.1985 -0.0497 -0.7780
 2925TIP3    H230267   6.632   0.627   2.238 -0.5866  0.4489 -0.4613
 2926TIP3   OH230268   5.059   2.346  11.388  0.0176  0.0404 -0.2333
 2926TIP3    H130269   4.988   2.283  11.379 -0.2053  0.1492  0.6672
 2926TIP3    H230270   5.119   2.306  11.452  0.4491  0.2304 -0.5120
 2927TIP3   OH230271   3.419   1.782  16.524  0.0880  0.0778 -0.1728
 2927TIP3    H130272   3.445   1.772  16.433  2.2356  1.8807  0.2114
 2927TIP3    H230273   3.475   1.722  16.572  2.4581  2.7199  0.4642
 2928TIP3   OH230274   1.871   5.094   1.547 -0.1085 -0.2869 -0.0656
 2928TIP3    H130275   1.909   5.129   1.628  1.6549 -2.1370 -0.0252
 2928TIP3    H230276   1.823   5.016   1.575 -1.7954  0.5770 -0.4787
 2929TIP3   OH230277   2.049   6.717  14.400 -0.2929  0.5701 -0.0019
 2929TIP3    H130278   2.129   6.756  14.436 -0.7827  0.6150  1.0775
 2929TIP3    H230279   2.046   6.747  14.310  0.8522  0.6589 -0.0222
 2930TIP3   OH230280   1.421   3.348  13.035  0.2686  0.1335 -0.0866
 2930TIP3    H130281   1.382   3.261  13.022 -0.2740  0.4311 -0.4997
 2930TIP3    H230282   1.365   3.389  13.101 -0.1252  0.5573 -0.6705
 2931TIP3   OH230283   0.037   4.830  14.510  0.4021  0.9443  0.0121
 2931TIP3    H130284  -0.049   4.813  14.549  0.5810 -0.3755 -0.1642
 2931TIP3    H230285   0.030   4.919  14.474 -2.0781 -0.4931 -3.2262
 2932TIP3   OH230286   2.503   1.614   1.696 -0.2953  0.4961 -0.2638
 2932TIP3    H130287   2.518   1.678   1.626 -1.5980  0.4903 -0.5606
 2932TIP3    H230288   2.442   1.658   1.755 -2.1955 -0.9554 -1.1280
 2933TIP3   OH230289   4.837   0.165  12.502 -0.3698  0.0905 -0.2053
 2933TIP3    H130290   4.880   0.123  12.577 -1.1593  0.1331  0.2771
 2933TIP3    H230291   4.898   0.234  12.476  0.0327 -0.0893  0.2364
 2934TIP3   OH230292   2.765   6.349  17.087 -0.4816 -0.4410 -0.1369
 2934TIP3    H130293   2.775   6.442  17.107 -1.3797 -0.3614 -0.0332
 2934TIP3    H230294   2.842   6.307  17.127 -1.1787 -0.0143  1.6890
 2935TIP3   OH230295   1.933   1.123   5.045 -1.1374 -0.2152  0.1060
 2935TIP3    H130296   1.960   1.031   5.047 -1.1236 -0.2545 -1.0511
 2935TIP3    H230297   1.869   1.127   4.973 -3.9019 -0.0336  2.4944
 2936TIP3   OH230298   2.726   4.781  14.677  0.4647 -0.1143 -0.5799
 2936TIP3    H130299   2.642   4.783  14.631  0.0819  4.2416  0.1373
 2936TIP3    H230300   2.705   4.746  14.763 -0.9794  2.4126  0.1439
 2937TIP3   OH230301   6.438   2.358  15.101 -0.5208  0.3834  0.1597
 2937TIP3    H130302   6.370   2.295  15.125  0.8418 -1.3717 -0.3937
 2937TIP3    H230303   6.415   2.385  15.012 -1.2662  0.8576  0.5017
 2938TIP3   OH230304   3.342   5.273  14.392  0.3692 -0.1082 -0.0688
 2938TIP3    H130305   3.286   5.240  14.322  0.8204 -1.6836  0.2808
 2938TIP3    H230306   3.412   5.321  14.346  0.0234 -0.1414 -0.6311
 2939TIP3   OH230307   2.436   1.868  14.101  0.5885  0.5428  0.0841
 2939TIP3    H130308   2.426   1.804  14.031 -1.1792  1.7183 -0.7948
 2939TIP3    H230309   2.525   1.902  14.091  0.1550  1.1374 -2.0094
 2940TIP3   OH230310   2.093   5.663  14.483 -0.5520  0.4439 -0.7113
 2940TIP3    H130311   2.007   5.631  14.513  1.0618 -2.6049  0.9764
 2940TIP3    H230312   2.156   5.609  14.531  2.4164  4.7472  0.5496
 2941TIP3   OH230313   5.817   5.989  10.878 -0.4992 -0.1114  0.4351
 2941TIP3    H130314   5.770   5.945  10.808  1.1018 -1.2270  0.0525
 2941TIP3    H230315   5.784   5.948  10.958 -1.6515  0.5275  0.3025
 2942TIP3   OH230316   5.243   1.279   4.492 -0.5185  0.1467  0.2186
 2942TIP3    H130317   5.337   1.257   4.494 -0.4312  0.4916 -0.0970
 2942TIP3    H230318   5.210   1.248   4.576 -0.1615 -0.1657  0.2465
 2943TIP3   OH230319   1.151   1.684  15.662 -0.3890 -0.2435  0.7588
 2943TIP3    H130320   1.081   1.695  15.597 -1.8222 -3.5393  1.6377
 2943TIP3    H230321   1.228   1.663  15.610 -0.9361 -0.3341 -0.0309
 2944TIP3   OH230322   2.932   6.494  15.133 -0.0392  0.4917  0.3411
 2944TIP3    H130323   2.924   6.589  15.132  0.9105  0.5757  0.1781
 2944TIP3    H230324   3.027   6.478  15.136 -0.2114 -0.4382  1.0097
 2945TIP3   OH230325   3.522   3.016  14.680  0.7054 -0.2114  0.0546
 2945TIP3    H130326   3.468   3.065  14.618  1.2783  0.8723  0.4057
 2945TIP3    H230327   3.532   2.929  14.640 -0.3864 -0.0807 -0.5242
 2946TIP3   OH230328   4.753   0.247   2.304  0.0829 -0.1771  0.6055
 2946TIP3    H130329   4.748   0.321   2.244  0.7974  0.7789  1.7225
 2946TIP3    H230330   4.662   0.222   2.320 -0.1595  0.5774  0.3879
 2947TIP3   OH230331   4.055   1.531   4.187  0.5986  0.2349 -0.1629
 2947TIP3    H130332   3.983   1.591   4.204  0.2903  0.4245 -2.1133
 2947TIP3    H230333   4.108   1.534   4.267  0.5686  3.0545 -0.2099
 2948TIP3   OH230334   2.920   0.991  13.556  0.0885 -0.1614 -0.3023
 2948TIP3    H130335   3.012   0.967  13.562  0.0768  0.1157  1.2199
 2948TIP3    H230336   2.895   1.015  13.646 -1.4754 -0.2839 -0.6827
 2949TIP3   OH230337   1.398   2.755  16.473  0.3061 -0.0728  0.1587
 2949TIP3    H130338   1.395   2.793  16.385  1.4766  0.6198  0.4107
 2949TIP3    H230339   1.454   2.677  16.463 -0.3594 -0.5453  0.0892
 2950TIP3   OH230340   3.930   4.843  11.225  0.4820 -0.1862 -0.1026
 2950TIP3    H130341   3.889   4.760  11.202 -0.1343  0.3250 -0.8607
 2950TIP3    H230342   3.970   4.827  11.311  0.0444 -1.1470 -0.0744
 2951TIP3   OH230343   6.492   0.759   3.935 -0.5569 -0.3610 -0.6459
 2951TIP3    H130344   6.550   0.810   3.878 -1.0361 -0.4190 -1.1935
 2951TIP3    H230345   6.537   0.756   4.019  0.0440 -0.0618 -0.9539
 2952TIP3   OH230346   1.857   4.176   3.359 -0.5839  0.5371 -0.7240
 2952TIP3    H130347   1.767   4.165   3.387 -0.2191 -1.9923 -0.4372
 2952TIP3    H230348   1.909   4.163   3.438  0.1302 -0.3123 -1.3196
 2953TIP3   OH230349   2.770   2.303   4.310 -0.3114  0.7436 -0.0122
 2953TIP3    H130350   2.723   2.344   4.237  0.7136 -0.8069 -1.5868
 2953TIP3    H230351   2.701   2.273   4.369 -1.1659  1.7230 -0.5035
 2954TIP3   OH230352   5.201   1.545  13.667 -0.3396  0.4188  0.0946
 2954TIP3    H130353   5.132   1.568  13.604 -1.7868 -0.4874  1.3363
 2954TIP3    H230354   5.194   1.451  13.678  0.5172  0.4433  0.9409
 2955TIP3   OH230355   4.945   6.418  13.504  0.1185 -0.5466  0.1489
 2955TIP3    H130356   4.962   6.404  13.597  0.2647 -0.5710  0.1193
 2955TIP3    H230357   4.966   6.510  13.489  0.9493 -0.7614 -0.0436
 2956TIP3   OH230358   4.773   2.363   3.151 -0.7991 -0.0411 -0.6612
 2956TIP3    H130359   4.774   2.307   3.228  0.0767 -0.0453 -0.6650
 2956TIP3    H230360   4.856   2.410   3.155 -1.1329  0.5966 -1.1373
 2957TIP3   OH230361   6.613   3.032   5.471 -0.5402 -0.1966 -0.3651
 2957TIP3    H130362   6.599   3.090   5.397  0.4148  2.0183  1.1448
 2957TIP3    H230363   6.567   2.951   5.448  1.2344 -0.2159 -4.1346
 2958TIP3   OH230364   4.069   0.813  15.385  0.5250  0.0082 -0.1770
 2958TIP3    H130365   4.096   0.797  15.295 -2.2977 -0.9573 -0.9072
 2958TIP3    H230366   4.133   0.766  15.438  0.8884 -1.3570 -1.7647
 2959TIP3   OH230367   5.737   0.348  12.766  0.3829  0.9566  0.0717
 2959TIP3    H130368   5.795   0.412  12.726  1.4089 -1.1329 -1.8694
 2959TIP3    H230369   5.674   0.325  12.697  0.6003 -0.8040  0.4241
 2960TIP3   OH230370   5.557   2.968   2.503 -0.1154 -0.6327 -0.2556
 2960TIP3    H130371   5.652   2.966   2.504 -0.0259  1.4907 -1.6853
 2960TIP3    H230372   5.533   2.993   2.592  0.6681 -0.5573 -0.0633
 2961TIP3   OH230373   0.628   5.990   3.665 -0.4173  0.2358 -0.0454
 2961TIP3    H130374   0.539   6.004   3.630 -0.1353  0.7827 -0.5476
 2961TIP3    H230375   0.641   6.062   3.727  0.2671  1.0483 -1.1297
 2962TIP3   OH230376   2.756   2.348   5.255  0.3828  0.2262  0.4950
 2962TIP3    H130377   2.813   2.424   5.245  0.7704 -0.2194 -0.7946
 2962TIP3    H230378   2.676   2.372   5.208 -0.6101  0.9595  2.5374
 2963TIP3   OH230379   3.077   3.814   3.705 -0.3348  0.4898 -0.5371
 2963TIP3    H130380   3.009   3.843   3.765 -1.4637  0.5293 -1.8038
 2963TIP3    H230381   3.149   3.876   3.718  0.0810 -0.4395  1.8852
 2964TIP3   OH230382   6.471   1.217  11.112 -0.2757  0.0233 -0.1610
 2964TIP3    H130383   6.376   1.200  11.111 -0.6376  1.9473 -0.8075
 2964TIP3    H230384   6.493   1.225  11.205 -0.8957  0.3256 -0.0375
 2965TIP3   OH230385   1.100   4.322   3.929 -0.1479 -0.0820  0.5435
 2965TIP3    H130386   1.157   4.245   3.935 -0.1732 -0.1109  0.4157
 2965TIP3    H230387   1.160   4.396   3.924 -0.0777  0.2151  4.1996
 2966TIP3   OH230388   4.366   5.889   4.178  0.0186  0.2780 -0.5038
 2966TIP3    H130389   4.314   5.915   4.254 -0.7965  0.2453 -1.0458
 2966TIP3    H230390   4.402   5.971   4.144 -0.4508  0.4065 -0.6891
 2967TIP3   OH230391   2.211   1.863  11.265 -0.2722 -0.2384  0.3212
 2967TIP3    H130392   2.157   1.921  11.212  3.6282 -0.2546 -4.0194
 2967TIP3    H230393   2.237   1.916  11.341  0.9248  2.8271 -2.1382
 2968TIP3   OH230394   2.341   2.959  14.271 -0.3610  0.0446  0.2982
 2968TIP3    H130395   2.372   2.875  14.304  0.6267 -0.1420 -1.0585
 2968TIP3    H230396   2.277   2.936  14.203  1.7738  0.3083 -1.8858
 2969TIP3   OH230397   1.522   2.512  16.432  0.0258 -0.5938 -0.0784
 2969TIP3    H130398   1.612   2.533  16.456 -0.4572 -1.3705  2.5119
 2969TIP3    H230399   1.510   2.421  16.460 -1.7895 -0.2501  0.3268
 2970TIP3   OH230400   3.077   4.630  11.486 -0.0175  0.3791  0.5482
 2970TIP3    H130401   3.065   4.678  11.568 -1.5936 -2.3015  1.9496
 2970TIP3    H230402   3.129   4.553  11.510  1.2465  0.5890 -1.3759
 2971TIP3   OH230403   6.363   2.397  14.364  0.0085  0.1958  0.1687
 2971TIP3    H130404   6.419   2.326  14.334  2.4774  2.4602 -0.8513
 2971TIP3    H230405   6.409   2.433  14.441 -0.1624  1.9001 -0.5015
 2972TIP3   OH230406   3.419   4.773  10.988 -0.0444 -0.6204 -0.0766
 2972TIP3    H130407   3.399   4.697  10.934 -0.5171 -0.3481 -0.2930
 2972TIP3    H230408   3.415   4.847  10.927  0.9206 -0.4779  0.0277
 2973TIP3   OH230409   2.887   1.734   0.493  0.3114 -0.0896  0.0472
 2973TIP3    H130410   2.833   1.691   0.560  1.0397 -0.7517  0.2140
 2973TIP3    H230411   2.950   1.785   0.543 -0.1988  0.7415 -0.1511
 2974TIP3   OH230412   5.852   0.203   3.317 -0.3292 -0.0754  0.1662
 2974TIP3    H130413   5.890   0.149   3.248 -0.6944 -1.1374  0.7934
 2974TIP3    H230414   5.906   0.185   3.394 -1.9816 -1.4794  1.0237
 2975TIP3   OH230415   5.135   1.621  15.372 -0.1672  0.4125 -0.6726
 2975TIP3    H130416   5.079   1.695  15.398  1.4712  1.5507 -0.2529
 2975TIP3    H230417   5.154   1.577  15.455 -0.8390 -0.2699 -0.8798
 2976TIP3   OH230418   5.109   0.887   5.372 -0.0649  0.2466  0.3555
 2976TIP3    H130419   5.094   0.910   5.464 -1.6844  0.3708  0.0788
 2976TIP3    H230420   5.185   0.939   5.347 -0.0267  0.7402  1.4331
 2977TIP3   OH230421   2.716   1.431  15.175 -0.1803 -0.1285 -0.7914
 2977TIP3    H130422   2.783   1.490  15.210 -0.4199 -0.1412 -0.2979
 2977TIP3    H230423   2.762   1.376  15.112  0.6431 -1.2762  0.7767
 2978TIP3   OH230424   4.419   1.632   0.027 -0.0737  0.4170  0.1934
 2978TIP3    H130425   4.434   1.571  -0.045  0.1793  1.3357 -0.5402
 2978TIP3    H230426   4.479   1.705   0.010 -3.3150  2.8542 -1.2870
 2979TIP3   OH230427   2.826   2.596  13.729  0.5045 -0.4349  0.2251
 2979TIP3    H130428   2.908   2.608  13.776  2.1964 -0.9732 -2.4544
 2979TIP3    H230429   2.775   2.675  13.747  2.6272  1.0189 -0.0040
 2980TIP3   OH230430   1.388   6.708  14.339 -0.4829  0.3186  0.7261
 2980TIP3    H130431   1.353   6.782  14.389 -1.0209  1.1550 -0.8669
 2980TIP3    H230432   1.312   6.654  14.321 -0.3204  0.1225  0.6322
 2981TIP3   OH230433   3.446   5.017  14.495  0.0364  0.7358 -0.2010
 2981TIP3    H130434   3.398   5.092  14.529 -1.1962 -0.5090  0.8519
 2981TIP3    H230435   3.519   5.006  14.557 -0.6232  0.1712  0.4820
 2982TIP3   OH230436   0.589   4.785  14.307  0.0422 -0.7745  0.3225
 2982TIP3    H130437   0.568   4.754  14.396  0.7216 -1.1906  0.3402
 2982TIP3    H230438   0.517   4.843  14.285 -0.0490 -0.5296  1.2223
 2983TIP3   OH230439   5.825   0.397   2.360  0.4542  0.4798 -0.2071
 2983TIP3    H130440   5.785   0.315   2.389 -3.5631  2.3415 -0.2458
 2983TIP3    H230441   5.866   0.433   2.439 -1.5573  0.5385  0.8308
 2984TIP3   OH230442   1.566   2.175  11.164  0.4364 -0.8224  0.0947
 2984TIP3    H130443   1.646   2.149  11.211  0.2689  1.2549  1.5976
 2984TIP3    H230444   1.598   2.219  11.085  0.7975  0.1342  0.7654
 2985TIP3   OH230445   2.860   5.205  13.509  0.3504 -0.6553  0.3808
 2985TIP3    H130446   2.828   5.268  13.574  2.8287 -0.8231  1.8245
 2985TIP3    H230447   2.882   5.258  13.433 -2.1783 -0.4024 -0.1928
 2986TIP3   OH230448   0.000   5.131  13.157  0.6020 -0.0425  0.3985
 2986TIP3    H130449  -0.051   5.109  13.235  0.6349 -0.4179  0.3163
 2986TIP3    H230450   0.083   5.163  13.192 -0.3691  2.3633  0.5829
 2987TIP3   OH230451   3.656   6.391  11.172 -0.2218 -0.0455  0.0113
 2987TIP3    H130452   3.747   6.413  11.191  0.3024 -2.4767  0.5128
 2987TIP3    H230453   3.651   6.389  11.076 -0.2049  1.8515 -0.0351
 2988TIP3   OH230454   6.271   5.963   1.543 -0.1645 -0.0455 -0.2036
 2988TIP3    H130455   6.216   6.027   1.588  0.0475 -0.7772  1.1333
 2988TIP3    H230456   6.337   6.016   1.497 -0.9123  0.7511 -0.3775
 2989TIP3   OH230457   5.427   0.620  13.721 -0.0137 -0.6387  0.4593
 2989TIP3    H130458   5.458   0.547  13.774  0.1264 -0.4879  0.5840
 2989TIP3    H230459   5.374   0.579  13.652  0.3604 -0.8832  0.3180
 2990TIP3   OH230460   4.668   0.036   4.262  0.2478 -0.0328 -0.0811
 2990TIP3    H130461   4.605   0.054   4.332  3.3232  1.0026  2.5344
 2990TIP3    H230462   4.639   0.090   4.189 -1.6366  0.7633  1.2146
 2991TIP3   OH230463   6.463   3.983  16.751 -0.6513 -0.1569  0.1895
 2991TIP3    H130464   6.481   3.965  16.844 -0.9650 -2.8994 -0.2533
 2991TIP3    H230465   6.437   3.898  16.715 -0.7563  0.9386 -2.3735
 2992TIP3   OH230466   0.133   4.669  16.603  0.3703  0.0207  0.4205
 2992TIP3    H130467   0.179   4.682  16.520 -0.1000  0.2073  0.1872
 2992TIP3    H230468   0.180   4.597  16.645  0.4500 -0.2485 -0.1255
 2993TIP3   OH230469   1.783   3.541  13.530 -0.6415 -0.2984 -0.1678
 2993TIP3    H130470   1.799   3.458  13.576  0.2355  0.5166  1.0474
 2993TIP3    H230471   1.691   3.560  13.547  0.4488  1.6431  4.1342
 2994TIP3   OH230472   4.229   4.273  16.190  0.3408  0.3540  0.1907
 2994TIP3    H130473   4.274   4.208  16.137 -0.9815 -0.1640 -0.3179
 2994TIP3    H230474   4.168   4.316  16.130 -0.9546 -0.0201  1.1969
 2995TIP3   OH230475   1.098   1.476  15.397 -0.0673 -0.7419  0.6798
 2995TIP3    H130476   1.132   1.390  15.422 -0.9559 -1.2977 -0.0022
 2995TIP3    H230477   1.013   1.482  15.442 -1.0766 -1.2052 -1.1218
 2996TIP3   OH230478   3.918   3.773  15.413 -0.8266 -0.4981 -0.0089
 2996TIP3    H130479   3.856   3.703  15.435 -1.0529 -0.7071 -1.2768
 2996TIP3    H230480   3.990   3.762  15.475 -1.7949 -0.6085  1.0995
 2997TIP3   OH230481   3.105   3.177  17.239  0.6359  0.1076  0.2624
 2997TIP3    H130482   3.089   3.086  17.265  1.6767 -0.3633 -0.6706
 2997TIP3    H230483   3.149   3.216  17.314 -1.2542  0.2957  1.2854
 2998TIP3   OH230484   0.663   6.690  10.792  0.2419 -0.5664  0.0617
 2998TIP3    H130485   0.605   6.765  10.805  1.4655  0.2169  1.1080
 2998TIP3    H230486   0.728   6.721  10.729  0.2770 -1.0169 -0.1229
 2999TIP3   OH230487   2.753   0.991   4.409 -0.0097 -0.1283 -0.6584
 2999TIP3    H130488   2.663   0.962   4.425 -0.2854  1.1465  0.1730
 2999TIP3    H230489   2.805   0.944   4.473 -0.5406  1.6278  1.1261
 3000TIP3   OH230490   4.451   4.325  12.239 -0.0735  0.0191  0.3197
 3000TIP3    H130491   4.449   4.396  12.175  1.9336 -0.2651 -0.0972
 3000TIP3    H230492   4.362   4.322  12.274 -0.4668  2.0130 -0.4298
 3001TIP3   OH230493   5.695   1.448   3.208  0.1835  0.7895  0.2413
 3001TIP3    H130494   5.636   1.383   3.169  1.2229 -0.0771  0.0619
 3001TIP3    H230495   5.683   1.439   3.302 -1.6667  2.2504  0.1688
 3002TIP3   OH230496   0.409   4.745   1.219  0.2632 -0.2038 -0.1090
 3002TIP3    H130497   0.330   4.799   1.223 -0.5508 -1.4323  0.2328
 3002TIP3    H230498   0.481   4.809   1.222 -0.6952  0.8984 -0.1914
 3003TIP3   OH230499   2.091   1.555  16.177  0.6635 -0.5947 -1.0876
 3003TIP3    H130500   2.026   1.505  16.228 -0.9855  2.8540  0.3651
 3003TIP3    H230501   2.045   1.578  16.096 -0.3210  2.6059  0.3171
 3004TIP3   OH230502   3.030   5.411   2.147 -0.7106  0.0264  0.0903
 3004TIP3    H130503   3.100   5.457   2.194 -0.6199  0.2749 -0.2905
 3004TIP3    H230504   2.981   5.480   2.103 -1.5531 -0.0906  0.8248
 3005TIP3   OH230505   2.945   4.967  10.904 -0.3077  0.2544  0.2792
 3005TIP3    H130506   2.864   4.920  10.926 -0.6413  0.1795 -1.0476
 3005TIP3    H230507   2.915   5.045  10.857  0.4091 -0.0438 -0.6952
 3006TIP3   OH230508   0.923   5.653  14.027  0.3534  0.1792  0.3376
 3006TIP3    H130509   0.988   5.723  14.025  0.5232  0.0193  0.2581
 3006TIP3    H230510   0.912   5.633  14.120 -0.2296  0.8081  0.4039
 3007TIP3   OH230511   0.591   6.047  15.211  0.1826  0.4831 -0.1140
 3007TIP3    H130512   0.512   6.027  15.161  0.6716 -0.9606 -0.3495
 3007TIP3    H230513   0.559   6.088  15.291 -0.8559 -0.5767  0.0354
 3008TIP3   OH230514   2.080   0.152  11.640 -0.5031  0.0912 -0.3152
 3008TIP3    H130515   2.130   0.153  11.559 -3.1426  1.3137 -1.9933
 3008TIP3    H230516   2.002   0.101  11.619  0.0167 -1.8526  2.2597
 3009TIP3   OH230517   1.483   1.913   5.795  0.5421 -0.3528  0.3912
 3009TIP3    H130518   1.541   1.844   5.764  2.7428  1.1797  0.9450
 3009TIP3    H230519   1.444   1.950   5.715  2.2121  0.2037 -0.1729
 3010TIP3   OH230520   5.346   2.114   5.467  0.1638  0.2181  0.2362
 3010TIP3    H130521   5.429   2.163   5.469  0.5244 -0.3624 -0.1441
 3010TIP3    H230522   5.345   2.065   5.549  0.2792  0.0919  0.1622
 3011TIP3   OH230523   2.464   0.057   5.252 -0.0932 -0.1300  0.1754
 3011TIP3    H130524   2.451  -0.008   5.320 -0.2283 -1.4209 -1.0592
 3011TIP3    H230525   2.478   0.006   5.172  0.4963  1.3453 -0.6875
 3012TIP3   OH230526   6.795   3.572  12.089 -0.3503  0.2304  0.0818
 3012TIP3    H130527   6.726   3.630  12.058 -1.3177 -0.2660  1.2355
 3012TIP3    H230528   6.763   3.484  12.070  0.7746  0.0470 -0.9879
 3013TIP3   OH230529   4.343   4.840  14.979  0.3617  0.1721 -0.1401
 3013TIP3    H130530   4.436   4.828  14.960  0.2947 -0.2672 -0.1733
 3013TIP3    H230531   4.317   4.762  15.027 -0.0395  0.2035 -0.3001
 3014TIP3   OH230532   5.302   2.012  11.968  0.1040  1.2355 -0.3549
 3014TIP3    H130533   5.318   1.936  12.024  3.4846  0.9489 -1.6036
 3014TIP3    H230534   5.230   2.059  12.011 -0.7155 -1.5717  1.5060
 3015TIP3   OH230535   6.253   3.858   1.981  0.2710 -0.1348 -0.2113
 3015TIP3    H130536   6.321   3.919   1.952  0.1722  0.0735 -0.0081
 3015TIP3    H230537   6.288   3.771   1.961 -0.0761  0.0302 -1.5492
 3016TIP3   OH230538   0.222   2.586   3.081 -0.2968 -0.6789 -0.0146
 3016TIP3    H130539   0.280   2.530   3.029 -0.9961 -1.6813  0.2703
 3016TIP3    H230540   0.200   2.659   3.023  1.1387 -0.3506 -0.1712
 3017TIP3   OH230541   0.403   4.991  14.312 -0.0619 -0.6037 -0.6739
 3017TIP3    H130542   0.472   5.054  14.292 -0.2142 -0.2524 -0.1070
 3017TIP3    H230543   0.345   5.037  14.373 -1.4915 -0.4568 -2.1219
 3018TIP3   OH230544   3.496   0.618  13.741  0.0678  0.2473 -0.1632
 3018TIP3    H130545   3.408   0.600  13.708  0.6676 -1.4068 -0.9264
 3018TIP3    H230546   3.509   0.712  13.724 -1.8794  0.7245  0.8134
 3019TIP3   OH230547   2.455   6.220  12.910  0.2982 -0.3139  0.0329
 3019TIP3    H130548   2.515   6.191  12.842 -0.1544 -2.3937  0.4806
 3019TIP3    H230549   2.393   6.277  12.865  3.0187  2.4956 -0.2908
 3020TIP3   OH230550   3.993   6.418  15.876 -0.2411  0.0303  0.5070
 3020TIP3    H130551   3.945   6.449  15.798 -0.1755  0.3428  0.5900
 3020TIP3    H230552   3.969   6.480  15.945 -0.5385 -0.4219  0.8145
 3021TIP3   OH230553   2.218   6.515   5.711 -0.3586 -0.2055  0.4479
 3021TIP3    H130554   2.165   6.459   5.653 -0.6983  1.2477 -0.6921
 3021TIP3    H230555   2.304   6.517   5.670 -0.3355  0.0711  0.5085
 3022TIP3   OH230556   2.014   2.797   4.990 -0.1965 -0.4826 -0.6281
 3022TIP3    H130557   1.980   2.847   4.916 -0.6526  1.5900  0.9352
 3022TIP3    H230558   2.103   2.831   5.004 -0.1635 -0.7537 -0.1397
 3023TIP3   OH230559   2.794   1.710   6.674 -0.0988  0.1301 -0.6704
 3023TIP3    H130560   2.743   1.632   6.651  1.0988 -0.5953 -0.9274
 3023TIP3    H230561   2.874   1.675   6.712  0.2113  1.2611 -0.2799
 3024TIP3   OH230562   3.792   1.312   1.252  0.2447  0.0912 -0.3304
 3024TIP3    H130563   3.714   1.260   1.235  0.8620 -1.2622  0.8487
 3024TIP3    H230564   3.771   1.362   1.331 -0.4656  1.9270 -1.6377
 3025TIP3   OH230565   5.363   2.184   6.073  0.4247  0.3528 -0.0693
 3025TIP3    H130566   5.425   2.257   6.073  0.0017  0.7558  1.8722
 3025TIP3    H230567   5.408   2.114   6.121 -0.3394  0.4194  0.7710
 3026TIP3   OH230568   6.519   6.781  13.315  0.1601 -0.3181 -0.8075
 3026TIP3    H130569   6.539   6.702  13.365  0.0687 -0.4444 -0.9707
 3026TIP3    H230570   6.537   6.853  13.376 -0.6066 -0.4952 -0.3642
 3027TIP3   OH230571   2.550   5.473  15.955 -0.2820  0.4708  0.7603
 3027TIP3    H130572   2.569   5.384  15.927 -0.5389 -0.1011  2.3545
 3027TIP3    H230573   2.580   5.477  16.046  0.8215  2.3640  0.3422
 3028TIP3   OH230574   3.439   4.887  17.158  0.4699  0.1265  0.3865
 3028TIP3    H130575   3.445   4.875  17.063  0.4185  0.8825  0.2815
 3028TIP3    H230576   3.351   4.855  17.181  1.3126 -2.1879  0.5276
 3029TIP3   OH230577   5.254   4.344  14.790 -0.1690  0.0011  0.4126
 3029TIP3    H130578   5.345   4.316  14.779 -0.5761 -1.4351  0.5234
 3029TIP3    H230579   5.234   4.392  14.710  0.2560 -0.9338 -0.2666
 3030TIP3   OH230580   6.308   0.476  12.106 -0.3115 -0.4486  0.5374
 3030TIP3    H130581   6.387   0.529  12.094 -2.2607  3.1544  3.0622
 3030TIP3    H230582   6.330   0.417  12.179  0.6573 -0.8129 -0.0282
 3031TIP3   OH230583   4.985   6.539   4.982  0.5168 -0.2923 -0.4233
 3031TIP3    H130584   4.973   6.628   5.015  0.6659 -0.6342  0.5892
 3031TIP3    H230585   5.080   6.524   4.988  0.6313 -0.1249 -1.6597
 3032TIP3   OH230586   5.702   2.522  13.310  0.1416  0.4713 -0.1047
 3032TIP3    H130587   5.754   2.591  13.269  0.3897  1.1072  1.2526
 3032TIP3    H230588   5.612   2.540  13.281 -0.0840  2.5126  1.7087
 3033TIP3   OH230589   5.456   6.554   1.444  0.4361 -0.3760  0.1249
 3033TIP3    H130590   5.490   6.634   1.485  1.6751 -0.9160  0.1557
 3033TIP3    H230591   5.510   6.484   1.479 -0.7064 -1.2531  0.1550
 3034TIP3   OH230592   5.661   0.780   1.579  0.5904  0.0845  0.5080
 3034TIP3    H130593   5.646   0.687   1.592 -0.4643  0.1987  0.1703
 3034TIP3    H230594   5.651   0.819   1.666 -2.5164  0.3347  0.0948
 3035TIP3   OH230595   5.682   6.638  13.733 -0.5637 -0.2216 -0.4999
 3035TIP3    H130596   5.740   6.572  13.694 -0.5185 -1.5845  1.7893
 3035TIP3    H230597   5.598   6.594  13.743  0.0608 -0.7934  3.1518
 3036TIP3   OH230598   2.702   3.874  16.169 -0.5774  0.3763 -0.6993
 3036TIP3    H130599   2.640   3.823  16.117  0.2943 -1.3968 -0.0637
 3036TIP3    H230600   2.727   3.947  16.112 -1.9258  0.1468 -1.6052
 3037TIP3   OH230601   6.336   1.001   3.080 -0.1430 -0.3306 -0.4109
 3037TIP3    H130602   6.409   1.020   3.139  0.9261 -1.4942 -1.3219
 3037TIP3    H230603   6.369   1.024   2.993 -1.0764 -0.3092 -0.7629
 3038TIP3   OH230604   4.180   3.296   5.552  0.2273  0.0315  0.4312
 3038TIP3    H130605   4.121   3.237   5.504  0.1638  0.7666 -0.4142
 3038TIP3    H230606   4.206   3.246   5.629 -0.5123 -0.7771  0.1720
 3039TIP3   OH230607   1.100   0.948   6.651 -0.2276  0.1252  0.0724
 3039TIP3    H130608   1.049   0.886   6.598  0.5423  0.2958 -0.8828
 3039TIP3    H230609   1.190   0.938   6.619 -0.0491  1.5216  0.1134
 3040TIP3   OH230610   4.014   3.517   3.944  0.1368  0.1656 -0.1125
 3040TIP3    H130611   3.956   3.491   3.873 -0.3476 -0.2340  0.4334
 3040TIP3    H230612   4.098   3.477   3.921 -0.0281  0.0000 -0.4345
 3041TIP3   OH230613   3.300   3.259  11.092 -0.6379  0.6169  0.1355
 3041TIP3    H130614   3.232   3.327  11.100 -1.0541  0.2003  0.1520
 3041TIP3    H230615   3.358   3.292  11.023  0.1887  1.8598  1.3974
 3042TIP3   OH230616   0.125   2.038  11.230 -0.5617 -0.4183 -0.2752
 3042TIP3    H130617   0.049   2.030  11.288 -0.7948 -0.8737 -0.6313
 3042TIP3    H230618   0.102   1.982  11.155  0.0490 -0.4149 -0.4606
 3043TIP3   OH230619   2.235   2.808   0.770 -0.7635  0.1405  0.0385
 3043TIP3    H130620   2.301   2.743   0.793  0.7282  1.3323 -0.7760
 3043TIP3    H230621   2.209   2.847   0.853 -0.7937 -0.6767  0.4128
 3044TIP3   OH230622   1.359   6.180   5.625 -0.0885 -0.0777  0.1724
 3044TIP3    H130623   1.277   6.167   5.579 -0.2702  1.0838  0.1548
 3044TIP3    H230624   1.337   6.238   5.698  0.4300 -0.9243  1.0222
 3045TIP3   OH230625   3.685   3.740  11.918 -0.3732  0.2816  0.4919
 3045TIP3    H130626   3.754   3.801  11.893 -1.4207  1.0913 -0.4462
 3045TIP3    H230627   3.606   3.773  11.875 -0.8852 -1.9492 -0.3581
 3046TIP3   OH230628   6.044   2.169   3.745 -0.5028 -0.2314 -0.4864
 3046TIP3    H130629   6.103   2.243   3.734 -1.4762  0.3384 -1.8984
 3046TIP3    H230630   6.102   2.095   3.764  0.6163  0.4607 -1.1714
 3047TIP3   OH230631   3.529   1.276   4.774 -0.5226 -0.0186 -0.2822
 3047TIP3    H130632   3.504   1.201   4.828 -0.0035  0.5725  0.7994
 3047TIP3    H230633   3.619   1.296   4.802 -1.1773  1.9337  0.4932
 3048TIP3   OH230634   0.225   5.182   4.289  0.6341 -0.6053  0.2087
 3048TIP3    H130635   0.155   5.174   4.354  0.6700 -3.0697 -0.0333
 3048TIP3    H230636   0.244   5.276   4.286 -1.0330 -0.1871  1.9919
 3049TIP3   OH230637   3.357   2.153  11.916 -0.3085 -0.3242 -0.6008
 3049TIP3    H130638   3.283   2.105  11.952  1.2537 -1.0954  1.6622
 3049TIP3    H230639   3.336   2.245  11.932 -1.5844 -0.4216 -1.6146
 3050TIP3   OH230640   6.412   2.270   3.145 -0.6621 -0.6576  0.1324
 3050TIP3    H130641   6.339   2.239   3.198 -0.1584 -1.6603  0.2535
 3050TIP3    H230642   6.472   2.195   3.141 -0.5753 -0.5213 -1.6172
 3051TIP3   OH230643   4.520   3.961  13.304  0.0731 -0.4807 -0.2919
 3051TIP3    H130644   4.469   3.955  13.385  0.8165  1.9188  0.3803
 3051TIP3    H230645   4.569   3.878  13.301 -0.4804 -0.8967  1.3353
 3052TIP3   OH230646   1.792   4.222  13.905 -0.4665  0.3377 -0.2627
 3052TIP3    H130647   1.829   4.177  13.981  0.4081 -1.3245 -1.6418
 3052TIP3    H230648   1.856   4.209  13.835  0.0464  4.1728 -0.6095
 3053TIP3   OH230649   2.760   1.945  12.815 -0.3367  0.2492 -0.8979
 3053TIP3    H130650   2.679   1.987  12.785 -0.7273 -0.3985 -0.7730
 3053TIP3    H230651   2.829   2.010  12.798 -1.0893  1.4244  0.4174
 3054TIP3   OH230652   3.002   3.682  11.816  0.9843  0.1131 -0.3100
 3054TIP3    H130653   2.983   3.630  11.738 -0.4233  0.4582 -0.2129
 3054TIP3    H230654   3.025   3.769  11.782 -0.5192  0.5159 -0.3064
 3055TIP3   OH230655   0.119   3.557   3.969  0.1991 -0.1820 -0.5153
 3055TIP3    H130656   0.108   3.475   4.016  1.4246 -0.1914 -0.2222
 3055TIP3    H230657   0.082   3.624   4.027 -2.1418 -0.6657 -1.3804
 3056TIP3   OH230658   6.768   2.391  13.636 -0.4697 -0.0113 -0.7043
 3056TIP3    H130659   6.740   2.427  13.721 -0.9722 -0.1365 -0.8171
 3056TIP3    H230660   6.723   2.445  13.571 -1.4271 -0.9908 -0.8764
 3057TIP3   OH230661   0.492   4.864  15.176 -0.0837 -0.1542 -0.2457
 3057TIP3    H130662   0.410   4.845  15.131 -0.9266  0.1999  1.1200
 3057TIP3    H230663   0.511   4.785  15.226  1.0514 -0.6920 -1.4986
 3058TIP3   OH230664   3.219   0.438  11.126 -0.0771  0.7649 -0.9218
 3058TIP3    H130665   3.132   0.417  11.092 -0.7201 -2.1846  2.2671
 3058TIP3    H230666   3.277   0.377  11.080 -0.5044 -1.0073  0.8142
 3059TIP3   OH230667   0.510   3.576  10.986 -0.1565 -0.3931  0.1905
 3059TIP3    H130668   0.541   3.545  10.900  0.2293 -2.2619  0.9845
 3059TIP3    H230669   0.414   3.569  10.980 -0.1258 -0.6604 -0.0356
 3060TIP3   OH230670   3.633   0.071  11.625  0.5712  0.4080 -0.1934
 3060TIP3    H130671   3.728   0.079  11.630  0.5802  0.1916 -0.0389
 3060TIP3    H230672   3.618   0.009  11.554  0.5764 -0.4372  0.5402
 3061TIP3   OH230673   5.473   5.785  15.597 -0.3342 -0.7956  0.4393
 3061TIP3    H130674   5.554   5.783  15.648 -0.0285  0.5680  0.0469
 3061TIP3    H230675   5.446   5.877  15.599 -0.7871 -0.8842 -1.1289
 3062TIP3   OH230676   1.520   6.195   1.117  0.1536  0.7607  0.3266
 3062TIP3    H130677   1.533   6.287   1.142 -1.7992  1.1183  0.1113
 3062TIP3    H230678   1.431   6.175   1.147  1.0868 -1.5106  1.6898
 3063TIP3   OH230679   3.635   6.820   0.638 -0.0679 -0.5908  0.6742
 3063TIP3    H130680   3.594   6.895   0.597  0.4726  1.8073  4.2651
 3063TIP3    H230681   3.563   6.758   0.652 -0.6582 -0.4679 -1.5784
 3064TIP3   OH230682   2.836   5.246  11.450  0.2111  0.2290  0.0140
 3064TIP3    H130683   2.862   5.295  11.371  0.5101  1.0833  0.6357
 3064TIP3    H230684   2.919   5.222  11.491  0.0523 -0.2143  0.0784
 3065TIP3   OH230685   4.670   4.419   2.363  0.1668 -0.2772 -0.5551
 3065TIP3    H130686   4.648   4.494   2.307  1.0435  0.9673  0.7269
 3065TIP3    H230687   4.599   4.416   2.428  0.5709 -0.0376 -0.1018
 3066TIP3   OH230688   1.016   2.210   4.435 -0.4878  0.4888 -0.0750
 3066TIP3    H130689   0.963   2.255   4.369 -0.6852 -0.6208 -0.6674
 3066TIP3    H230690   0.976   2.236   4.518 -1.4558  0.3265 -0.4786
 3067TIP3   OH230691   1.201   2.295  13.556  0.6706 -0.3643 -0.3763
 3067TIP3    H130692   1.268   2.231  13.580  1.0878  0.6064  1.1182
 3067TIP3    H230693   1.143   2.247  13.497  1.5925 -1.7908 -0.1672
 3068TIP3   OH230694   6.530   1.274  11.376  0.1862 -0.2819 -0.0951
 3068TIP3    H130695   6.603   1.248  11.431  0.1646 -0.4702 -0.1554
 3068TIP3    H230696   6.457   1.220  11.405  0.2999 -0.7381 -0.6418
 3069TIP3   OH230697   6.748   4.384  13.832  0.1252  0.5603  0.5518
 3069TIP3    H130698   6.765   4.477  13.819 -1.7767  0.9541  0.7311
 3069TIP3    H230699   6.835   4.343  13.828  0.7035  1.8834 -3.0720
 3070TIP3   OH230700   0.131   1.895   3.789 -0.0354  0.0374  0.2709
 3070TIP3    H130701   0.196   1.870   3.855  0.0575 -0.5475 -0.0397
 3070TIP3    H230702   0.060   1.934   3.839  1.2009  2.0950  0.5147
 3071TIP3   OH230703   4.563   2.015  16.713 -0.4834  0.1686 -0.0936
 3071TIP3    H130704   4.640   1.959  16.724 -1.4297 -0.9977  0.6832
 3071TIP3    H230705   4.506   1.967  16.654 -0.2531  1.4377 -1.3780
 3072TIP3   OH230706   1.511   5.169  13.688 -0.5951 -0.2041 -0.3008
 3072TIP3    H130707   1.535   5.254  13.653 -0.1518 -0.3824 -0.4296
 3072TIP3    H230708   1.421   5.155  13.658  0.1201 -0.7926 -2.1968
 3073TIP3   OH230709   4.556   3.474   0.283  0.9334 -0.2951  0.3005
 3073TIP3    H130710   4.588   3.522   0.360  0.7683 -3.1887  2.2867
 3073TIP3    H230711   4.463   3.496   0.278  1.1377  0.6081  0.3917
 3074TIP3   OH230712   2.443   0.437  11.255  0.5777  0.3930  0.1856
 3074TIP3    H130713   2.458   0.498  11.328 -2.5437 -0.3875  1.5372
 3074TIP3    H230714   2.446   0.351  11.296 -1.1376 -0.0599 -0.6315
 3075TIP3   OH230715   2.406   2.807  12.683  0.0972 -0.4189  0.0407
 3075TIP3    H130716   2.397   2.736  12.620 -3.1268 -1.5345  1.6690
 3075TIP3    H230717   2.466   2.772  12.750 -1.4238 -1.6317  0.8068
 3076TIP3   OH230718   6.556   2.974  14.362  0.0216  0.8791 -0.2166
 3076TIP3    H130719   6.493   2.998  14.429  0.2426  0.1827  0.2526
 3076TIP3    H230720   6.535   3.029  14.287 -0.9444  0.8684  0.0448
 3077TIP3   OH230721   4.092   6.759   5.342  0.3595 -0.2932  0.3712
 3077TIP3    H130722   4.175   6.714   5.356  0.3500 -0.1597  0.8634
 3077TIP3    H230723   4.110   6.850   5.368  0.4876  0.0830 -0.9664
 3078TIP3   OH230724   2.696   4.056   5.795 -0.3313 -0.2741 -0.0307
 3078TIP3    H130725   2.699   4.152   5.791 -0.1626 -0.2091  1.4301
 3078TIP3    H230726   2.645   4.037   5.874 -0.3619 -1.3985 -0.3101
 3079TIP3   OH230727   5.288   5.314   4.464 -0.4341 -0.2995 -0.7950
 3079TIP3    H130728   5.365   5.274   4.504 -0.7838 -0.2090 -0.0228
 3079TIP3    H230729   5.269   5.258   4.388  1.0388  0.3192 -1.6394
 3080TIP3   OH230730   4.368   2.128   0.013  0.3494 -0.0879  0.1628
 3080TIP3    H130731   4.335   2.055  -0.040 -1.2390  0.8682 -0.1892
 3080TIP3    H230732   4.433   2.171  -0.043 -0.7132  0.4155 -0.7020
 3081TIP3   OH230733   4.209   1.497   4.423  0.1457  0.3089 -0.3354
 3081TIP3    H130734   4.296   1.487   4.385 -0.2523 -0.0897 -1.1741
 3081TIP3    H230735   4.193   1.415   4.469  0.2084  0.3807 -0.1838
 3082TIP3   OH230736   3.812   5.817   5.036  0.0176  0.0768  0.3949
 3082TIP3    H130737   3.808   5.735   4.987  0.2554  0.8260 -0.9190
 3082TIP3    H230738   3.888   5.808   5.093  0.3806 -0.3888 -0.1627
 3083TIP3   OH230739   4.072   5.448  14.692  0.3757 -0.4753  0.5835
 3083TIP3    H130740   4.135   5.492  14.748  2.2904 -2.2338 -0.1358
 3083TIP3    H230741   4.072   5.500  14.611 -1.9093  1.6800  1.9065
 3084TIP3   OH230742   0.041   2.640   1.333  0.4327 -0.4122 -0.1594
 3084TIP3    H130743  -0.017   2.657   1.406  0.3217 -1.5366  0.0258
 3084TIP3    H230744   0.118   2.694   1.349 -0.3117  0.6495 -0.1131
 3085TIP3   OH230745   6.366   4.757   5.234 -0.1025 -0.1471 -0.2799
 3085TIP3    H130746   6.349   4.848   5.211  3.4145  0.7318  0.2600
 3085TIP3    H230747   6.383   4.759   5.328 -3.2343 -1.9391  0.3999
 3086TIP3   OH230748   4.046   6.456   2.061 -0.4914 -0.1176  0.0617
 3086TIP3    H130749   4.101   6.397   2.112 -1.0824 -0.1931  0.6189
 3086TIP3    H230750   4.097   6.538   2.057  0.1387 -0.5285 -0.3546
 3087TIP3   OH230751   0.041   0.427  15.004 -0.4078 -0.5020  0.0305
 3087TIP3    H130752   0.054   0.342  15.047 -0.5996 -0.3718  0.3429
 3087TIP3    H230753   0.031   0.489  15.076 -0.7508 -0.2860 -0.2042
 3088TIP3   OH230754   6.131   1.112  14.336 -0.3825  0.2393  0.0438
 3088TIP3    H130755   6.186   1.161  14.275 -0.7498  1.2132  0.4782
 3088TIP3    H230756   6.066   1.069  14.280  0.7283 -0.8176 -0.4614
 3089TIP3   OH230757   6.617   4.209   4.357  0.3228 -0.1227 -0.0249
 3089TIP3    H130758   6.521   4.212   4.358  0.3177  0.7511 -1.9500
 3089TIP3    H230759   6.638   4.129   4.406 -1.3825 -0.3281  0.4123
 3090TIP3   OH230760   5.396   2.840   1.534 -0.0636 -0.0222  0.1208
 3090TIP3    H130761   5.344   2.899   1.479  1.8642  0.9346 -0.7347
 3090TIP3    H230762   5.351   2.840   1.619 -0.4859  2.1509 -0.0733
 3091TIP3   OH230763   6.758   5.843  12.763 -0.4107 -0.0962  0.2304
 3091TIP3    H130764   6.851   5.826  12.746 -0.5912 -1.1519  0.2651
 3091TIP3    H230765   6.756   5.878  12.852 -0.2556 -2.2781  1.1299
 3092TIP3   OH230766   4.615   1.373   0.056 -0.3200  0.5076  0.1257
 3092TIP3    H130767   4.550   1.441   0.069  0.7938  1.6706 -0.2406
 3092TIP3    H230768   4.655   1.360   0.143 -1.4508 -0.6571  0.4883
 3093TIP3   OH230769   3.624   6.296   1.047 -0.3184  0.1018  0.5126
 3093TIP3    H130770   3.548   6.349   1.022  0.0706  0.5558  0.2843
 3093TIP3    H230771   3.695   6.359   1.058  0.4670 -0.4920 -1.0282
 3094TIP3   OH230772   0.451   3.592  13.011  0.0147  0.2158 -0.4183
 3094TIP3    H130773   0.433   3.500  13.032  0.3789  0.1425 -0.4103
 3094TIP3    H230774   0.546   3.600  13.023  0.2217  0.1872 -1.9532
 3095TIP3   OH230775   0.412   2.909  13.942 -0.6339 -0.3641  0.0279
 3095TIP3    H130776   0.368   2.988  13.974  0.4454  0.8494 -1.4672
 3095TIP3    H230777   0.384   2.901  13.851  0.8557 -0.5747 -0.4149
 3096TIP3   OH230778   1.717   3.468  16.825  0.3115 -0.2569 -0.0942
 3096TIP3    H130779   1.701   3.547  16.876  1.3086 -0.5342  0.6801
 3096TIP3    H230780   1.727   3.499  16.735 -0.8895  0.3045 -0.0442
 3097TIP3   OH230781   0.717   2.357   0.368 -0.0454  0.0162 -0.5974
 3097TIP3    H130782   0.669   2.278   0.392 -0.6170  0.9050  1.2984
 3097TIP3    H230783   0.683   2.380   0.281 -0.6348 -1.2244 -0.7104
 3098TIP3   OH230784   6.721   4.393  15.631  0.5940  0.0301  0.2107
 3098TIP3    H130785   6.737   4.479  15.592  0.9104 -0.8066 -1.5648
 3098TIP3    H230786   6.628   4.377  15.617  0.5155  0.1148  0.6234
 3099TIP3   OH230787   5.182   1.621  16.987  0.4668 -0.1274  0.0688
 3099TIP3    H130788   5.141   1.665  17.061  0.2414 -1.9628  1.0675
 3099TIP3    H230789   5.273   1.610  17.013  1.0730  1.7562 -1.1310
 3100TIP3   OH230790   2.993   2.442   3.075 -0.3791 -0.0447  0.0951
 3100TIP3    H130791   3.076   2.449   3.122 -1.9041  1.1432  2.7295
 3100TIP3    H230792   2.952   2.364   3.110 -0.8037 -0.0989 -0.5107
 3101TIP3   OH230793   4.634   2.888  16.261  0.5923 -0.6047 -0.0513
 3101TIP3    H130794   4.630   2.964  16.319 -1.1703 -0.0833 -0.7885
 3101TIP3    H230795   4.652   2.925  16.174  1.1821 -1.1661 -0.1670
 3102TIP3   OH230796   3.550   6.392  13.244  0.4015  0.1020 -0.4235
 3102TIP3    H130797   3.623   6.349  13.289 -0.6451  0.9607  2.1857
 3102TIP3    H230798   3.480   6.327  13.245 -0.0707  0.6126  0.4565
 3103TIP3   OH230799   6.598   6.463  16.099  0.4231 -0.2474  0.7168
 3103TIP3    H130800   6.551   6.534  16.056 -1.3770 -2.3412 -0.8505
 3103TIP3    H230801   6.672   6.507  16.142 -0.9173  2.6223  0.2277
 3104TIP3   OH230802   2.209   1.901  15.285  0.7250  0.3245  0.2735
 3104TIP3    H130803   2.227   1.993  15.269  2.3082 -0.0796 -0.3286
 3104TIP3    H230804   2.255   1.881  15.367 -1.8408  0.7255  1.8552
 3105TIP3   OH230805   1.827   4.108   0.194  1.0134 -0.0363 -0.4578
 3105TIP3    H130806   1.896   4.063   0.242  1.2455  0.9293  0.1365
 3105TIP3    H230807   1.745   4.074   0.232  1.1507 -1.2591 -1.2393
 3106TIP3   OH230808   4.507   3.293   1.676 -0.3070 -0.0905 -0.2642
 3106TIP3    H130809   4.426   3.269   1.631  0.7341 -0.7446 -1.8250
 3106TIP3    H230810   4.484   3.294   1.769 -2.2943  0.5023 -0.7611
 3107TIP3   OH230811   5.184   4.116  13.057  0.7092  0.5917 -0.5111
 3107TIP3    H130812   5.098   4.129  13.018  0.0076 -1.5301  0.2904
 3107TIP3    H230813   5.237   4.080  12.986  0.0496 -1.0993 -0.1802
 3108TIP3   OH230814   1.336   3.602   6.019  0.1421 -0.9835  0.3695
 3108TIP3    H130815   1.400   3.564   6.080  1.2642  2.1536  1.2267
 3108TIP3    H230816   1.289   3.667   6.070  0.6870  1.3028 -1.9342
 3109TIP3   OH230817   1.709   5.003  11.971  0.6924 -0.3943  0.3866
 3109TIP3    H130818   1.741   5.092  11.984 -1.2384  0.3202  0.4970
 3109TIP3    H230819   1.700   4.994  11.876 -3.0903  1.0479  0.5389
 3110TIP3   OH230820   4.235   3.318   3.021  0.0680 -0.1396  0.5160
 3110TIP3    H130821   4.209   3.262   3.094 -0.3311  0.3129  0.7262
 3110TIP3    H230822   4.304   3.374   3.057 -1.7193  1.6679  1.2253
 3111TIP3   OH230823   0.525   6.385   6.362 -0.1621 -0.0936 -0.3223
 3111TIP3    H130824   0.524   6.377   6.267  2.5753 -1.6225 -0.2954
 3111TIP3    H230825   0.557   6.474   6.379 -0.4292  0.0981 -0.8383
 3112TIP3   OH230826   5.048   6.429  16.045 -0.0531 -0.5695 -0.4772
 3112TIP3    H130827   4.957   6.449  16.023 -0.2410 -1.2313 -0.3098
 3112TIP3    H230828   5.094   6.428  15.961 -0.8367 -3.4621 -0.9037
 3113TIP3   OH230829   5.450   0.589   4.278 -0.2788 -1.0434 -0.1281
 3113TIP3    H130830   5.413   0.548   4.356  0.2372 -0.5939  0.3512
 3113TIP3    H230831   5.396   0.667   4.264  1.6214  0.6730  1.6830
 3114TIP3   OH230832   0.241   5.977   0.408  0.2305 -0.2382 -0.0795
 3114TIP3    H130833   0.308   5.928   0.458 -0.5554 -0.7506  0.4817
 3114TIP3    H230834   0.280   5.988   0.321 -0.1594 -3.1312 -0.6660
 3115TIP3   OH230835   5.186   1.678   4.029  0.2799 -0.1984 -0.3545
 3115TIP3    H130836   5.101   1.646   4.059 -0.1870  2.5047  1.3223
 3115TIP3    H230837   5.166   1.758   3.980  1.7870  0.0724 -0.5691
 3116TIP3   OH230838   1.349   2.341  17.179 -0.1026  0.6282 -0.4399
 3116TIP3    H130839   1.339   2.436  17.177  0.1908  0.6433 -2.0938
 3116TIP3    H230840   1.338   2.314  17.087  1.2547 -0.7798 -0.2098
 3117TIP3   OH230841   2.894   0.086  17.286 -0.1540 -0.0571 -0.3721
 3117TIP3    H130842   2.948   0.146  17.337  0.7142 -0.6879 -0.5365
 3117TIP3    H230843   2.822   0.063  17.345  0.2334  0.0988  0.1666
 3118TIP3   OH230844   0.614   2.341   5.344  0.0355  0.2274 -0.2814
 3118TIP3    H130845   0.615   2.377   5.432  1.3856 -1.5716  0.4628
 3118TIP3    H230846   0.703   2.352   5.311 -0.2720  0.2134 -1.1494
 3119TIP3   OH230847   6.598   6.702   1.219 -0.0436 -0.3193 -0.4720
 3119TIP3    H130848   6.575   6.626   1.165 -0.2684  0.7813 -1.9567
 3119TIP3    H230849   6.693   6.696   1.230 -0.1460 -1.1767 -0.0190
 3120TIP3   OH230850   5.811   3.679  14.719  0.0223  0.1230  0.1980
 3120TIP3    H130851   5.721   3.714  14.722  0.8156  2.1967  0.7018
 3120TIP3    H230852   5.814   3.615  14.790 -0.4116  1.7005  1.6853
 3121TIP3   OH230853   5.113   4.516  15.169 -0.1688  0.2824  0.0420
 3121TIP3    H130854   5.105   4.472  15.253 -0.4021 -0.3700 -0.3194
 3121TIP3    H230855   5.146   4.603  15.190  1.2648 -0.3943  0.6859
 3122TIP3   OH230856   5.927   3.101   1.256 -0.2965 -0.4634  0.0540
 3122TIP3    H130857   5.891   3.032   1.201  0.9381 -1.2851  0.2385
 3122TIP3    H230858   6.022   3.097   1.240 -0.0784  0.2694  1.1164
 3123TIP3   OH230859   0.766   2.386   1.210 -0.2046  0.2686 -0.3653
 3123TIP3    H130860   0.743   2.294   1.203  1.9769 -0.5027  1.8117
 3123TIP3    H230861   0.797   2.396   1.300  0.7908  2.8244 -0.9402
 3124TIP3   OH230862   1.738   0.980   6.171  0.5491  0.0483  0.2383
 3124TIP3    H130863   1.712   0.888   6.180  1.4915 -0.1881  0.6782
 3124TIP3    H230864   1.660   1.025   6.140  0.1652 -0.9618 -0.2756
 3125TIP3   OH230865   3.972   3.834  15.151  0.5670 -0.3751  0.3484
 3125TIP3    H130866   3.924   3.834  15.233 -1.8965 -1.9007 -1.0296
 3125TIP3    H230867   3.917   3.885  15.091  2.0749  0.3013 -0.5074
 3126TIP3   OH230868   0.185   0.074  12.343  1.0717  0.3646 -0.0721
 3126TIP3    H130869   0.140   0.123  12.274  0.5669  0.7980  0.5704
 3126TIP3    H230870   0.278   0.081  12.319  0.8097 -0.6788 -1.4921
 3127TIP3   OH230871   6.317   2.026  12.395  0.2608 -0.2539  0.0680
 3127TIP3    H130872   6.330   2.091  12.326 -2.9324 -2.3226 -2.5747
 3127TIP3    H230873   6.277   2.076  12.467  1.2583  1.4029 -0.4812
 3128TIP3   OH230874   0.436   3.264   4.315  0.5698  0.6437 -0.5923
 3128TIP3    H130875   0.394   3.257   4.229  1.3438  0.9637 -0.9981
 3128TIP3    H230876   0.498   3.192   4.317 -1.3927 -1.0647  0.8115
 3129TIP3   OH230877   2.838   5.721  11.629 -0.9372  0.3215  0.2341
 3129TIP3    H130878   2.916   5.711  11.575 -0.2347  0.1338  1.2762
 3129TIP3    H230879   2.802   5.806  11.604 -1.1451 -0.1541 -1.1857
 3130TIP3   OH230880   0.613   0.444  12.761  0.3276  0.3608 -0.5902
 3130TIP3    H130881   0.660   0.431  12.843 -1.4915  0.6264  0.5241
 3130TIP3    H230882   0.561   0.364  12.750 -0.4552  0.8939 -0.7907
 3131TIP3   OH230883   0.664   4.771  13.436 -0.2094 -0.0308  0.9693
 3131TIP3    H130884   0.624   4.852  13.467 -0.4283  0.9340 -1.6482
 3131TIP3    H230885   0.758   4.788  13.438 -0.3170  1.3488 -2.0526
 3132TIP3   OH230886   0.880   0.048  16.124  0.2238  0.5572  0.2023
 3132TIP3    H130887   0.788   0.054  16.101  0.3515  1.8210  0.0047
 3132TIP3    H230888   0.914  -0.024  16.070 -0.9909 -1.0167  1.4808
 3133TIP3   OH230889   5.679   2.600   5.897  0.5281  0.1966 -0.2640
 3133TIP3    H130890   5.714   2.511   5.907  0.9531  0.5364  1.3806
 3133TIP3    H230891   5.667   2.631   5.986  0.9010  2.0105 -0.8340
 3134TIP3   OH230892   6.283   4.478  14.042 -0.2216  0.5424 -0.9971
 3134TIP3    H130893   6.333   4.523  13.975  0.4138  2.4403  0.6898
 3134TIP3    H230894   6.336   4.486  14.121 -2.0148  0.4253  0.2610
 3135TIP3   OH230895   2.775   1.743  14.760 -1.0156  0.2571 -0.4031
 3135TIP3    H130896   2.742   1.815  14.814 -2.8407  0.4522 -1.7388
 3135TIP3    H230897   2.846   1.782  14.710 -0.6158  0.5773  0.3962
 3136TIP3   OH230898   3.837   1.696   3.189  0.0220 -0.1815 -0.4476
 3136TIP3    H130899   3.924   1.668   3.220 -0.5423 -3.1680 -1.3896
 3136TIP3    H230900   3.810   1.762   3.252  2.8050  0.5120  0.1129
 3137TIP3   OH230901   5.199   0.447   1.353  0.3936 -0.3167 -0.2327
 3137TIP3    H130902   5.189   0.382   1.422 -0.1748  0.4316  0.3931
 3137TIP3    H230903   5.171   0.529   1.392 -0.6798 -0.0176 -1.5742
 3138TIP3   OH230904   5.768   4.987   3.547 -0.4038 -0.1818 -0.1221
 3138TIP3    H130905   5.815   5.025   3.621  1.6051 -0.1503 -1.3680
 3138TIP3    H230906   5.798   4.896   3.543 -1.0170 -0.3719 -0.4916
 3139TIP3   OH230907   1.778   0.730  14.308 -0.3322  0.1089  0.5995
 3139TIP3    H130908   1.757   0.708  14.217  0.4437  1.1977  0.1583
 3139TIP3    H230909   1.811   0.819  14.305 -0.1797  0.1105  1.9410
 3140TIP3   OH230910   1.452   3.724   2.351  0.2354  0.1701  0.0706
 3140TIP3    H130911   1.522   3.659   2.351  1.3780  1.3820  1.5320
 3140TIP3    H230912   1.377   3.679   2.390 -0.0556 -1.3645 -2.1672
 3141TIP3   OH230913   5.308   2.970   3.758  0.0155  0.2823  0.2091
 3141TIP3    H130914   5.316   2.996   3.666 -1.2277 -1.8161 -0.5237
 3141TIP3    H230915   5.396   2.942   3.782 -0.1218 -1.3915 -1.0864
 3142TIP3   OH230916   2.797   2.784   6.380 -0.5102 -0.6292 -0.3702
 3142TIP3    H130917   2.739   2.860   6.374  1.3047  0.8737  0.5117
 3142TIP3    H230918   2.814   2.775   6.474  3.2337  1.0032 -0.7897
 3143TIP3   OH230919   5.772   5.474  11.151  0.2155 -0.0927  0.0322
 3143TIP3    H130920   5.735   5.394  11.114 -0.1748 -0.0721  0.3654
 3143TIP3    H230921   5.850   5.492  11.099  0.5200 -0.9108  0.2115
 3144TIP3   OH230922   5.023   2.698   2.506 -0.2664  0.4713 -0.2896
 3144TIP3    H130923   5.044   2.745   2.426  0.4238 -0.3784 -0.6075
 3144TIP3    H230924   4.964   2.757   2.553 -0.6474  0.9894 -1.3965
 3145TIP3   OH230925   3.806   2.787   2.758  0.1711 -0.5016 -0.2165
 3145TIP3    H130926   3.857   2.815   2.682  1.3444 -1.1835  0.3169
 3145TIP3    H230927   3.722   2.833   2.748  0.9459  0.7899 -0.9914
 3146TIP3   OH230928   6.246   1.473  16.369 -0.4266  0.9024  0.9043
 3146TIP3    H130929   6.332   1.443  16.339 -0.6262  0.5306  0.7001
 3146TIP3    H230930   6.203   1.503  16.289 -0.1941  1.8166  1.1210
 3147TIP3   OH230931   6.201   1.473  12.805  0.3476  0.4798  0.2435
 3147TIP3    H130932   6.242   1.405  12.858  1.2223  1.2339  0.5618
 3147TIP3    H230933   6.229   1.555  12.847  1.7834  1.1312 -1.8859
 3148TIP3   OH230934   0.306   3.930   2.286  0.0567 -0.0870  0.3764
 3148TIP3    H130935   0.315   4.019   2.254 -0.7628 -1.1730 -3.0418
 3148TIP3    H230936   0.392   3.910   2.323  1.2967  1.0031 -1.8247
 3149TIP3   OH230937   5.228   2.091   1.804  0.0313 -1.3520 -0.1763
 3149TIP3    H130938   5.197   2.175   1.837  0.6650  0.3014 -3.5875
 3149TIP3    H230939   5.316   2.082   1.840 -0.7695 -1.5263  1.7929
 3150TIP3   OH230940   5.375   6.055   1.543  0.1527 -0.3208 -0.2195
 3150TIP3    H130941   5.399   6.091   1.457  1.1889  0.8065  0.5255
 3150TIP3    H230942   5.425   5.974   1.550  0.6773 -0.0092 -0.3470
 3151TIP3   OH230943   5.696   1.918   2.398  0.3770  0.0637 -0.1080
 3151TIP3    H130944   5.623   1.905   2.338  1.2739 -0.0066 -1.2151
 3151TIP3    H230945   5.680   2.003   2.439 -1.1598 -0.6848  0.8777
 3152TIP3   OH230946   1.505   2.250  16.512  0.0337 -0.9916  0.4772
 3152TIP3    H130947   1.432   2.202  16.473 -0.0432  0.7253 -1.5898
 3152TIP3    H230948   1.470   2.285  16.594 -1.7942  0.5737 -0.9174
 3153TIP3   OH230949   6.154   6.419   5.385 -0.0153 -0.6942 -0.0747
 3153TIP3    H130950   6.098   6.486   5.424 -0.8238 -2.7362  2.4639
 3153TIP3    H230951   6.243   6.443   5.412 -0.3579 -0.9137  1.2971
 3154TIP3   OH230952   2.906   4.685  12.460  0.6254  0.2949  1.1364
 3154TIP3    H130953   2.957   4.628  12.518 -1.1167 -1.2884  1.1643
 3154TIP3    H230954   2.816   4.656  12.471  0.1063  0.8287 -1.3911
 3155TIP3   OH230955   4.603   0.049   2.549 -0.2049  0.5149  0.2084
 3155TIP3    H130956   4.572   0.043   2.459 -1.4868  1.6178  0.5630
 3155TIP3    H230957   4.648  -0.034   2.565 -1.2710 -0.2953 -0.9594
 3156TIP3   OH230958   6.140   5.731  17.220 -0.2297 -0.4166  0.7647
 3156TIP3    H130959   6.231   5.704  17.217 -0.4904 -1.1291 -0.8246
 3156TIP3    H230960   6.091   5.652  17.244 -0.4211 -0.0107  1.7341
 3157TIP3   OH230961   4.839   3.732  14.354  0.8483 -0.1120 -0.0272
 3157TIP3    H130962   4.884   3.657  14.314  0.2423  0.4953 -1.9041
 3157TIP3    H230963   4.747   3.706  14.356  0.9705 -0.4349  1.6883
 3158TIP3   OH230964   0.653   1.495  13.802  0.0870  0.6022  0.1850
 3158TIP3    H130965   0.714   1.422  13.802  0.9905  1.3437  0.0852
 3158TIP3    H230966   0.659   1.532  13.714 -1.3664 -0.0176 -0.1909
 3159TIP3   OH230967   5.569   1.348   3.740 -0.0464  0.5199 -0.7854
 3159TIP3    H130968   5.513   1.393   3.803 -0.8181 -0.7999 -0.5179
 3159TIP3    H230969   5.509   1.322   3.670  0.1034 -1.4284 -0.2147
 3160TIP3   OH230970   3.398   1.184  16.896 -0.0304  0.0369  0.0032
 3160TIP3    H130971   3.447   1.129  16.958  1.3258 -0.3781 -1.4201
 3160TIP3    H230972   3.466   1.227  16.844 -1.1319  1.5408 -0.2098
 3161TIP3   OH230973   3.990   1.854  14.612  0.8888  0.1612 -0.2543
 3161TIP3    H130974   4.047   1.851  14.535  0.3896  1.1410 -0.6642
 3161TIP3    H230975   3.911   1.807  14.584  0.7622  0.3974 -0.2909
 3162TIP3   OH230976   0.448   5.649  10.468 -0.1962 -0.0155  0.3603
 3162TIP3    H130977   0.479   5.628  10.380 -2.4657 -2.1616  0.0096
 3162TIP3    H230978   0.353   5.656  10.459 -0.4364 -0.0516  2.5868
 3163TIP3   OH230979   0.012   1.204  15.747 -0.0922  0.3378 -1.1773
 3163TIP3    H130980   0.012   1.129  15.807 -1.0486  0.8017 -0.5661
 3163TIP3    H230981   0.065   1.270  15.792  1.4503 -0.2596 -2.1033
 3164TIP3   OH230982   2.856   3.445  15.186 -0.2989  0.1961  0.3823
 3164TIP3    H130983   2.861   3.414  15.095 -1.3914  0.0769  0.3617
 3164TIP3    H230984   2.853   3.540  15.180  1.9209  0.2931  0.3985
 3165TIP3   OH230985   5.624   1.900  15.240  1.1207 -0.4185 -0.2511
 3165TIP3    H130986   5.544   1.925  15.287  0.8384 -0.6353 -0.6190
 3165TIP3    H230987   5.650   1.979  15.193  0.9304 -0.4540 -0.4130
 3166TIP3   OH230988   1.198   5.489  16.706 -0.1276 -0.0763 -0.5499
 3166TIP3    H130989   1.116   5.472  16.658  0.0086 -0.9663 -0.4833
 3166TIP3    H230990   1.175   5.477  16.798  0.4988 -2.2010 -0.6481
 3167TIP3   OH230991   2.428   6.461  11.122  0.2336 -0.0665 -0.2661
 3167TIP3    H130992   2.490   6.522  11.161  0.1859  0.6289 -1.2375
 3167TIP3    H230993   2.395   6.507  11.045  0.8196 -1.6326 -1.5039
 3168TIP3   OH230994   2.805   1.156  15.238 -0.2374 -0.2498 -0.0447
 3168TIP3    H130995   2.765   1.244  15.236  1.2719  0.4289 -1.4323
 3168TIP3    H230996   2.774   1.114  15.157  0.0432 -0.5429 -0.0003
 3169TIP3   OH230997   3.964   1.368  17.147 -0.0137  0.1101  0.0594
 3169TIP3    H130998   4.039   1.327  17.104 -0.3112  2.2921 -2.6742
 3169TIP3    H230999   4.001   1.406  17.227  1.7183  0.8203 -1.0541
 3170TIP3   OH231000   1.959   2.052   5.220  0.3293 -0.6002  0.1956
 3170TIP3    H131001   2.029   2.018   5.164  1.0235  0.7755  0.2045
 3170TIP3    H231002   1.983   2.023   5.308  0.5952 -0.5997  0.1250
 3171TIP3   OH231003   4.869   3.838  16.193  0.8352  0.2079  0.1117
 3171TIP3    H131004   4.959   3.820  16.220  0.7362 -0.1555  0.2011
 3171TIP3    H231005   4.878   3.881  16.108  1.0770 -0.1377 -0.0406
 3172TIP3   OH231006   4.440   6.294  14.593  0.1070  0.0958 -0.0276
 3172TIP3    H131007   4.368   6.336  14.546 -2.2271 -1.5053  2.0466
 3172TIP3    H231008   4.492   6.252  14.524 -1.4460  0.5025 -1.4604
 3173TIP3   OH231009   5.511   3.897  13.684 -0.0242  0.4870 -0.0964
 3173TIP3    H131010   5.527   3.947  13.764  0.2345 -1.0172  0.8001
 3173TIP3    H231011   5.447   3.949  13.636 -2.7429 -0.2617  2.6186
 3174TIP3   OH231012   2.698   4.811  13.950  0.0294 -0.0744 -0.2693
 3174TIP3    H131013   2.704   4.891  14.003 -1.5468 -0.3653  0.3913
 3174TIP3    H231014   2.605   4.806  13.926  0.6945  0.0354 -3.0828
 3175TIP3   OH231015   6.656   3.598  17.255  0.6527 -0.0988 -0.0303
 3175TIP3    H131016   6.663   3.520  17.310 -1.6244 -0.1158  0.2929
 3175TIP3    H231017   6.583   3.647  17.293  0.7535  1.1897 -1.4584
 3176TIP3   OH231018   6.385   6.644  15.575 -0.3062 -0.6149 -0.0439
 3176TIP3    H131019   6.453   6.689  15.625  2.1420 -1.7567 -2.1943
 3176TIP3    H231020   6.344   6.585  15.638  1.0854 -0.2816  1.2014
 3177TIP3   OH231021   0.931   2.177   3.879 -0.3017  0.7551  0.1279
 3177TIP3    H131022   0.850   2.144   3.841 -0.6062  0.7775  0.7591
 3177TIP3    H231023   0.937   2.267   3.849 -0.5886  0.8005  0.2023
 3178TIP3   OH231024   4.565   5.413  11.800  0.7663 -0.6672 -0.2318
 3178TIP3    H131025   4.551   5.498  11.758 -2.1206 -0.1099  1.7494
 3178TIP3    H231026   4.627   5.431  11.870  1.1944 -0.4875 -0.6506
 3179TIP3   OH231027   3.393   4.168   0.258  0.2334  0.5737  0.0054
 3179TIP3    H131028   3.382   4.236   0.325  0.7181 -1.0326  1.7517
 3179TIP3    H231029   3.331   4.100   0.283  0.9477 -0.3728 -0.7729
 3180TIP3   OH231030   4.383   0.790  16.467  0.0911  0.0889  0.0966
 3180TIP3    H131031   4.357   0.824  16.382  0.8593  0.7524  0.1226
 3180TIP3    H231032   4.457   0.845  16.493  2.2503 -2.4411 -0.4926
 3181TIP3   OH231033   6.477   1.771  13.634  0.2953 -0.5809  0.7481
 3181TIP3    H131034   6.533   1.708  13.588 -0.0047 -0.9150  0.8455
 3181TIP3    H231035   6.429   1.719  13.697 -0.8682 -0.4471 -0.0164
 3182TIP3   OH231036   4.212   3.866   0.789 -0.5319 -0.7386 -0.0769
 3182TIP3    H131037   4.267   3.866   0.711 -0.4017 -0.7535  0.0146
 3182TIP3    H231038   4.124   3.882   0.757 -0.5286 -1.0856 -0.2634
 3183TIP3   OH231039   5.077   3.407  15.234 -0.3821 -0.2081  0.6578
 3183TIP3    H131040   5.056   3.325  15.190 -1.6014 -0.0065  0.8660
 3183TIP3    H231041   5.171   3.418  15.219 -0.3677 -1.2262 -0.0604
 3184TIP3   OH231042   5.654   5.976  10.663 -0.2139 -0.2378  0.6388
 3184TIP3    H131043   5.598   6.048  10.634  0.3069 -0.2836 -0.4935
 3184TIP3    H231044   5.605   5.897  10.642 -0.6022 -0.2286  1.4987
 3185TIP3   OH231045   0.517   1.781  12.109 -0.0521  0.2225 -0.1070
 3185TIP3    H131046   0.480   1.852  12.057  0.0135  2.2738  2.5907
 3185TIP3    H231047   0.442   1.744  12.156  0.2997  0.0279  0.3014
 3186TIP3   OH231048   0.278   5.984  15.134 -0.2668 -0.2599 -0.0594
 3186TIP3    H131049   0.232   5.986  15.050 -2.8907 -1.6191  1.2697
 3186TIP3    H231050   0.268   6.073  15.168  0.9136  0.3308 -1.2292
 3187TIP3   OH231051   4.038   5.213  14.811  0.9085 -0.1905 -0.1368
 3187TIP3    H131052   4.071   5.239  14.897 -0.2702 -1.6355  0.7609
 3187TIP3    H231053   4.055   5.289  14.756  3.6442 -0.0552  0.8379
 3188TIP3   OH231054   2.006   3.957  14.989  0.2599  0.2201  0.0916
 3188TIP3    H131055   2.052   3.928  14.910  0.3946  0.5072  0.0670
 3188TIP3    H231056   2.023   4.051  14.994 -0.5055  0.3713 -0.0435
 3189TIP3   OH231057   6.536   4.957  14.683  0.2222 -0.1273 -0.2505
 3189TIP3    H131058   6.462   4.994  14.732  0.1229  0.7219 -1.0126
 3189TIP3    H231059   6.612   5.004  14.716  0.3100 -0.4030 -0.0627
 3190TIP3   OH231060   4.505   3.857  12.970  0.1318  0.2656  0.2340
 3190TIP3    H131061   4.413   3.832  12.980  0.4973 -1.5107 -0.7385
 3190TIP3    H231062   4.553   3.776  12.983  1.3679  0.4485 -2.8451
 3191TIP3   OH231063   1.337   5.641   2.965  0.5131 -0.4452 -0.2664
 3191TIP3    H131064   1.361   5.570   3.024  1.7714  0.3965  0.2518
 3191TIP3    H231065   1.275   5.694   3.014 -2.7711 -2.7405 -1.6821
 3192TIP3   OH231066   3.039   5.930  14.283  0.4406  0.3940  0.5687
 3192TIP3    H131067   2.991   6.012  14.283  1.2771  0.9864 -3.2087
 3192TIP3    H231068   2.973   5.864  14.261  0.3730  0.4830  0.5054
 3193TIP3   OH231069   4.014   5.085   5.385  0.1069  0.3295 -0.3924
 3193TIP3    H131070   4.027   5.160   5.443  2.7287 -0.7108  0.4742
 3193TIP3    H231071   4.090   5.086   5.327  1.5405 -3.0254  1.2849
 3194TIP3   OH231072   5.074   4.386   3.468  0.0508  0.1722 -0.5956
 3194TIP3    H131073   5.149   4.360   3.414 -0.1351 -1.1234 -0.2344
 3194TIP3    H231074   5.104   4.376   3.558 -0.9606 -1.6302 -0.4300
 3195TIP3   OH231075   0.244   6.439  14.676  0.3825 -0.5128  0.5336
 3195TIP3    H131076   0.150   6.420  14.677  0.0550  0.8329 -1.3747
 3195TIP3    H231077   0.249   6.534  14.686  1.5833 -0.6608  1.3868
 3196TIP3   OH231078   5.033   0.733  13.077 -0.9270  0.6805 -0.1622
 3196TIP3    H131079   4.955   0.688  13.109  0.0645 -0.2811  0.9409
 3196TIP3    H231080   5.097   0.663  13.063 -0.0371  1.5340 -0.4038
 3197TIP3   OH231081   2.560   3.337   4.926  0.0942  0.7656  0.1905
 3197TIP3    H131082   2.481   3.347   4.872 -0.1994  0.2582  0.5143
 3197TIP3    H231083   2.629   3.382   4.877 -0.2549  0.6531 -0.4152
 3198TIP3   OH231084   4.889   2.632  14.286  0.1231 -0.3152 -0.0501
 3198TIP3    H131085   4.877   2.591  14.200 -0.0558  0.0340 -0.1923
 3198TIP3    H231086   4.980   2.661  14.286 -0.5047  1.7852 -1.0504
 3199TIP3   OH231087   0.894   3.341  10.575  0.0986 -0.0155 -0.4087
 3199TIP3    H131088   0.937   3.422  10.549  0.9663 -0.3043  0.1097
 3199TIP3    H231089   0.907   3.282  10.501 -0.6557  0.3524 -0.8465
 3200TIP3   OH231090   4.856   2.954   5.490 -0.4148  0.0047 -0.5640
 3200TIP3    H131091   4.844   2.975   5.397  1.3179  1.5802 -0.4792
 3200TIP3    H231092   4.937   2.903   5.493 -0.5243 -0.1387  0.0638
 3201TIP3   OH231093   5.323   4.025  12.834  0.0229 -1.7921  0.5209
 3201TIP3    H131094   5.396   4.007  12.775 -0.4163  1.3306 -1.0779
 3201TIP3    H231095   5.252   3.970  12.802 -0.0976 -0.4006 -1.6493
 3202TIP3   OH231096   6.142   1.510  12.231  0.3859  0.5160  0.7733
 3202TIP3    H131097   6.171   1.499  12.322  0.8594  1.6981  0.7767
 3202TIP3    H231098   6.075   1.443  12.219 -1.0181  1.5344  2.5889
 3203TIP3   OH231099   3.800   4.334  14.170  0.6398  0.5149  0.4536
 3203TIP3    H131100   3.721   4.285  14.145 -0.4069  2.2428  0.2815
 3203TIP3    H231101   3.767   4.411  14.215  2.3304  0.3245  2.0972
 3204TIP3   OH231102   0.337   4.798  13.237 -0.1106  0.0711 -0.1140
 3204TIP3    H131103   0.305   4.725  13.289  1.9049 -0.4483  0.4349
 3204TIP3    H231104   0.330   4.769  13.146  0.3287 -0.6559  0.0847
 3205TIP3   OH231105   4.962   5.970   0.130 -0.0969 -0.0025  0.4568
 3205TIP3    H131106   4.877   5.931   0.109  0.4568 -0.6170 -0.6892
 3205TIP3    H231107   4.952   6.003   0.219 -1.9265  1.0162 -0.1017
 3206TIP3   OH231108   5.830   5.837   1.113 -0.6226  0.5949 -0.3182
 3206TIP3    H131109   5.847   5.753   1.157 -0.6911  0.2281 -0.9770
 3206TIP3    H231110   5.855   5.821   1.022 -2.1668  0.7986 -0.7891
 3207TIP3   OH231111   1.365   6.300   0.676 -0.2610 -0.2629 -0.3102
 3207TIP3    H131112   1.335   6.264   0.760  2.3871 -0.6355  0.5442
 3207TIP3    H231113   1.443   6.248   0.655  0.4189  1.3348 -1.8515
 3208TIP3   OH231114   6.776   5.258  10.260  0.0479 -0.0657  0.0400
 3208TIP3    H131115   6.753   5.166  10.248  0.1257  0.1571 -2.1231
 3208TIP3    H231116   6.855   5.270  10.207  1.3940  0.7072  2.1732
 3209TIP3   OH231117   6.687   5.726   4.399  0.4919  0.1764 -0.5081
 3209TIP3    H131118   6.777   5.738   4.370  1.0503  0.3297  1.2070
 3209TIP3    H231119   6.684   5.765   4.487 -0.8088 -1.2760  0.1325
 3210TIP3   OH231120   6.069   4.720   3.816 -0.3571  0.1147 -0.5899
 3210TIP3    H131121   6.062   4.744   3.908  2.9570 -4.3444  0.9892
 3210TIP3    H231122   6.007   4.648   3.805  0.2117 -0.2430 -1.4969
 3211TIP3   OH231123   4.800   4.511   5.422 -0.1537 -0.4323  0.1350
 3211TIP3    H131124   4.831   4.422   5.404  2.4797  0.3391  0.6644
 3211TIP3    H231125   4.778   4.546   5.335  1.2597 -0.7213 -0.3485
 3212TIP3   OH231126   1.778   4.788  14.341 -0.0213  0.2313  0.5111
 3212TIP3    H131127   1.691   4.816  14.313 -0.4936 -0.1373  1.5828
 3212TIP3    H231128   1.838   4.850  14.299 -0.6490 -0.7008 -1.8101
 3213TIP3   OH231129   2.944   0.053   6.001  0.0534  0.0337 -0.4513
 3213TIP3    H131130   3.023   0.090   5.962 -0.8234 -0.8111 -3.1991
 3213TIP3    H231131   2.901   0.128   6.043  0.9944  1.0508 -1.2468
 3214TIP3   OH231132   1.896   5.937   5.088  0.0789  0.0388  0.0613
 3214TIP3    H131133   1.836   5.933   5.162 -0.3702  2.5996 -0.1126
 3214TIP3    H231134   1.887   5.852   5.044 -2.1226 -0.2389  1.0171
 3215TIP3   OH231135   4.448   5.911   5.737  0.0769 -0.5635 -0.2810
 3215TIP3    H131136   4.514   5.957   5.789  0.1987 -1.1318  0.0742
 3215TIP3    H231137   4.365   5.937   5.777  0.1637 -0.9008  0.1295
 3216TIP3   OH231138   5.228   3.115   0.494  0.1314  0.6241 -0.2504
 3216TIP3    H131139   5.228   3.126   0.399  1.0550  0.8734 -0.2300
 3216TIP3    H231140   5.158   3.173   0.525  0.5063  1.3232 -0.6940
 3217TIP3   OH231141   4.602   0.595  15.930  0.3321  0.3894  0.5037
 3217TIP3    H131142   4.521   0.609  15.881 -0.7990  1.6308  2.6334
 3217TIP3    H231143   4.654   0.674  15.913  1.4302 -0.6902 -1.3842
 3218TIP3   OH231144   5.070   1.301   2.752  0.1637  0.3492  0.3316
 3218TIP3    H131145   5.091   1.381   2.801 -1.3704  0.8569  0.1633
 3218TIP3    H231146   5.063   1.234   2.820 -0.7872  0.8165  0.7074
 3219TIP3   OH231147   2.411   3.065  12.116 -0.3060 -0.4036 -0.2576
 3219TIP3    H131148   2.419   3.028  12.204 -1.2089 -1.1477 -0.4770
 3219TIP3    H231149   2.389   3.157  12.130 -3.7340 -1.2514  0.3340
 3220TIP3   OH231150   1.043   0.062   1.916 -0.3654 -0.4252 -0.2261
 3220TIP3    H131151   1.051   0.004   1.992 -2.7424  3.2270  2.9916
 3220TIP3    H231152   1.124   0.114   1.917 -0.7562  0.1770  0.3125
 3221TIP3   OH231153   3.915   0.098  12.772 -0.3085 -0.4828 -0.1751
 3221TIP3    H131154   3.990   0.145  12.807  1.1406 -1.1760 -2.2785
 3221TIP3    H231155   3.912   0.122  12.679 -2.2435 -1.0483 -0.2929
 3222TIP3   OH231156   4.380   0.862   5.536  0.2869  0.0600 -0.1241
 3222TIP3    H131157   4.402   0.843   5.445  1.8855 -0.6439  0.3873
 3222TIP3    H231158   4.419   0.790   5.586 -0.9024  0.2291  1.0894
 3223TIP3   OH231159   5.968   3.738  16.922  0.2485  0.1008  0.0259
 3223TIP3    H131160   6.024   3.758  16.847  0.5491  1.1378  0.5167
 3223TIP3    H231161   5.994   3.802  16.989  2.7398 -3.2867  2.4272
 3224TIP3   OH231162   5.054   4.183   2.067 -0.0007 -0.2577  0.6212
 3224TIP3    H131163   5.066   4.275   2.086  1.2168 -0.4577  0.8526
 3224TIP3    H231164   4.988   4.181   1.998  0.6883  0.8445 -0.0835
 3225TIP3   OH231165   4.283   2.312   2.735 -0.7381 -0.1302  0.0926
 3225TIP3    H131166   4.293   2.372   2.809  0.9646 -0.0559 -0.1833
 3225TIP3    H231167   4.291   2.225   2.773 -0.1402 -0.0992  0.0413
 3226TIP3   OH231168   1.858   0.683   2.792  0.0117 -0.5705  0.0922
 3226TIP3    H131169   1.849   0.775   2.817  1.5170 -0.5686  0.7057
 3226TIP3    H231170   1.799   0.636   2.851 -2.2403  0.1643 -1.5243
 3227TIP3   OH231171   2.748   5.686  15.257 -0.4438 -0.3048  0.4208
 3227TIP3    H131172   2.765   5.649  15.170 -1.7080 -0.7278  0.3516
 3227TIP3    H231173   2.664   5.649  15.283 -0.6758  0.8025  1.2916
 3228TIP3   OH231174   6.586   0.598  12.306  0.4009  0.7304 -0.3603
 3228TIP3    H131175   6.642   0.521  12.317  0.2339  0.9291  2.2184
 3228TIP3    H231176   6.603   0.628  12.217  3.0149 -0.2917 -0.2394
 3229TIP3   OH231177   2.480   5.339  14.418 -0.0499  0.6719 -0.8555
 3229TIP3    H131178   2.549   5.387  14.373 -1.0432  1.1308 -1.9407
 3229TIP3    H231179   2.491   5.361  14.510  0.7575  1.3780 -1.1142
 3230TIP3   OH231180   6.404   1.697  14.795 -0.3467 -0.1517 -0.3888
 3230TIP3    H131181   6.484   1.673  14.843 -0.4690 -2.2237 -1.1538
 3230TIP3    H231182   6.370   1.613  14.763 -2.1188  0.8536 -1.1943
 3231TIP3   OH231183   2.392   5.806   6.422  0.2271 -0.4195 -0.4831
 3231TIP3    H131184   2.301   5.797   6.392 -0.4638  1.0094  1.0724
 3231TIP3    H231185   2.384   5.853   6.505  2.5619  1.5602 -1.3458
 3232TIP3   OH231186   0.207   2.178   1.733  0.7341  0.2890  0.5687
 3232TIP3    H131187   0.227   2.090   1.767  1.5505  0.8594  1.5983
 3232TIP3    H231188   0.280   2.232   1.762  0.1283  1.3609  0.1194
 3233TIP3   OH231189   6.498   6.520  14.695 -0.3279  0.2950 -0.4643
 3233TIP3    H131190   6.552   6.600  14.692  1.1474 -0.6175  0.9547
 3233TIP3    H231191   6.431   6.539  14.760  0.3368  0.2129  0.2606
 3234TIP3   OH231192   4.000   4.147   3.692 -0.3126  0.0062  0.2940
 3234TIP3    H131193   3.983   4.068   3.642  1.3329 -1.3179  1.7794
 3234TIP3    H231194   3.952   4.136   3.774 -0.4043  0.7374  0.3501
 3235TIP3   OH231195   4.752   4.647   5.182 -0.2764  0.4002 -0.1127
 3235TIP3    H131196   4.748   4.560   5.141  1.1538 -1.1334  2.8052
 3235TIP3    H231197   4.660   4.673   5.191 -0.6992 -0.4680 -1.6920
 3236TIP3   OH231198   1.753   6.283   3.602 -0.4999 -0.0407 -0.0546
 3236TIP3    H131199   1.831   6.317   3.645 -1.0029  0.1481  0.7303
 3236TIP3    H231200   1.764   6.305   3.509  0.5742 -0.4110 -0.0143
 3237TIP3   OH231201   3.319   6.016   4.163 -0.1178 -0.3897  0.2669
 3237TIP3    H131202   3.330   5.993   4.071  0.9415 -2.0724  0.7977
 3237TIP3    H231203   3.264   5.947   4.199  0.9187 -0.7150  1.2820
 3238TIP3   OH231204   1.625   6.282   1.863  0.2703 -0.0854  0.1998
 3238TIP3    H131205   1.719   6.299   1.856  0.4331 -1.6689 -1.9842
 3238TIP3    H231206   1.618   6.187   1.870 -1.2464 -0.2068 -2.2107
 3239TIP3   OH231207   6.607   5.777  12.543 -0.1385 -0.1116  0.4473
 3239TIP3    H131208   6.654   5.813  12.618  0.9718  2.3133 -1.3905
 3239TIP3    H231209   6.524   5.825  12.541  0.4107  0.7875 -0.6984
 3240TIP3   OH231210   2.193   3.134  16.943 -0.5459  0.0558 -0.0270
 3240TIP3    H131211   2.248   3.157  16.868 -0.9581 -0.9305 -0.6312
 3240TIP3    H231212   2.243   3.165  17.019 -0.8277  2.4848 -0.7696
 3241TIP3   OH231213   0.969   1.361  10.969  0.5908 -0.4505 -0.1574
 3241TIP3    H131214   0.914   1.423  10.921 -0.1861 -0.3462  0.8530
 3241TIP3    H231215   0.974   1.284  10.912  0.8245  0.1861 -1.0193
 3242TIP3   OH231216   6.772   5.123   4.415 -0.6099  0.0703 -0.7238
 3242TIP3    H131217   6.748   5.094   4.503 -0.5501 -2.4332 -1.4797
 3242TIP3    H231218   6.802   5.213   4.426 -0.8886 -0.1182  1.7712
 3243TIP3   OH231219   1.646   4.177  13.058 -0.8984 -0.4737 -0.5713
 3243TIP3    H131220   1.680   4.235  13.127 -3.5705 -0.0504  0.4439
 3243TIP3    H231221   1.724   4.135  13.022  0.8338  1.6340  0.6025
 3244TIP3   OH231222   2.427   2.257   3.375 -0.1169 -0.2631  0.3354
 3244TIP3    H131223   2.440   2.337   3.426 -1.7861  1.1283 -1.3562
 3244TIP3    H231224   2.476   2.272   3.294  0.8527 -1.6220  0.6562
 3245TIP3   OH231225   1.834   5.610  16.867  0.8288 -0.1959 -0.0472
 3245TIP3    H131226   1.889   5.562  16.929  1.2179 -0.7941 -0.8642
 3245TIP3    H231227   1.759   5.552  16.851  0.2442  0.3636  0.5947
 3246TIP3   OH231228   0.268   2.872   3.002 -0.3997 -0.0059  0.0083
 3246TIP3    H131229   0.340   2.897   2.943  2.1094 -0.8983  2.5787
 3246TIP3    H231230   0.193   2.923   2.971  1.5618  1.6793 -2.1703
 3247TIP3   OH231231   2.596   0.167   0.439 -0.3072 -0.1112  0.0157
 3247TIP3    H131232   2.607   0.115   0.519  0.0899 -0.2830 -0.1532
 3247TIP3    H231233   2.505   0.151   0.413 -0.1347 -0.8604 -0.1380
 3248TIP3   OH231234   0.202   0.020   4.581  0.3822  0.4679  0.1002
 3248TIP3    H131235   0.198   0.089   4.514  0.6681  0.2685 -0.1214
 3248TIP3    H231236   0.292   0.023   4.614  0.5959 -0.2859 -0.4162
 3249TIP3   OH231237   6.539   0.184  14.509 -0.2449  0.0694  0.5265
 3249TIP3    H131238   6.574   0.101  14.477  0.4220  0.2005  0.8935
 3249TIP3    H231239   6.597   0.250  14.472  1.0900  0.1658  2.6933
 3250TIP3   OH231240   4.715   4.063   2.871  0.0858 -0.1438 -0.9366
 3250TIP3    H131241   4.660   4.073   2.948 -0.3550  0.6607 -1.3501
 3250TIP3    H231242   4.682   4.128   2.810  0.3723 -0.8498 -1.8450
 3251TIP3   OH231243   3.435   2.824  13.841 -0.3201  0.2196  0.0151
 3251TIP3    H131244   3.395   2.743  13.808 -1.5973  0.7252  0.3163
 3251TIP3    H231245   3.529   2.806  13.838 -0.5866 -1.3260  0.1910
 3252TIP3   OH231246   1.946   6.618  11.372  0.5296  0.5038  0.9090
 3252TIP3    H131247   2.038   6.594  11.385  1.0627  2.1913  0.4031
 3252TIP3    H231248   1.913   6.636  11.460  0.6207 -0.3334  1.1138
 3253TIP3   OH231249   1.588   1.464   2.955  0.1611  0.0334  0.2306
 3253TIP3    H131250   1.531   1.424   2.890 -1.0389  2.5452 -0.3346
 3253TIP3    H231251   1.642   1.525   2.905  1.0455  0.1067  1.2434
 3254TIP3   OH231252   1.283   0.553   1.917  0.0547  0.0980 -0.2966
 3254TIP3    H131253   1.328   0.612   1.857 -0.1256  1.4005  0.8387
 3254TIP3    H231254   1.278   0.470   1.869  3.9326 -0.2004 -0.3420
 3255TIP3   OH231255   4.014   0.508   2.930  0.0678 -0.3142  0.0770
 3255TIP3    H131256   4.047   0.500   3.020 -0.0316 -1.3490  0.0200
 3255TIP3    H231257   4.061   0.441   2.881 -0.1806 -0.0251 -0.5666
 3256TIP3   OH231258   0.568   3.018   1.887 -0.3408  0.6787  0.2904
 3256TIP3    H131259   0.582   2.944   1.946 -0.7654  0.0028 -0.4479
 3256TIP3    H231260   0.486   3.057   1.917 -0.5447  0.3526  0.1497
 3257TIP3   OH231261   6.297   6.442  17.106  0.4315 -0.9901 -0.1265
 3257TIP3    H131262   6.343   6.430  17.189  1.8275 -0.2161 -0.7734
 3257TIP3    H231263   6.337   6.379  17.047  0.8051 -0.1950 -0.7389
 3258TIP3   OH231264   1.569   5.391   5.388 -0.3482  0.5590  0.2677
 3258TIP3    H131265   1.588   5.452   5.459  0.5691 -1.0800  1.4692
 3258TIP3    H231266   1.643   5.329   5.389 -1.9837 -1.4611  0.0912
 3259TIP3   OH231267   6.664   3.366  14.947 -0.0932  0.0993 -0.3315
 3259TIP3    H131268   6.753   3.387  14.977 -0.1263  0.4493 -0.4737
 3259TIP3    H231269   6.607   3.393  15.020 -0.1613  0.8062 -0.6415
 3260TIP3   OH231270   4.954   4.911  13.932 -0.2736  0.0594  0.0097
 3260TIP3    H131271   4.872   4.863  13.919 -0.7978  1.0608 -0.5422
 3260TIP3    H231272   4.926   4.994  13.971  0.4453  0.5312 -0.4725
 3261TIP3   OH231273   1.131   2.635  16.133 -0.3991  0.9633  0.0206
 3261TIP3    H131274   1.207   2.584  16.162 -0.4092  1.0585  0.2088
 3261TIP3    H231275   1.068   2.627  16.204 -1.0677 -0.1639 -0.6775
 3262TIP3   OH231276   2.853   6.518  15.711 -0.0910  0.1003 -0.4525
 3262TIP3    H131277   2.890   6.592  15.759  1.3061 -1.8407  1.5746
 3262TIP3    H231278   2.771   6.499  15.757  1.1072 -1.5758  1.0755
 3263TIP3   OH231279   0.690   4.258   4.305 -0.4391  0.1655 -0.3395
 3263TIP3    H131280   0.719   4.212   4.226  1.0700 -0.8061  0.7551
 3263TIP3    H231281   0.735   4.342   4.303  0.4687 -0.3038  0.0338
 3264TIP3   OH231282   1.570   4.159   5.144  0.1110  0.3852  0.1125
 3264TIP3    H131283   1.489   4.121   5.110  0.3832  1.1978 -1.4667
 3264TIP3    H231284   1.622   4.083   5.171  0.6624 -0.4281 -3.0328
 3265TIP3   OH231285   3.783   4.044  13.753 -0.8918  0.1919  0.2368
 3265TIP3    H131286   3.706   4.055  13.697 -0.2903 -2.3154 -1.1391
 3265TIP3    H231287   3.748   4.005  13.833 -1.0504 -1.0611 -0.4356
 3266TIP3   OH231288   3.244   1.402  12.690  0.1449  0.3009  0.0480
 3266TIP3    H131289   3.289   1.467  12.637  1.3597 -0.7015 -0.1677
 3266TIP3    H231290   3.208   1.452  12.763 -1.7262  1.7228 -1.7986
 3267TIP3   OH231291   4.860   5.951  14.123 -0.4603 -0.1900  0.5716
 3267TIP3    H131292   4.773   5.987  14.107 -1.2794 -1.5942  1.7007
 3267TIP3    H231293   4.884   5.908  14.041 -0.7769  0.2986  0.2210
 3268TIP3   OH231294   1.233   2.130  10.680  0.3686 -0.0903 -0.6267
 3268TIP3    H131295   1.226   2.187  10.604  1.1737  1.5384  0.5000
 3268TIP3    H231296   1.324   2.140  10.710  0.5608 -2.0246 -0.4450
 3269TIP3   OH231297   6.283   3.272  12.262  0.1201  0.4656 -0.2635
 3269TIP3    H131298   6.241   3.331  12.199 -1.3065  0.7412  0.9365
 3269TIP3    H231299   6.274   3.316  12.346  0.1290 -0.8986  0.4620
 3270TIP3   OH231300   2.335   4.294   2.128 -0.0109  0.1526  0.3690
 3270TIP3    H131301   2.380   4.313   2.210  1.7592  0.1769 -0.5769
 3270TIP3    H231302   2.344   4.199   2.118  0.5753  0.2721 -0.2447
 3271TIP3   OH231303   5.103   5.557  15.105 -0.7526 -0.6590  0.6401
 3271TIP3    H131304   5.101   5.639  15.154 -0.9237 -1.0364  1.2852
 3271TIP3    H231305   5.123   5.582  15.015 -2.5065  0.2588  0.4800
 3272TIP3   OH231306   4.962   3.680  10.489 -0.5545  0.0949 -0.5591
 3272TIP3    H131307   4.979   3.609  10.551 -0.6391  0.7105  0.1693
 3272TIP3    H231308   4.874   3.661  10.455  0.2683 -1.3053 -1.9365
 3273TIP3   OH231309   0.755   2.143  13.025  0.5657 -0.3198  0.0052
 3273TIP3    H131310   0.727   2.053  13.009 -1.5345  0.4001 -0.4033
 3273TIP3    H231311   0.737   2.157  13.118 -2.4487  0.8056 -0.6948
 3274TIP3   OH231312   5.295   2.167  14.010 -0.6501 -0.2377  0.3564
 3274TIP3    H131313   5.233   2.151  13.938 -0.3994 -0.3564  0.1671
 3274TIP3    H231314   5.243   2.154  14.090 -0.9161 -0.1554  0.1992
 3275TIP3   OH231315   5.285   2.809  11.754 -0.3847 -0.1762  0.2899
 3275TIP3    H131316   5.366   2.793  11.705 -1.6005 -2.9389 -0.8800
 3275TIP3    H231317   5.298   2.763  11.836 -0.7003 -0.4673  0.1752
 3276TIP3   OH231318   5.829   0.729  16.097  0.2782 -0.3775 -0.5945
 3276TIP3    H131319   5.858   0.735  16.006  2.2539  2.5595  0.1674
 3276TIP3    H231320   5.900   0.685  16.143 -0.6363 -1.6890 -0.3928
 3277TIP3   OH231321   3.943   2.833   2.523  0.6241 -0.0422  0.2194
 3277TIP3    H131322   3.986   2.751   2.499  1.8954  0.6692  0.0457
 3277TIP3    H231323   3.935   2.881   2.441  0.5624  0.3288  0.4445
 3278TIP3   OH231324   0.700   3.340  16.704 -0.0113 -0.1143 -0.3298
 3278TIP3    H131325   0.609   3.367  16.698  0.2471  0.2675 -3.8810
 3278TIP3    H231326   0.698   3.245  16.690  0.1901  0.0332 -1.4187
 3279TIP3   OH231327   2.654   3.530   1.524 -0.6314  0.3921 -0.2620
 3279TIP3    H131328   2.567   3.564   1.546  0.2853  2.2975  0.5553
 3279TIP3    H231329   2.692   3.597   1.467  0.1845 -0.5991 -0.9036
 3280TIP3   OH231330   5.790   5.002   2.931  0.7735 -0.8852  0.1436
 3280TIP3    H131331   5.808   4.935   2.865  1.0778  0.2419 -0.9437
 3280TIP3    H231332   5.876   5.024   2.967  0.3756 -3.2244  2.6850
 3281TIP3   OH231333   5.365   0.093   3.832 -0.3779 -0.1798  0.2405
 3281TIP3    H131334   5.303   0.039   3.783  0.9186 -1.9302  0.4975
 3281TIP3    H231335   5.451   0.070   3.797  0.1174  2.5783 -0.4446
 3282TIP3   OH231336   2.250   6.666  13.487 -0.1961  0.3940  0.2351
 3282TIP3    H131337   2.183   6.730  13.509 -0.6658 -0.3946  1.1215
 3282TIP3    H231338   2.210   6.581  13.504  0.8322 -0.1056  0.2353
 3283TIP3   OH231339   4.894   6.413  15.326 -0.6942 -0.1932 -0.1303
 3283TIP3    H131340   4.956   6.485  15.333  0.2264 -0.8124 -1.7419
 3283TIP3    H231341   4.837   6.438  15.253 -0.9024 -0.7104 -0.1452
 3284TIP3   OH231342   6.186   5.358   5.555 -0.2269  0.4745  0.5699
 3284TIP3    H131343   6.244   5.406   5.614  1.1674 -1.2417  0.6480
 3284TIP3    H231344   6.236   5.280   5.531 -2.9339 -1.5998  1.4631
 3285TIP3   OH231345   0.572   3.268  11.314 -0.1913 -0.4702  0.1350
 3285TIP3    H131346   0.561   3.291  11.406 -0.0691  0.0774  0.0151
 3285TIP3    H231347   0.635   3.332  11.280  1.8125 -2.3121  0.3023
 3286TIP3   OH231348   6.557   6.738  15.370  0.3807  0.1579 -0.1993
 3286TIP3    H131349   6.640   6.694  15.352  0.5088 -0.2381  1.3161
 3286TIP3    H231350   6.509   6.677  15.426 -0.0329  1.2942  0.7123
 3287TIP3   OH231351   4.716   1.166  11.789 -0.3631  0.0885 -0.3587
 3287TIP3    H131352   4.810   1.150  11.791 -0.4205 -0.2057 -0.0246
 3287TIP3    H231353   4.705   1.250  11.832 -0.1080  0.8059 -1.6810
 3288TIP3   OH231354   5.149   2.624   5.424  0.6840 -0.0832  0.5027
 3288TIP3    H131355   5.077   2.633   5.361  0.1908  1.7918  1.2952
 3288TIP3    H231356   5.150   2.531   5.446 -0.1726 -0.4859 -1.0619
 3289TIP3   OH231357   1.252   1.386  11.978  0.4382  0.5483 -0.3372
 3289TIP3    H131358   1.233   1.305  11.931 -1.2112  0.3075  0.6866
 3289TIP3    H231359   1.248   1.454  11.911 -2.0166  0.2326 -0.5639
 3290TIP3   OH231360   1.243   5.365   3.387 -0.4055  0.0086 -0.0058
 3290TIP3    H131361   1.321   5.318   3.416 -1.1642 -0.3560  1.4814
 3290TIP3    H231362   1.171   5.305   3.404 -1.2661  1.2533  0.8060
 3291TIP3   OH231363   0.531   2.278  12.914 -0.4083 -0.2371  0.1082
 3291TIP3    H131364   0.591   2.210  12.943  0.0159 -0.9282 -2.3050
 3291TIP3    H231365   0.588   2.344  12.874 -1.0905  0.0671 -0.3667
 3292TIP3   OH231366   5.038   1.541   0.168  1.0989 -0.0232  0.2620
 3292TIP3    H131367   5.096   1.491   0.110  1.8880 -0.3202  1.2831
 3292TIP3    H231368   5.075   1.527   0.256  2.1306  3.4030  0.4484
 3293TIP3   OH231369   0.200   6.064   2.593  0.2421  0.5017  0.3671
 3293TIP3    H131370   0.234   6.090   2.507  1.6823  0.4139  0.8907
 3293TIP3    H231371   0.112   6.031   2.575  0.5906  0.3296 -1.1108
 3294TIP3   OH231372   0.289   3.251   0.899  0.0946 -0.3147 -0.5376
 3294TIP3    H131373   0.317   3.269   0.809  1.3518  1.8659  0.2356
 3294TIP3    H231374   0.367   3.268   0.952 -0.1676 -3.0984  0.8502
 3295TIP3   OH231375   0.661   4.269   3.939  0.3106  0.0873  0.3130
 3295TIP3    H131376   0.744   4.256   3.893 -0.0331  0.7855 -0.5336
 3295TIP3    H231377   0.675   4.233   4.026  1.3482 -0.2320  0.0178
 3296TIP3   OH231378   1.538   0.573   2.395 -0.1902 -0.1565  0.0412
 3296TIP3    H131379   1.542   0.488   2.438 -0.7472 -0.4161 -0.4233
 3296TIP3    H231380   1.617   0.619   2.425  0.1074 -0.8313  0.2876
 3297TIP3   OH231381   3.716   2.790   4.453  0.8164 -0.4257 -0.3097
 3297TIP3    H131382   3.807   2.773   4.479  1.0894 -0.4240 -1.2345
 3297TIP3    H231383   3.723   2.838   4.370 -0.0100  1.2163  0.5486
 3298TIP3   OH231384   5.949   6.799   2.955 -0.0582  0.0106 -0.0508
 3298TIP3    H131385   5.960   6.778   3.048 -1.8002  0.5228  0.2876
 3298TIP3    H231386   5.891   6.730   2.922  1.3497 -0.7516 -1.0218
 3299TIP3   OH231387   5.445   5.497  14.503  0.1390  0.4116 -0.1933
 3299TIP3    H131388   5.399   5.462  14.426 -0.1438  0.8541 -0.2228
 3299TIP3    H231389   5.536   5.470  14.490 -0.6486 -3.4448  1.5508
 3300TIP3   OH231390   4.772   1.124   2.413 -0.0129  0.2281 -0.3943
 3300TIP3    H131391   4.806   1.135   2.502 -1.9451 -0.4805  0.4426
 3300TIP3    H231392   4.822   1.188   2.361  2.7515 -0.9215  0.7317
 3301TIP3   OH231393   6.532   4.411   6.364  0.6593 -0.3398 -0.2984
 3301TIP3    H131394   6.556   4.324   6.396  0.3270 -0.2093  0.3329
 3301TIP3    H231395   6.594   4.470   6.408  0.6697 -0.2279 -0.4651
 3302TIP3   OH231396   3.228   1.716  14.946 -0.0884  0.6483 -0.2376
 3302TIP3    H131397   3.170   1.767  14.890  1.5259  0.9501 -1.6731
 3302TIP3    H231398   3.234   1.767  15.026  2.1783  3.2076 -1.9754
 3303TIP3   OH231399   4.096   6.291   0.232  0.3563  0.2169  0.4043
 3303TIP3    H131400   4.151   6.221   0.268  0.7018 -0.2689 -1.0250
 3303TIP3    H231401   4.030   6.307   0.299  0.7923 -0.8906  1.1129
 3304TIP3   OH231402   3.172   6.303  14.300  0.5626  0.1544 -0.3200
 3304TIP3    H131403   3.154   6.397  14.310  2.3920  0.5598 -0.5490
 3304TIP3    H231404   3.167   6.287  14.206 -0.9404 -0.2360 -0.1724
 3305TIP3   OH231405   3.078   0.759  12.973  0.2562  0.3442 -0.0386
 3305TIP3    H131406   3.138   0.748  13.047  0.8469  0.7918 -0.4547
 3305TIP3    H231407   3.095   0.682  12.917  0.3673  0.4168 -0.1043
 3306TIP3   OH231408   2.827   4.148   1.013  0.3382  0.4105  0.3279
 3306TIP3    H131409   2.757   4.202   0.975 -0.0087 -0.7399 -0.6933
 3306TIP3    H231410   2.816   4.158   1.108 -1.1906  0.2575  0.1786
 3307TIP3   OH231411   3.561   0.216  13.081  0.3902 -0.1432  0.3344
 3307TIP3    H131412   3.648   0.246  13.108  0.1421  0.8848 -0.0056
 3307TIP3    H231413   3.564   0.217  12.985 -0.0820  0.1359  0.3226
 3308TIP3   OH231414   2.499   2.806  16.866 -0.6053  0.1614 -0.1735
 3308TIP3    H131415   2.468   2.856  16.941 -0.6453 -1.9444  1.2346
 3308TIP3    H231416   2.594   2.798  16.879 -0.5620  0.0609 -0.5195
 3309TIP3   OH231417   6.784   1.161  11.483  0.2198 -0.0311  0.6459
 3309TIP3    H131418   6.874   1.135  11.461  0.3570 -0.7673  2.0494
 3309TIP3    H231419   6.791   1.201  11.569 -0.7289  0.4278  0.5143
 3310TIP3   OH231420   4.803   6.744   1.861 -0.0848  0.0133 -0.4492
 3310TIP3    H131421   4.715   6.750   1.897  0.7080 -1.5530  1.9110
 3310TIP3    H231422   4.844   6.672   1.910  2.8201  1.3968 -0.7062
 3311TIP3   OH231423   5.082   4.375  16.197 -0.1496 -0.6513 -0.5976
 3311TIP3    H131424   5.027   4.365  16.274  1.4635 -1.9650  0.4341
 3311TIP3    H231425   5.039   4.321  16.130 -0.4029 -1.2251  0.0224
 3312TIP3   OH231426   2.528   5.003  10.899 -0.2118  0.4534  0.0630
 3312TIP3    H131427   2.560   5.093  10.912 -0.1098  0.5356 -0.7348
 3312TIP3    H231428   2.600   4.948  10.928  0.3857  0.6372 -1.0425
 3313TIP3   OH231429   0.443   3.137  14.335  0.1458  0.1162  0.2051
 3313TIP3    H131430   0.516   3.096  14.291  0.8521 -0.6053  1.9803
 3313TIP3    H231431   0.376   3.069  14.342 -0.8892  0.8928 -1.7922
 3314TIP3   OH231432   0.657   1.208  12.079  0.5032  0.4550  0.8489
 3314TIP3    H131433   0.590   1.147  12.110  2.4289 -1.5775  1.1507
 3314TIP3    H231434   0.705   1.234  12.159  1.1810  0.5106  0.4280
 3315TIP3   OH231435   6.107   1.631  15.168  0.5862  0.0475  0.3086
 3315TIP3    H131436   6.087   1.625  15.261 -1.8800 -0.5840 -0.2395
 3315TIP3    H231437   6.142   1.720  15.157 -0.6857  0.7178  1.5359
 3316TIP3   OH231438   2.882   6.296  15.889 -0.3675  0.0105  0.0863
 3316TIP3    H131439   2.909   6.348  15.964  0.2237 -1.0124  0.6004
 3316TIP3    H231440   2.909   6.347  15.812 -0.6657  0.8979  0.5702
 3317TIP3   OH231441   5.687   0.177  15.285  0.0065  0.1306  0.1345
 3317TIP3    H131442   5.749   0.235  15.242  1.3857 -0.5667  1.1496
 3317TIP3    H231443   5.680   0.102  15.227  0.7198 -0.1397  0.3950
 3318TIP3   OH231444   2.271   0.972   1.593 -0.1804 -0.7647 -0.2718
 3318TIP3    H131445   2.193   0.989   1.539 -0.0049  0.5474 -0.1286
 3318TIP3    H231446   2.314   0.899   1.550 -1.3425 -1.3238 -0.5177
 3319TIP3   OH231447   2.949   5.179  12.407 -0.2013  0.7230  0.1720
 3319TIP3    H131448   2.963   5.086  12.423 -2.1396  0.3095 -0.3736
 3319TIP3    H231449   2.982   5.194  12.319 -2.3347 -0.0555 -0.7871
 3320TIP3   OH231450   5.606   0.177   3.445 -0.1762  0.0190  0.3844
 3320TIP3    H131451   5.681   0.181   3.386  0.4832 -1.1765  1.1215
 3320TIP3    H231452   5.530   0.188   3.389  0.5356  0.9461 -0.4111
 3321TIP3   OH231453   6.104   1.777  12.098 -0.1098 -0.0558  0.2618
 3321TIP3    H131454   6.125   1.785  12.005 -1.1080 -0.6121 -0.0147
 3321TIP3    H231455   6.121   1.686  12.120 -0.6644 -0.1285  0.4180
 3322TIP3   OH231456   1.796   3.047   0.164 -0.0207  0.0507  0.2619
 3322TIP3    H131457   1.829   3.038   0.253  0.0944  0.4378  0.2579
 3322TIP3    H231458   1.834   2.973   0.117 -0.0986 -0.1679  0.5364
 3323TIP3   OH231459   5.641   2.586  17.062 -0.0235  0.5508  0.0268
 3323TIP3    H131460   5.619   2.498  17.033 -0.9666  0.2559  1.5671
 3323TIP3    H231461   5.565   2.639  17.040  0.1306  0.7640  0.0085
 3324TIP3   OH231462   3.975   5.753   2.338  0.4967  0.0597 -0.4298
 3324TIP3    H131463   3.967   5.681   2.275  1.0124 -0.1784 -0.2218
 3324TIP3    H231464   3.937   5.719   2.419 -0.1516  0.3605 -0.6022
 3325TIP3   OH231465   5.387   5.082   5.620 -0.2447 -0.4027  0.3944
 3325TIP3    H131466   5.391   4.992   5.653  1.6094 -0.8006 -0.8558
 3325TIP3    H231467   5.475   5.116   5.634  0.0157  0.0926 -2.2066
 3326TIP3   OH231468   2.631   0.016   3.192  0.4119  0.2424  0.1408
 3326TIP3    H131469   2.604  -0.054   3.132 -0.5686  0.1797  0.6398
 3326TIP3    H231470   2.718  -0.011   3.222 -0.0456 -0.9030  0.5010
 3327TIP3   OH231471   3.971   4.669  16.440 -0.4268 -0.6807  0.4168
 3327TIP3    H131472   4.024   4.731  16.490  0.6608 -0.3181 -1.1655
 3327TIP3    H231473   4.030   4.596  16.422 -0.1394  0.1545 -2.2011
 3328TIP3   OH231474   6.174   0.602   4.827  0.4523 -0.5367  0.0700
 3328TIP3    H131475   6.102   0.630   4.771 -0.0281  1.4952  1.6705
 3328TIP3    H231476   6.138   0.528   4.877 -0.4344  0.2464  0.6104
 3329TIP3   OH231477   2.860   3.067  14.174  0.1512 -0.2293 -0.1100
 3329TIP3    H131478   2.792   3.118  14.219  0.3393 -0.7910  0.8162
 3329TIP3    H231479   2.856   3.098  14.084  0.0498  1.2239  0.3655
 3330TIP3   OH231480   5.430   1.330   0.175  0.4123 -0.0163  0.2985
 3330TIP3    H131481   5.479   1.249   0.180  0.3711 -0.1371 -0.9528
 3330TIP3    H231482   5.486   1.396   0.216  0.2457 -0.7659  1.7240
 3331TIP3   OH231483   2.697   2.421  11.960  0.0838  0.3193 -0.1570
 3331TIP3    H131484   2.602   2.428  11.967  0.2070  1.8329  0.1599
 3331TIP3    H231485   2.716   2.330  11.981 -1.1166  0.5166  1.9248
 3332TIP3   OH231486   6.305   3.750  15.607  0.1652  0.2752 -0.2768
 3332TIP3    H131487   6.305   3.835  15.563 -0.0177 -0.1771 -1.1492
 3332TIP3    H231488   6.238   3.699  15.563 -0.1050 -0.1467  0.6038
 3333TIP3   OH231489   3.010   1.908  10.887 -0.1947 -0.2687 -0.0379
 3333TIP3    H131490   3.008   1.864  10.802 -1.1685 -0.4263  0.0631
 3333TIP3    H231491   2.940   1.973  10.883 -1.4123 -1.4482  1.2559
 3334TIP3   OH231492   3.381   4.249  11.903 -0.4447 -0.3404  0.7026
 3334TIP3    H131493   3.330   4.231  11.823  1.6711 -1.9581 -0.3366
 3334TIP3    H231494   3.359   4.176  11.961  0.3616 -0.8357  0.3963
 3335TIP3   OH231495   6.740   6.417  13.411  0.0449  0.1473 -0.1261
 3335TIP3    H131496   6.682   6.352  13.371 -1.1049  0.9907  0.1341
 3335TIP3    H231497   6.737   6.397  13.505 -2.6034  2.3101  0.3231
 3336TIP3   OH231498   1.917   2.337   0.339  0.3317  0.1383 -0.6321
 3336TIP3    H131499   1.899   2.280   0.414  2.0350  0.9995  0.4649
 3336TIP3    H231500   1.836   2.387   0.327 -0.1825 -0.4750  0.2148
 3337TIP3   OH231501   2.147   0.178  11.365 -0.5559  0.9604  0.4592
 3337TIP3    H131502   2.096   0.099  11.345  2.1502 -0.5610 -0.6905
 3337TIP3    H231503   2.103   0.248  11.317 -2.2506 -0.0759  0.4638
 3338TIP3   OH231504   6.352   3.804  11.856 -0.2507 -0.2883  0.1791
 3338TIP3    H131505   6.292   3.866  11.815  1.5798  1.5872  0.2006
 3338TIP3    H231506   6.405   3.859  11.915  0.8305 -2.0363  0.8552
 3339TIP3   OH231507   2.606   4.212  13.432  0.2201 -0.1238  0.0946
 3339TIP3    H131508   2.529   4.254  13.394  1.0082  0.4223 -0.9286
 3339TIP3    H231509   2.571   4.137  13.480 -0.9973  0.4479  0.1099
 3340TIP3   OH231510   2.535   3.836   2.838 -0.8628 -0.3450 -0.1481
 3340TIP3    H131511   2.554   3.807   2.928  0.6214  0.4426 -0.1965
 3340TIP3    H231512   2.604   3.796   2.785 -1.2425 -0.1118 -0.8199
 3341TIP3   OH231513   4.248   1.247   6.348 -0.1455 -0.1813  0.2081
 3341TIP3    H131514   4.267   1.339   6.331  0.3027 -0.3482 -0.2097
 3341TIP3    H231515   4.171   1.249   6.405 -0.2155  0.4473  0.1026
 3342TIP3   OH231516   1.843   4.183   3.082  0.0281  0.5652 -0.1230
 3342TIP3    H131517   1.829   4.183   3.176 -1.9931 -2.0720 -0.3540
 3342TIP3    H231518   1.938   4.183   3.072  0.2968 -0.9175  1.9801
 3343TIP3   OH231519   1.420   2.640  14.952  0.3105  0.0960  0.1077
 3343TIP3    H131520   1.334   2.601  14.939  0.3050  0.6808 -1.8920
 3343TIP3    H231521   1.482   2.571  14.928  0.4246 -0.5344  2.1711
 3344TIP3   OH231522   2.164   0.742  11.709 -0.1870  0.1789 -0.1523
 3344TIP3    H131523   2.159   0.731  11.614 -1.9517 -0.1101 -0.0400
 3344TIP3    H231524   2.099   0.681  11.744  1.1667 -0.4443  1.2957
 3345TIP3   OH231525   2.565   0.823   4.188 -0.2105 -0.4373 -0.1516
 3345TIP3    H131526   2.514   0.850   4.265  0.0795  0.8699 -0.4078
 3345TIP3    H231527   2.643   0.782   4.225  1.5125  3.1150  0.3225
 3346TIP3   OH231528   3.005   4.332   5.384 -0.7407  0.3288  0.0418
 3346TIP3    H131529   3.063   4.343   5.459 -0.4717 -1.9164  0.2133
 3346TIP3    H231530   3.045   4.383   5.314  1.2283 -0.8540  0.2779
 3347TIP3   OH231531   3.109   4.274   0.651 -0.2966  0.6294  0.1994
 3347TIP3    H131532   3.123   4.229   0.567  0.3619  2.8204 -0.9145
 3347TIP3    H231533   3.065   4.209   0.706 -1.8660 -0.4523 -2.2537
 3348TIP3   OH231534   2.215   0.794   1.264 -0.2544  0.0706 -0.6326
 3348TIP3    H131535   2.161   0.866   1.299 -0.2987  0.7292 -2.0294
 3348TIP3    H231536   2.155   0.721   1.256 -1.5141  1.3804 -4.1316
 3349TIP3   OH231537   4.604   4.092  12.883  0.1211 -0.2024  0.6487
 3349TIP3    H131538   4.527   4.147  12.899 -1.0170 -0.5433 -3.0485
 3349TIP3    H231539   4.581   4.007  12.918 -0.8480 -0.0451  0.4191
 3350TIP3   OH231540   6.143   0.906  11.059 -0.3646 -0.3287  0.6522
 3350TIP3    H131541   6.059   0.893  11.103 -1.6815  0.1568 -1.6006
 3350TIP3    H231542   6.121   0.955  10.980  1.9999 -0.5353 -0.1868
 3351TIP3   OH231543   5.571   1.437   4.636 -0.7262 -0.3865 -0.6283
 3351TIP3    H131544   5.650   1.488   4.656 -1.2785 -0.0033  0.5960
 3351TIP3    H231545   5.563   1.442   4.541 -0.6014  1.5499 -0.5594
 3352TIP3   OH231546   5.549   2.202   3.042  0.2077  0.3395 -0.0954
 3352TIP3    H131547   5.555   2.291   3.077  0.7826  0.6620 -1.0003
 3352TIP3    H231548   5.639   2.180   3.015 -0.0287 -0.3013 -0.3900
 3353TIP3   OH231549   5.002   0.160  13.954  0.0035  0.0561 -0.0695
 3353TIP3    H131550   4.932   0.196  13.898  0.1534  1.4300  0.6058
 3353TIP3    H231551   5.018   0.072  13.918 -3.3135 -1.0210  0.8628
 3354TIP3   OH231552   6.755   0.288   2.782  0.0572 -0.4421  0.5230
 3354TIP3    H131553   6.825   0.229   2.808  0.4561  0.5308  1.6803
 3354TIP3    H231554   6.734   0.262   2.692  2.0992 -0.5411  0.0524
 3355TIP3   OH231555   1.920   1.607   4.685 -0.0378 -0.2290 -1.3774
 3355TIP3    H131556   1.946   1.605   4.777 -0.9131 -2.9940 -1.1351
 3355TIP3    H231557   1.985   1.553   4.640 -0.3446  0.0628 -2.1881
 3356TIP3   OH231558   3.827   5.714   2.592  0.5454  0.2913 -0.0567
 3356TIP3    H131559   3.773   5.783   2.553 -0.2987  0.0807  0.7459
 3356TIP3    H231560   3.895   5.761   2.640  0.1472  0.5551  0.2448
 3357TIP3   OH231561   1.279   6.538   0.551  0.2575  0.6649  0.1926
 3357TIP3    H131562   1.302   6.445   0.554 -0.3369  0.5153  0.1624
 3357TIP3    H231563   1.207   6.546   0.614 -1.3737  0.6188 -1.6308
 3358TIP3   OH231564   4.720   4.734  13.902  0.8121  0.0130  0.4005
 3358TIP3    H131565   4.641   4.784  13.924 -0.1014 -1.2632  0.0511
 3358TIP3    H231566   4.697   4.643  13.923  2.2333 -0.3486  0.4124
 3359TIP3   OH231567   4.278   6.131   1.502 -0.2030 -1.2827  0.4745
 3359TIP3    H131568   4.233   6.142   1.418  3.3743  0.6591 -1.3144
 3359TIP3    H231569   4.261   6.213   1.549  1.6405 -0.4024 -0.3450
 3360TIP3   OH231570   5.661   3.693   5.128  0.0981  0.1274 -0.2052
 3360TIP3    H131571   5.580   3.675   5.176  1.3121 -1.9887  1.1055
 3360TIP3    H231572   5.639   3.675   5.036 -0.9974 -0.1325  0.1045
 3361TIP3   OH231573   3.095   6.020  16.730 -0.0728  0.0540  0.0431
 3361TIP3    H131574   3.125   6.081  16.797  2.4327 -0.1993 -0.8070
 3361TIP3    H231575   3.095   5.935  16.774  1.3289 -0.0750 -0.1872
 3362TIP3   OH231576   6.800   3.174  13.914  0.2712 -0.0948 -0.0348
 3362TIP3    H131577   6.881   3.221  13.932  1.3838 -2.8718  2.7489
 3362TIP3    H231578   6.746   3.189  13.991 -0.4904 -1.0411 -0.3764
 3363TIP3   OH231579   5.995   2.978  15.702  0.2422 -0.0219 -0.2349
 3363TIP3    H131580   5.921   2.960  15.759 -0.8561  1.1626 -1.2472
 3363TIP3    H231581   6.072   2.961  15.756 -0.7588  1.2104  1.6471
 3364TIP3   OH231582   2.060   4.365   3.509 -0.4117 -0.2341  0.6269
 3364TIP3    H131583   2.145   4.325   3.523 -0.6252 -0.9287 -0.0717
 3364TIP3    H231584   2.018   4.363   3.596 -0.5101 -1.7202  0.5451
 3365TIP3   OH231585   4.705   3.620  16.247  0.2101 -0.0216 -0.4350
 3365TIP3    H131586   4.763   3.696  16.234  1.0652 -0.6707 -0.4030
 3365TIP3    H231587   4.757   3.558  16.297 -0.2532 -0.9239 -1.0695
 3366TIP3   OH231588   6.669   2.241   4.295 -0.2804 -0.0211  0.5669
 3366TIP3    H131589   6.759   2.246   4.328  0.3207  1.1237 -1.1685
 3366TIP3    H231590   6.633   2.329   4.310 -0.8228 -0.2288  0.4937
 3367TIP3   OH231591   0.380   3.604  14.635 -0.0508  0.5844  0.0123
 3367TIP3    H131592   0.417   3.565  14.714 -2.7602 -0.7150  0.6787
 3367TIP3    H231593   0.313   3.543  14.606  1.6736  0.4641 -4.0230
 3368TIP3   OH231594   0.444   2.380   0.883 -0.1282  0.4024  0.7047
 3368TIP3    H131595   0.458   2.300   0.833  1.7890 -0.4872  2.5930
 3368TIP3    H231596   0.369   2.361   0.939  0.1468 -0.0058  0.9425
 3369TIP3   OH231597   1.005   1.839  11.238 -0.1680  0.3330 -0.2211
 3369TIP3    H131598   1.053   1.905  11.189  3.0419 -1.3547  0.4862
 3369TIP3    H231599   1.043   1.756  11.209 -3.0699 -1.1232 -0.0099
 3370TIP3   OH231600   0.381   5.689  13.866 -0.4881  0.3934  0.3487
 3370TIP3    H131601   0.323   5.752  13.909  0.5074  1.3410  0.3230
 3370TIP3    H231602   0.468   5.710  13.900 -0.1564 -1.0768  0.4524
 3371TIP3   OH231603   6.286   3.967  12.335  0.3198  0.8398  0.2937
 3371TIP3    H131604   6.375   3.944  12.362  0.5191  0.3393 -0.7339
 3371TIP3    H231605   6.231   3.900  12.375  0.3906  1.2238  1.0361
 3372TIP3   OH231606   0.321   6.675  16.237 -0.1673  0.0861 -0.5231
 3372TIP3    H131607   0.372   6.609  16.283 -2.6744 -0.6946  1.2474
 3372TIP3    H231608   0.357   6.759  16.266  0.5223 -0.4556  0.1937
 3373TIP3   OH231609   4.940   5.038   1.133  0.2324 -0.4011 -0.6830
 3373TIP3    H131610   4.865   5.064   1.079 -0.2146  1.8704  0.9430
 3373TIP3    H231611   4.919   4.950   1.163 -3.4078  1.3802  2.4351
 3374TIP3   OH231612   0.573   1.789  12.427 -0.0725 -0.1892  0.3002
 3374TIP3    H131613   0.617   1.732  12.490  0.5297  0.2235  0.2676
 3374TIP3    H231614   0.645   1.838  12.386 -0.1696 -2.5016 -2.7820
 3375TIP3   OH231615   5.556   0.845  14.294 -0.0765  0.1879 -0.5384
 3375TIP3    H131616   5.509   0.840  14.211  1.2313  0.9243 -1.3529
 3375TIP3    H231617   5.595   0.933  14.294  0.3828  0.0003  0.6148
 3376TIP3   OH231618   4.459   0.518   6.156 -0.2659  0.0528  0.3769
 3376TIP3    H131619   4.499   0.434   6.174  0.8298  0.7123  1.0339
 3376TIP3    H231620   4.369   0.497   6.132  0.0883 -1.3212  0.2439
 3377TIP3   OH231621   4.704   0.694  11.962  0.5818  0.6307 -0.5339
 3377TIP3    H131622   4.717   0.641  12.040  0.0543  0.7347 -0.3784
 3377TIP3    H231623   4.788   0.689  11.916  0.7929  0.3226 -0.1163
 3378TIP3   OH231624   5.545   5.692   3.594  0.1396 -0.0413 -0.7506
 3378TIP3    H131625   5.522   5.720   3.683  0.0738  0.0555 -0.7975
 3378TIP3    H231626   5.468   5.714   3.541  0.4780  0.6371 -0.9816
 3379TIP3   OH231627   1.479   5.321  13.125  0.3140 -0.3409 -0.2388
 3379TIP3    H131628   1.484   5.339  13.031  1.5671  0.7200  0.0311
 3379TIP3    H231629   1.559   5.273  13.144 -0.1458 -0.9306  0.2164
 3380TIP3   OH231630   3.139   0.436  14.269  0.0668  0.1281  1.0653
 3380TIP3    H131631   3.079   0.362  14.263 -0.3554  0.5522 -0.2038
 3380TIP3    H231632   3.211   0.405  14.324 -0.6582 -0.8371  1.4849
 3381TIP3   OH231633   5.352   6.116   2.723  0.1777 -0.1292  0.2666
 3381TIP3    H131634   5.304   6.036   2.741  1.8040 -1.2060 -0.0087
 3381TIP3    H231635   5.296   6.165   2.663 -0.4104 -1.4940 -0.3151
 3382TIP3   OH231636   5.060   0.307   4.075 -0.4046 -0.2677 -0.2966
 3382TIP3    H131637   5.102   0.239   4.127 -0.3972 -0.5236 -0.6305
 3382TIP3    H231638   5.130   0.339   4.017  0.3043  1.8552  1.6326
 3383TIP3   OH231639   5.407   2.725   1.998  0.0154 -0.1852 -0.4212
 3383TIP3    H131640   5.424   2.780   1.921 -0.7555  1.3832  0.4948
 3383TIP3    H231641   5.456   2.768   2.069 -0.4654 -0.7672  0.2748
 3384TIP3   OH231642   4.439   3.681  11.123 -0.1205 -0.1612  0.2604
 3384TIP3    H131643   4.423   3.755  11.182  0.3991 -0.8777  1.3262
 3384TIP3    H231644   4.509   3.711  11.065  0.6831 -0.0977  1.2360
 3385TIP3   OH231645   3.726   0.001   2.077 -0.4968 -0.2338  0.0243
 3385TIP3    H131646   3.725   0.093   2.050  1.2966 -0.2927 -0.3276
 3385TIP3    H231647   3.808  -0.008   2.126 -1.2594 -1.3592  1.1092
 3386TIP3   OH231648   5.499   0.141   5.728 -0.0037  0.0030 -0.9541
 3386TIP3    H131649   5.558   0.097   5.667  1.4766  0.5759  0.0083
 3386TIP3    H231650   5.496   0.084   5.805 -0.3017  0.2274 -0.7968
 3387TIP3   OH231651   4.824   3.383   6.054  0.7697 -0.2900 -0.4718
 3387TIP3    H131652   4.813   3.305   5.999 -0.3584  0.7263 -1.7345
 3387TIP3    H231653   4.909   3.418   6.027  2.2764 -2.1871  1.5849
 3388TIP3   OH231654   6.749   6.777  12.381  0.1427  0.2294  0.5659
 3388TIP3    H131655   6.813   6.812  12.444 -0.2190 -0.1533  1.1553
 3388TIP3    H231656   6.685   6.731  12.436 -0.4995  0.4001 -0.0404
 3389TIP3   OH231657   4.418   1.125  11.872 -0.0390  0.4553 -0.5304
 3389TIP3    H131658   4.352   1.059  11.893  1.0081  0.2331  2.2316
 3389TIP3    H231659   4.501   1.077  11.873  0.4296  1.2249 -1.5513
 3390TIP3   OH231660   4.312   0.347   4.255  0.4730 -0.3579  0.1302
 3390TIP3    H131661   4.217   0.339   4.247  0.3282  0.7243  0.7441
 3390TIP3    H231662   4.341   0.382   4.171 -0.0993  2.8801  1.2356
 3391TIP3   OH231663   3.600   4.900  15.595  0.8195  0.1493 -0.0059
 3391TIP3    H131664   3.544   4.831  15.631 -0.4200  0.6831 -0.8646
 3391TIP3    H231665   3.646   4.857  15.523  1.2046 -0.1864  0.4413
 3392TIP3   OH231666   5.743   5.704   4.439 -0.2278  0.1355  0.1179
 3392TIP3    H131667   5.807   5.758   4.485 -0.9918  2.0591 -0.9962
 3392TIP3    H231668   5.778   5.696   4.350 -1.5823  1.3439 -0.5443
 3393TIP3   OH231669   2.713   5.035   3.655 -0.0116  0.1388  0.0608
 3393TIP3    H131670   2.661   5.103   3.699  0.1704 -0.4717  1.2525
 3393TIP3    H231671   2.804   5.060   3.672  0.0566 -0.9658  1.4322
 3394TIP3   OH231672   6.363   5.795  11.783 -0.0657  0.0056 -0.0002
 3394TIP3    H131673   6.442   5.848  11.797  0.4265 -0.7078 -0.0696
 3394TIP3    H231674   6.394   5.705  11.783 -0.6032 -0.2037 -1.9057
 3395TIP3   OH231675   5.361   2.373   0.911 -0.1114 -0.1165 -0.2822
 3395TIP3    H131676   5.285   2.413   0.868 -0.3228 -0.6650 -0.4290
 3395TIP3    H231677   5.408   2.446   0.950 -1.2046  0.1417  0.5729
 3396TIP3   OH231678   1.370   1.664   2.757  0.1204 -0.2972 -0.2901
 3396TIP3    H131679   1.339   1.690   2.843  0.4841 -0.5729 -0.0765
 3396TIP3    H231680   1.312   1.592   2.731  0.6331 -0.8580  0.1380
 3397TIP3   OH231681   4.895   5.472  16.151  0.2571  0.1507  0.1989
 3397TIP3    H131682   4.910   5.480  16.245 -2.0539 -0.6448  0.6804
 3397TIP3    H231683   4.921   5.382  16.131  1.1579  0.4565 -0.0128
 3398TIP3   OH231684   2.035   5.012   3.280 -0.0841  0.2508  0.4546
 3398TIP3    H131685   2.117   4.982   3.241 -0.4185  0.3058 -0.2933
 3398TIP3    H231686   1.999   5.073   3.216  0.0165  1.3697  1.4471
 3399TIP3   OH231687   4.802   1.656  15.433 -0.0159  0.4213  0.3333
 3399TIP3    H131688   4.853   1.735  15.451  0.9060  0.0921 -0.7647
 3399TIP3    H231689   4.839   1.590  15.492 -1.0558  0.8957  1.5426
 3400TIP3   OH231690   1.010   5.456  12.508 -0.2729  0.5049  0.0673
 3400TIP3    H131691   1.040   5.368  12.488 -1.2233  0.2109 -0.0946
 3400TIP3    H231692   1.048   5.476  12.594  0.4271  0.1683 -0.1685
 3401TIP3   OH231693   3.336   2.860  15.554  0.5205 -0.2666  0.4649
 3401TIP3    H131694   3.308   2.933  15.609  1.1769  0.2459  0.1297
 3401TIP3    H231695   3.418   2.830  15.593 -0.8662 -2.2999  1.9374
 3402TIP3   OH231696   0.764   2.066   1.511  0.1482  0.0570 -0.0378
 3402TIP3    H131697   0.674   2.075   1.481 -0.4067  0.3198  1.6612
 3402TIP3    H231698   0.784   1.973   1.498 -0.0991  0.1527 -1.1275
 3403TIP3   OH231699   3.723   2.689  11.856  0.4441 -0.4249 -0.3388
 3403TIP3    H131700   3.628   2.703  11.855  0.3491 -0.9248  0.7705
 3403TIP3    H231701   3.758   2.763  11.905  0.6857  0.0633 -1.2434
 3404TIP3   OH231702   5.777   3.432  14.145 -0.1944 -0.7421 -0.1087
 3404TIP3    H131703   5.739   3.514  14.175  0.3927 -1.3224  2.3561
 3404TIP3    H231704   5.832   3.456  14.070 -0.9179  0.9206 -0.1187
 3405TIP3   OH231705   1.297   6.758  14.079 -0.0092 -0.4518  0.0337
 3405TIP3    H131706   1.370   6.779  14.019  0.9376  0.4328  1.4582
 3405TIP3    H231707   1.333   6.774  14.166 -1.9620  0.0879  0.7538
 3406TIP3   OH231708   4.820   6.024   4.166 -0.2273 -0.0820  0.7453
 3406TIP3    H131709   4.829   6.043   4.259 -1.3397  1.4362  0.5521
 3406TIP3    H231710   4.744   5.967   4.160 -2.6757  3.0589  0.4149
 3407TIP3   OH231711   1.534   4.905   5.303 -0.8836 -0.1293 -0.1182
 3407TIP3    H131712   1.439   4.923   5.305 -0.8542  0.0524 -0.3107
 3407TIP3    H231713   1.547   4.841   5.372 -1.2857 -0.8428 -0.6976
 3408TIP3   OH231714   3.713   4.043  12.068  0.4267  0.0884  0.0444
 3408TIP3    H131715   3.750   3.999  11.992 -0.2234  1.3089 -1.0055
 3408TIP3    H231716   3.703   4.134  12.040 -1.8776  0.1017  0.8321
 3409TIP3   OH231717   1.472   4.056  11.076 -0.0307  0.5046  0.0436
 3409TIP3    H131718   1.550   4.035  11.127  0.2736 -0.3575 -0.7687
 3409TIP3    H231719   1.497   4.039  10.985 -1.8635 -1.9456 -0.0334
 3410TIP3   OH231720   3.372   3.678   5.858  0.0736  0.1016 -0.1401
 3410TIP3    H131721   3.457   3.714   5.833 -0.9873  1.7394 -1.5160
 3410TIP3    H231722   3.309   3.720   5.799 -1.5416 -2.1651 -0.1280
 3411TIP3   OH231723   6.633   0.178   4.791  0.3729 -0.2644 -1.0354
 3411TIP3    H131724   6.612   0.129   4.871  0.3666 -1.9057 -2.0161
 3411TIP3    H231725   6.617   0.116   4.721 -1.5587  1.7786 -2.4748
 3412TIP3   OH231726   0.831   1.964   0.339 -0.4012 -0.3630  0.2725
 3412TIP3    H131727   0.812   1.917   0.258  0.1568 -0.6742  0.3256
 3412TIP3    H231728   0.890   2.034   0.313 -1.2719  0.3490  0.1850
 3413TIP3   OH231729   6.552   4.061  15.196  0.0623  0.0346  0.4584
 3413TIP3    H131730   6.646   4.046  15.205 -0.0659 -2.2904 -1.5153
 3413TIP3    H231731   6.515   3.973  15.189 -2.2489  0.9352  1.0139
 3414TIP3   OH231732   6.564   4.759   4.856  0.2993 -0.3858 -0.1506
 3414TIP3    H131733   6.544   4.798   4.942 -2.2229  1.0515 -1.3486
 3414TIP3    H231734   6.648   4.798   4.831 -1.1218  2.6188 -0.3260
 3415TIP3   OH231735   4.682   6.743   5.794  0.4996 -0.5315  0.2693
 3415TIP3    H131736   4.643   6.718   5.710 -2.1535 -0.0745  1.3038
 3415TIP3    H231737   4.727   6.825   5.775 -1.2907  0.3320 -0.4359
 3416TIP3   OH231738   1.098   5.385   6.719  0.1369  0.1719 -0.3797
 3416TIP3    H131739   1.176   5.414   6.765 -0.5717  0.9977  0.3053
 3416TIP3    H231740   1.111   5.291   6.707  1.2372  0.3048 -0.2882
 3417TIP3   OH231741   2.954   0.280  14.782 -0.3619 -0.2268  0.0481
 3417TIP3    H131742   2.893   0.351  14.804 -0.9542 -0.6443 -0.2423
 3417TIP3    H231743   3.002   0.264  14.863 -1.0058 -0.2599  0.4245
 3418TIP3   OH231744   2.876   3.110  14.597 -0.1837 -0.2518  0.0384
 3418TIP3    H131745   2.817   3.037  14.576 -1.7361  0.9188  0.2692
 3418TIP3    H231746   2.863   3.124  14.691  1.8561 -1.1920  0.4845
 3419TIP3   OH231747   4.175   5.010  16.365 -0.2569  0.0478 -0.1399
 3419TIP3    H131748   4.263   5.022  16.330 -0.7135  0.0548 -1.3107
 3419TIP3    H231749   4.117   5.050  16.300 -1.1689 -0.6228  0.2420
 3420TIP3   OH231750   1.436   6.110   6.260  0.3752 -0.0630 -0.5288
 3420TIP3    H131751   1.409   6.202   6.269  1.5971  0.2792 -0.2277
 3420TIP3    H231752   1.355   6.060   6.272 -0.5659  1.0268 -2.1284
 3421TIP3   OH231753   3.726   1.743   3.463 -0.0573  0.2339  0.6255
 3421TIP3    H131754   3.677   1.691   3.527  0.8649 -1.1272  0.2384
 3421TIP3    H231755   3.817   1.732   3.488  0.3215 -0.4339 -1.0138
 3422TIP3   OH231756   3.351   4.696  13.471 -0.4114  0.3538  0.3042
 3422TIP3    H131757   3.392   4.722  13.554  0.9078  0.7621 -0.4516
 3422TIP3    H231758   3.405   4.738  13.404 -2.2211  1.0620 -0.7392
 3423TIP3   OH231759   2.991   6.512   3.407 -0.0703  0.3569  0.2289
 3423TIP3    H131760   3.076   6.544   3.439 -0.7864  1.7919  0.7310
 3423TIP3    H231761   2.932   6.586   3.419 -1.6469 -0.9865  0.8563
 3424TIP3   OH231762   5.674   6.747   5.840  0.1069  0.3345  0.4050
 3424TIP3    H131763   5.710   6.798   5.913  2.5273 -0.0398 -0.4811
 3424TIP3    H231764   5.621   6.680   5.882  2.4716 -0.6500  1.9485
 3425TIP3   OH231765   4.389   0.147  16.078  0.4121 -0.3701 -0.2157
 3425TIP3    H131766   4.470   0.196  16.085 -0.1172  0.4998 -0.1595
 3425TIP3    H231767   4.359   0.162  15.988  0.6062 -1.1504 -0.4141
 3426TIP3   OH231768   5.819   6.741  11.021 -0.4273 -0.5288 -0.0320
 3426TIP3    H131769   5.766   6.664  11.043  1.4463 -1.7900  0.1406
 3426TIP3    H231770   5.897   6.732  11.075  0.5206  0.6920 -1.1814
 3427TIP3   OH231771   5.613   1.377  12.631 -0.3025 -0.1409  0.5323
 3427TIP3    H131772   5.652   1.436  12.696  0.0037  0.0223  0.2008
 3427TIP3    H231773   5.574   1.307  12.683 -0.2442  0.0987  0.9071
 3428TIP3   OH231774   3.691   3.132  12.056  0.2472 -0.1040 -0.2990
 3428TIP3    H131775   3.730   3.193  12.120 -0.6531 -0.2322  0.3920
 3428TIP3    H231776   3.607   3.107  12.096 -0.7153  0.4777 -1.9399
 3429TIP3   OH231777   3.338   0.762   3.368 -0.5234 -0.1449 -0.0668
 3429TIP3    H131778   3.395   0.798   3.436  0.7687 -0.4136 -0.9897
 3429TIP3    H231779   3.269   0.718   3.416 -0.3902  0.8665  1.0759
 3430TIP3   OH231780   5.472   1.835   3.990  0.3696 -1.1484 -0.1689
 3430TIP3    H131781   5.550   1.883   3.961 -0.3774  2.0467  2.7691
 3430TIP3    H231782   5.400   1.896   3.975 -0.9924 -2.3783  1.2111
 3431TIP3   OH231783   2.187   1.988   3.006  0.1351 -0.0166 -0.4031
 3431TIP3    H131784   2.256   2.031   2.955 -0.0276  0.5647 -0.1285
 3431TIP3    H231785   2.214   1.999   3.097 -0.1622 -0.0618 -0.3103
 3432TIP3   OH231786   2.544   6.795  15.791 -0.5112 -0.1804  0.0878
 3432TIP3    H131787   2.604   6.846  15.736 -0.2698  0.6177  1.0744
 3432TIP3    H231788   2.490   6.861  15.834 -1.5851 -0.8701 -0.1988
 3433TIP3   OH231789   3.407   1.186  12.155 -0.0060 -0.3306  0.1415
 3433TIP3    H131790   3.413   1.156  12.065  1.0014  1.2722 -0.3429
 3433TIP3    H231791   3.474   1.136  12.202 -1.2482 -1.9314  0.2333
 3434TIP3   OH231792   6.813   4.633  15.528 -0.2062  0.0178 -0.2970
 3434TIP3    H131793   6.792   4.726  15.532 -0.7857 -0.1295  0.1015
 3434TIP3    H231794   6.909   4.630  15.527 -0.1483  0.5511  1.5155
 3435TIP3   OH231795   4.581   0.522  13.176  0.6896  0.0951 -0.4819
 3435TIP3    H131796   4.506   0.539  13.118  0.8293 -2.2512 -1.3853
 3435TIP3    H231797   4.572   0.431  13.202  2.3944  0.2232  0.6600
 3436TIP3   OH231798   2.145   4.535   4.578 -0.3397 -0.1026 -0.0743
 3436TIP3    H131799   2.118   4.545   4.487 -0.8320 -0.8267 -0.0110
 3436TIP3    H231800   2.063   4.521   4.626  0.0030 -0.6950  0.3387
 3437TIP3   OH231801   6.545   0.787   0.468  0.4005  0.2464 -0.0571
 3437TIP3    H131802   6.541   0.703   0.513  2.6944  0.5718  0.8214
 3437TIP3    H231803   6.554   0.765   0.375 -0.5319 -0.4482  0.0147
 3438TIP3   OH231804   1.796   5.967   5.516  0.4952 -0.2717  0.2487
 3438TIP3    H131805   1.725   6.005   5.464  0.3305  0.5293  1.0334
 3438TIP3    H231806   1.847   5.916   5.454  2.3044  3.3942 -1.4714
 3439TIP3   OH231807   3.297   5.296  15.100 -0.0500 -0.0462 -0.3080
 3439TIP3    H131808   3.351   5.229  15.057  1.6261  1.6421 -0.9657
 3439TIP3    H231809   3.344   5.316  15.181 -0.3279  0.5780 -0.2980
 3440TIP3   OH231810   5.886   0.189  16.260  0.3392 -0.3853  0.2003
 3440TIP3    H131811   5.882   0.120  16.194 -2.7779 -0.5507  0.4610
 3440TIP3    H231812   5.901   0.270  16.210 -0.0667 -0.7557 -0.5337
 3441TIP3   OH231813   6.127   0.999   2.209  0.4192  0.2863  0.2278
 3441TIP3    H131814   6.105   0.907   2.197  0.9472  0.2024 -0.0976
 3441TIP3    H231815   6.113   1.014   2.303  1.0289 -0.3081  0.4172
 3442TIP3   OH231816   3.213   4.002   4.653  0.2226 -0.2003  0.0375
 3442TIP3    H131817   3.290   4.057   4.642  1.9008 -2.1851  1.3729
 3442TIP3    H231818   3.248   3.913   4.656 -2.0379 -1.0885  1.4427
 3443TIP3   OH231819   5.707   6.530   2.018  0.2626 -0.0222 -0.1595
 3443TIP3    H131820   5.759   6.561   2.092  1.4340  0.7079 -1.2846
 3443TIP3    H231821   5.616   6.548   2.044  0.7759  2.1884  0.2050
 3444TIP3   OH231822   0.363   5.595  10.996 -0.0332 -0.3991 -0.0858
 3444TIP3    H131823   0.427   5.570  10.929  0.6464 -0.4921  0.5963
 3444TIP3    H231824   0.287   5.540  10.978  0.5708 -1.2469 -0.0871
 3445TIP3   OH231825   4.147   3.162   3.420  0.2508 -0.2587 -0.1253
 3445TIP3    H131826   4.082   3.126   3.359  1.3195 -0.9511 -0.8671
 3445TIP3    H231827   4.217   3.195   3.364 -0.6139  2.9105  0.5329
 3446TIP3   OH231828   5.953   0.545  15.266 -0.6342 -0.6958 -0.0347
 3446TIP3    H131829   6.010   0.509  15.334 -1.2860 -1.1560  0.2637
 3446TIP3    H231830   6.004   0.618  15.229 -1.2900  1.2526  2.7070
 3447TIP3   OH231831   0.372   4.730   6.137 -0.1490  0.3009 -0.6703
 3447TIP3    H131832   0.389   4.737   6.231 -0.5039 -0.2106 -0.5637
 3447TIP3    H231833   0.306   4.796   6.119 -0.7825 -0.2524 -0.3784
 3448TIP3   OH231834   0.493   4.587  11.974 -0.0548 -0.2206  0.1558
 3448TIP3    H131835   0.413   4.572  11.924 -0.2484 -0.8664  0.6519
 3448TIP3    H231836   0.465   4.639  12.050 -0.1556 -1.1703  0.7759
 3449TIP3   OH231837   4.442   5.342  11.037 -0.4018  0.1656 -0.5305
 3449TIP3    H131838   4.468   5.422  10.990 -0.9572  1.0999  0.7174
 3449TIP3    H231839   4.438   5.275  10.969 -2.3354  1.7460 -2.0517
 3450TIP3   OH231840   0.844   3.495  17.190 -0.3137  0.2218 -0.2323
 3450TIP3    H131841   0.832   3.539  17.106 -0.4141 -0.3968 -0.5501
 3450TIP3    H231842   0.759   3.455  17.208 -0.8123  1.7959  1.0143
 3451TIP3   OH231843   3.126   1.169   6.987 -0.8522 -0.2554 -0.6995
 3451TIP3    H131844   3.086   1.220   6.917 -0.9014 -1.2849 -1.4307
 3451TIP3    H231845   3.220   1.177   6.972 -0.8100  0.9116  0.1232
 3452TIP3   OH231846   5.527   3.235  15.511  0.3014 -0.6625 -0.5079
 3452TIP3    H131847   5.555   3.167  15.450  0.0080 -1.4075  0.1868
 3452TIP3    H231848   5.606   3.257  15.560 -0.2218 -2.5531  1.2464
 3453TIP3   OH231849   4.661   6.175   3.387  0.1222  0.2983  0.2763
 3453TIP3    H131850   4.703   6.121   3.454  0.1720  0.0263  0.0261
 3453TIP3    H231851   4.582   6.127   3.364 -0.3256  0.8096  0.7442
 3454TIP3   OH231852   2.802   3.390  13.718  0.5738  0.3701 -0.2127
 3454TIP3    H131853   2.821   3.439  13.638 -0.0014 -2.0840 -1.9222
 3454TIP3    H231854   2.721   3.427  13.751 -0.9542 -0.7501 -2.6045
 3455TIP3   OH231855   6.576   6.572   2.931  0.2851  0.4247  0.1095
 3455TIP3    H131856   6.618   6.501   2.979  0.6670 -0.5413 -1.6100
 3455TIP3    H231857   6.482   6.553   2.936  0.1658  1.4891  2.2503
 3456TIP3   OH231858   0.806   6.623  14.079  0.9964  0.5175 -0.2984
 3456TIP3    H131859   0.847   6.585  14.157  1.7766 -1.7768 -1.7836
 3456TIP3    H231860   0.870   6.686  14.046  1.5641 -0.0430 -0.2626
 3457TIP3   OH231861   3.771   0.295   1.977 -0.3792 -0.1193 -0.0082
 3457TIP3    H131862   3.820   0.375   1.960 -0.1207  0.0661  1.5549
 3457TIP3    H231863   3.688   0.325   2.014 -1.1464 -0.4932 -1.3797
 3458TIP3   OH231864   0.627   0.246  12.102  0.0847  0.1639 -0.3053
 3458TIP3    H131865   0.600   0.338  12.106  1.5264  0.5513  1.5281
 3458TIP3    H231866   0.707   0.247  12.050  0.6190  0.1020  0.4991
 3459TIP3   OH231867   2.670   4.708  13.292 -0.2679 -0.7040  0.2142
 3459TIP3    H131868   2.711   4.634  13.247  0.4782 -0.3913  0.3675
 3459TIP3    H231869   2.715   4.785  13.258 -0.7497 -0.3519  0.3721
 3460TIP3   OH231870   2.250   5.459  15.464 -0.6998  0.0561 -0.3915
 3460TIP3    H131871   2.256   5.385  15.403 -2.2458  0.5437 -1.1699
 3460TIP3    H231872   2.314   5.439  15.532  1.5288 -0.2133 -2.4869
 3461TIP3   OH231873   4.833   2.368   2.368  0.5225 -0.0266 -0.1336
 3461TIP3    H131874   4.918   2.377   2.326  0.4425 -0.7484 -0.4519
 3461TIP3    H231875   4.775   2.424   2.315  0.8343  0.6321  0.2088
 3462TIP3   OH231876   2.580   6.044   5.755  0.2088 -0.0731  0.1200
 3462TIP3    H131877   2.492   6.034   5.793  0.5656  0.2059  1.0247
 3462TIP3    H231878   2.621   6.114   5.807 -0.2328  2.2014 -2.4415
 3463TIP3   OH231879   3.370   2.154  14.550 -0.7026 -0.3011  0.2342
 3463TIP3    H131880   3.441   2.215  14.572 -0.5571  0.7933 -3.0194
 3463TIP3    H231881   3.408   2.067  14.566 -0.1575  0.3789  2.7801
 3464TIP3   OH231882   0.904   5.722  17.072  0.1410  0.3388  0.1851
 3464TIP3    H131883   0.995   5.747  17.088 -0.1805  0.9969  1.0143
 3464TIP3    H231884   0.886   5.654  17.136  0.1589 -0.0635 -0.2353
 3465TIP3   OH231885   3.325   3.820  10.240  0.5817 -0.4120  0.3128
 3465TIP3    H131886   3.376   3.769  10.176  0.2190  0.4194 -0.6608
 3465TIP3    H231887   3.301   3.757  10.308  1.0694 -1.2935 -0.3231
 3466TIP3   OH231888   1.676   4.523  16.820 -0.1782  0.0309 -0.2038
 3466TIP3    H131889   1.758   4.549  16.778  0.3145 -0.4655  0.4532
 3466TIP3    H231890   1.627   4.605  16.828 -0.1027  0.1967 -1.3683
 3467TIP3   OH231891   5.412   4.343  13.613  0.3594  0.3448  0.8360
 3467TIP3    H131892   5.349   4.398  13.660  0.6177  1.3264  0.0378
 3467TIP3    H231893   5.375   4.332  13.526  0.8718  0.2022  0.6344
 3468TIP3   OH231894   2.938   3.977  13.519  0.2881  0.0588 -0.5637
 3468TIP3    H131895   2.859   4.021  13.551 -0.1630 -0.0446 -1.5010
 3468TIP3    H231896   2.971   3.929  13.595 -0.2104  0.5812 -0.0034
 3469TIP3   OH231897   4.869   0.512   0.875  0.1354  0.0458  0.2835
 3469TIP3    H131898   4.947   0.480   0.921  0.6960 -0.2505 -0.8613
 3469TIP3    H231899   4.892   0.507   0.782 -1.5589 -0.8756 -0.1066
 3470TIP3   OH231900   4.899   4.171   3.610 -0.6093  0.1310 -0.3495
 3470TIP3    H131901   4.949   4.090   3.621 -1.0381 -0.0876 -0.0108
 3470TIP3    H231902   4.931   4.208   3.528  1.6552  1.0585  0.8926
 3471TIP3   OH231903   6.712   5.878   5.120  0.0522 -0.0211 -0.1182
 3471TIP3    H131904   6.644   5.877   5.053 -1.2495  1.9820  1.1402
 3471TIP3    H231905   6.794   5.879   5.070 -0.8699  0.1309 -1.6687
 3472TIP3   OH231906   4.226   5.070   4.836 -0.0560 -0.0307 -0.4468
 3472TIP3    H131907   4.235   5.164   4.850  1.3279 -0.2788  0.3459
 3472TIP3    H231908   4.315   5.038   4.823 -0.6980 -0.8899 -3.1132
 3473TIP3   OH231909   5.554   0.732   2.265 -0.2040  0.1729 -0.3682
 3473TIP3    H131910   5.551   0.827   2.257  1.2938  0.2875  0.2614
 3473TIP3    H231911   5.570   0.716   2.358  1.5345 -0.6221 -0.7818
 3474TIP3   OH231912   0.301   6.738  12.095 -0.0263  1.0372 -0.3848
 3474TIP3    H131913   0.320   6.832  12.085 -0.2661  1.0154 -1.0903
 3474TIP3    H231914   0.303   6.704  12.006  0.1117  0.3572 -0.1233
 3475TIP3   OH231915   2.205   3.335  16.233  0.4863 -0.4471 -0.2127
 3475TIP3    H131916   2.276   3.398  16.225  0.7990 -0.6724  0.7138
 3475TIP3    H231917   2.148   3.354  16.158  0.8310  0.5926 -0.2234
 3476TIP3   OH231918   0.463   5.062   0.382  0.2934  0.3947 -0.0159
 3476TIP3    H131919   0.446   5.058   0.288 -0.8237  1.1138  0.1488
 3476TIP3    H231920   0.398   5.124   0.416  0.9312  0.4278  1.1737
 3477TIP3   OH231921   0.094   1.451   5.989 -1.1166 -0.0058 -0.3233
 3477TIP3    H131922   0.085   1.525   6.049 -1.2083  1.2417 -1.8396
 3477TIP3    H231923   0.175   1.409   6.016 -0.8010  0.9429  0.2532
 3478TIP3   OH231924   2.627   3.932  13.576 -0.2346  0.1521 -0.5201
 3478TIP3    H131925   2.642   3.937  13.671 -0.4707  0.2369 -0.4862
 3478TIP3    H231926   2.671   3.851  13.549  0.8032  0.7195 -0.5343
 3479TIP3   OH231927   4.038   1.548   6.181  0.4348 -0.0193  0.1192
 3479TIP3    H131928   4.122   1.539   6.225 -0.4182  0.2349  1.8182
 3479TIP3    H231929   4.047   1.627   6.127  1.0423  0.3976  0.8249
 3480TIP3   OH231930   1.135   6.290  14.564 -0.0199 -0.0343 -0.2278
 3480TIP3    H131931   1.065   6.283  14.500 -1.6791  1.8580  1.2950
 3480TIP3    H231932   1.215   6.296  14.513 -1.1680 -0.0513 -2.0461
 3481TIP3   OH231933   5.804   3.744   3.373  0.0083 -0.1337  0.0236
 3481TIP3    H131934   5.757   3.698   3.443  0.3844  0.1533  0.4684
 3481TIP3    H231935   5.753   3.824   3.359 -0.3142 -0.4006 -0.3375
 3482TIP3   OH231936   2.704   6.763  14.920 -0.4258 -0.1201 -0.4633
 3482TIP3    H131937   2.745   6.736  14.838 -3.8897 -1.6303 -1.7731
 3482TIP3    H231938   2.634   6.823  14.894 -0.7859  0.3298  1.4635
 3483TIP3   OH231939   0.261   6.077   5.825  0.3523  0.3372  0.8314
 3483TIP3    H131940   0.243   6.128   5.904  1.7096  1.3275  0.5350
 3483TIP3    H231941   0.228   6.131   5.754  0.9230  0.3756  0.5887
 3484TIP3   OH231942   1.971   5.068   5.467  0.9967 -0.0596 -0.3019
 3484TIP3    H131943   2.038   5.062   5.535  1.0909  1.2210 -0.2617
 3484TIP3    H231944   1.987   4.993   5.410  1.8845 -0.2744  0.2162
 3485TIP3   OH231945   2.477   6.766  12.074 -0.3729  0.4303 -0.0076
 3485TIP3    H131946   2.548   6.809  12.026 -0.5728  1.6740  0.7886
 3485TIP3    H231947   2.409   6.833  12.082 -0.4560  0.1753  1.7626
 3486TIP3   OH231948   0.595   0.452  15.015  0.2439  0.2223  0.1367
 3486TIP3    H131949   0.521   0.401  15.047 -0.4747  1.9656  1.3547
 3486TIP3    H231950   0.643   0.477  15.095  0.8254  1.0523 -0.4586
 3487TIP3   OH231951   2.657   6.666   4.203 -0.4747 -0.3048  0.0283
 3487TIP3    H131952   2.580   6.693   4.252 -0.8672 -1.9392  0.3502
 3487TIP3    H231953   2.623   6.608   4.135  0.3095  0.1788 -0.7832
 3488TIP3   OH231954   3.552   1.786  12.572 -0.5598  0.2041 -0.3220
 3488TIP3    H131955   3.606   1.855  12.534 -0.9403  1.1980  0.8778
 3488TIP3    H231956   3.600   1.758  12.650 -1.1067  0.1547  0.0035
 3489TIP3   OH231957   4.213   3.306  11.934 -0.3853 -0.1629 -1.4804
 3489TIP3    H131958   4.133   3.256  11.947 -1.8159  2.5487  0.7414
 3489TIP3    H231959   4.201   3.348  11.848 -0.3394 -1.5303 -2.1576
 3490TIP3   OH231960   1.396   1.409  17.172  0.0405 -0.0249  0.2470
 3490TIP3    H131961   1.409   1.319  17.140 -0.5110 -0.5448  1.4513
 3490TIP3    H231962   1.443   1.411  17.255 -1.9260  0.0851  1.3681
 3491TIP3   OH231963   4.184   0.536   1.087 -0.4440  0.0265 -0.0464
 3491TIP3    H131964   4.230   0.459   1.122  1.1846  0.7844 -0.4931
 3491TIP3    H231965   4.107   0.499   1.043  0.9186 -1.4687 -1.2691
 3492TIP3   OH231966   5.264   0.716   0.996  0.2577  0.2916 -0.4608
 3492TIP3    H131967   5.188   0.662   1.017  1.4961 -1.9524 -1.5020
 3492TIP3    H231968   5.327   0.697   1.066  0.0470  1.7516  0.1306
 3493TIP3   OH231969   4.746   0.728   4.135 -0.1539 -0.3012 -0.8634
 3493TIP3    H131970   4.700   0.670   4.196 -1.2130  1.1587 -0.2550
 3493TIP3    H231971   4.678   0.785   4.100  0.9939  1.0693 -0.8892
 3494TIP3   OH231972   2.774   5.156   1.953 -0.0195  0.1441 -0.0939
 3494TIP3    H131973   2.719   5.080   1.932  0.7517 -0.7661  1.1141
 3494TIP3    H231974   2.807   5.185   1.868 -1.7831  0.2598 -0.7592
 3495TIP3   OH231975   3.961   5.595   3.192 -0.7037 -0.0665 -0.4780
 3495TIP3    H131976   3.869   5.621   3.186 -0.0500  1.9913 -2.1577
 3495TIP3    H231977   3.988   5.580   3.102  0.7458 -0.1098 -0.0540
 3496TIP3   OH231978   5.312   5.190  15.646 -0.2858 -0.0559  0.2136
 3496TIP3    H131979   5.372   5.244  15.594 -0.3006  0.5004  0.7708
 3496TIP3    H231980   5.228   5.199  15.602 -0.4131  0.8413  0.6395
 3497TIP3   OH231981   6.739   0.709  16.873  0.3101  0.5369  0.5891
 3497TIP3    H131982   6.748   0.665  16.958 -3.5382 -1.1244  0.2209
 3497TIP3    H231983   6.658   0.759  16.881  0.5314  1.3045 -1.7172
 3498TIP3   OH231984   4.622   0.373   4.483 -0.1265  0.7542 -0.0790
 3498TIP3    H131985   4.705   0.419   4.470  1.0628 -1.0218  0.9093
 3498TIP3    H231986   4.610   0.370   4.578 -1.3218  0.9975 -0.2131
 3499TIP3   OH231987   6.784   2.767   0.301 -0.0449 -0.3472  0.3296
 3499TIP3    H131988   6.701   2.739   0.338  0.3520 -0.6010  1.0428
 3499TIP3    H231989   6.850   2.727   0.357  0.5497  1.1435  0.7374
 3500TIP3   OH231990   0.150   5.321   1.095  0.2161 -0.3039  0.0409
 3500TIP3    H131991   0.145   5.253   1.163 -0.4422  0.7363  1.0442
 3500TIP3    H231992   0.063   5.319   1.054 -0.0931  0.5020  0.6408
 3501TIP3   OH231993   1.118   5.624   6.077  0.1015 -0.4404  0.7873
 3501TIP3    H131994   1.170   5.605   6.155  1.4293  0.8303  0.2388
 3501TIP3    H231995   1.134   5.717   6.060 -0.4733 -0.6150 -0.7782
 3502TIP3   OH231996   4.988   2.314  16.042  0.3333  0.0122 -0.2184
 3502TIP3    H131997   4.903   2.272  16.054 -0.6604  2.0399  0.0613
 3502TIP3    H231998   5.028   2.312  16.129  0.1894 -0.1545 -0.1534
 3503TIP3   OH231999   5.673   0.192  10.501 -0.1829 -0.4381 -0.6079
 3503TIP3    H132000   5.645   0.159  10.416 -0.1548 -1.4076 -0.2577
 3503TIP3    H232001   5.767   0.175  10.504 -0.1259 -0.1009 -0.5212
 3504TIP3   OH232002   2.553   5.805   2.716 -0.1463 -0.0607  0.6741
 3504TIP3    H132003   2.501   5.753   2.655  2.0528 -0.7422 -0.6883
 3504TIP3    H232004   2.598   5.741   2.770  0.6534  0.4596  0.6428
 3505TIP3   OH232005   3.878   5.349  11.867 -0.2491 -0.2880 -0.3947
 3505TIP3    H132006   3.925   5.397  11.798 -0.8501  1.2099  0.2201
 3505TIP3    H232007   3.831   5.280  11.820 -1.6754  1.4958 -1.6791
 3506TIP3   OH232008   1.655   6.000   0.392 -0.5002  0.0789 -0.5796
 3506TIP3    H132009   1.674   5.907   0.406  1.0926  0.2269 -1.5896
 3506TIP3    H232010   1.594   6.002   0.319  0.5577 -0.1181 -1.4765
 3507TIP3   OH232011   0.591   0.952  12.500  0.0897  0.8821  0.2630
 3507TIP3    H132012   0.596   0.898  12.580  1.3985 -0.0045 -0.4027
 3507TIP3    H232013   0.548   0.895  12.436  0.3148  1.0937 -0.0738
 3508TIP3   OH232014   3.563   0.017  14.176  0.5448 -0.1726 -0.1966
 3508TIP3    H132015   3.585  -0.058  14.230  0.8326 -1.1954 -1.7261
 3508TIP3    H232016   3.486   0.055  14.218 -0.3126 -2.0084 -0.0777
 3509TIP3   OH232017   1.485   1.665  15.146  0.0147  0.7329 -0.2653
 3509TIP3    H132018   1.549   1.628  15.085 -0.6009  1.3558 -1.3186
 3509TIP3    H232019   1.403   1.620  15.125  0.4739 -1.4031  2.3301
 3510TIP3   OH232020   6.136   1.555  16.128  0.0178  0.1100  0.0444
 3510TIP3    H132021   6.211   1.513  16.087 -0.9107 -2.0836  0.5315
 3510TIP3    H232022   6.072   1.563  16.058  0.1262  0.5561 -0.0051
 3511TIP3   OH232023   2.175   5.210   0.040  0.2672  0.6042 -0.0211
 3511TIP3    H132024   2.194   5.230  -0.052  1.8423  0.8632  0.3618
 3511TIP3    H232025   2.079   5.210   0.044  0.1751  0.2929 -1.7270
 3512TIP3   OH232026   2.090   2.000  16.585  0.3822 -0.6583 -0.1292
 3512TIP3    H132027   1.998   1.990  16.561 -0.1745  0.5945  1.3532
 3512TIP3    H232028   2.123   1.911  16.592 -1.5705 -1.2572  2.3852
 3513TIP3   OH232029   5.580   1.993   1.432 -0.2219 -0.0849 -0.4088
 3513TIP3    H132030   5.664   1.947   1.419 -0.9672 -1.5416 -0.1684
 3513TIP3    H232031   5.550   1.963   1.518  0.6167  3.0457  1.0478
 3514TIP3   OH232032   3.871   5.589   1.234  0.3652 -0.4406 -0.0139
 3514TIP3    H132033   3.784   5.561   1.263  0.1015 -0.2758 -0.6547
 3514TIP3    H232034   3.879   5.679   1.266 -0.5749  0.3194 -1.8360
 3515TIP3   OH232035   3.927   3.786   4.051 -0.0404 -0.2516 -0.2333
 3515TIP3    H132036   3.997   3.802   4.115 -0.1526 -0.3403 -0.0904
 3515TIP3    H232037   3.958   3.710   4.001 -0.0235 -0.2764 -0.1857
 3516TIP3   OH232038   4.282   5.221  14.616 -0.0222 -0.0962  0.0444
 3516TIP3    H132039   4.327   5.145  14.579 -0.9067  0.0589 -1.3679
 3516TIP3    H232040   4.310   5.223  14.708  2.1789 -0.5079 -0.5882
 3517TIP3   OH232041   2.960   6.501  11.050  0.6449  0.2017  0.1226
 3517TIP3    H132042   2.962   6.590  11.084  1.3891  0.1286  0.2706
 3517TIP3    H232043   3.007   6.506  10.966 -1.1225  0.3718 -0.8909
 3518TIP3   OH232044   2.718   6.682  13.658  0.3942 -0.1652  0.1110
 3518TIP3    H132045   2.639   6.631  13.640  0.3121  0.4466 -1.2859
 3518TIP3    H232046   2.695   6.735  13.734 -0.0700 -0.9911  0.5632
 3519TIP3   OH232047   0.180   4.241  13.785  0.6362  0.2251  0.0664
 3519TIP3    H132048   0.227   4.301  13.728 -0.1178 -0.0775 -0.8814
 3519TIP3    H232049   0.237   4.233  13.862  0.8263  2.0106  0.1459
 3520TIP3   OH232050   0.151   3.507   2.854  0.1333  0.0164 -0.3888
 3520TIP3    H132051   0.206   3.558   2.914 -0.2238 -0.9381  0.7658
 3520TIP3    H232052   0.062   3.534   2.875  0.0368  0.1446 -0.9460
 3521TIP3   OH232053   0.805   0.169  13.174  0.2541  1.0671 -0.4064
 3521TIP3    H132054   0.750   0.107  13.222  0.2080 -0.0046 -1.8104
 3521TIP3    H232055   0.883   0.118  13.149  1.0334  2.0610 -0.0600
 3522TIP3   OH232056   1.861   0.001  11.557  0.0215  0.4541  0.2035
 3522TIP3    H132057   1.814  -0.039  11.630  0.8172 -1.1488 -0.1442
 3522TIP3    H232058   1.796   0.056  11.513 -1.3430 -1.1779  0.1481
 3523TIP3   OH232059   2.357   1.624   2.668  0.0524 -0.5238 -0.3460
 3523TIP3    H132060   2.336   1.541   2.627  0.8739 -0.0259 -1.8048
 3523TIP3    H232061   2.450   1.637   2.650  0.3976 -0.2165  1.5463
 3524TIP3   OH232062   4.511   3.232   5.543 -0.3467  0.2018  0.0078
 3524TIP3    H132063   4.583   3.198   5.595  0.2430  1.0266 -0.2454
 3524TIP3    H232064   4.480   3.308   5.592 -1.8967 -0.9078  0.7687
 3525TIP3   OH232065   3.598   6.099  11.218  0.0926 -0.2025 -0.3682
 3525TIP3    H132066   3.629   6.190  11.219 -1.0831  0.2118  0.1033
 3525TIP3    H232067   3.572   6.083  11.127  0.9482 -0.3038 -0.6020
 3526TIP3   OH232068   6.054   4.229   4.002  0.6627  0.3978 -0.2694
 3526TIP3    H132069   5.988   4.205   4.066  0.5633  1.3469 -0.0092
 3526TIP3    H232070   6.133   4.244   4.054  1.0440 -0.5292 -0.5577
 3527TIP3   OH232071   6.480   3.623   2.638 -0.2686  0.6359  0.3277
 3527TIP3    H132072   6.422   3.592   2.569  0.1043  2.6247 -0.9117
 3527TIP3    H232073   6.483   3.551   2.701 -0.2655 -1.3925 -1.9233
 3528TIP3   OH232074   0.661   0.029  15.112 -0.4461 -0.4144  0.7867
 3528TIP3    H132075   0.608   0.072  15.179  0.2617 -0.2451  1.2332
 3528TIP3    H232076   0.695  -0.049  15.155 -1.0011 -0.9622  0.2460
 3529TIP3   OH232077   3.495   0.850   1.039  0.3445  0.0778 -0.4426
 3529TIP3    H132078   3.440   0.867   1.115  1.5612  0.4490  0.3752
 3529TIP3    H232079   3.481   0.758   1.018 -0.4658  0.1327 -0.1634
 3530TIP3   OH232080   4.994   4.945   3.079 -0.4873  0.1533  0.0211
 3530TIP3    H132081   5.080   4.911   3.106 -0.1776  0.6967 -0.2649
 3530TIP3    H232082   4.932   4.877   3.106  0.1567 -0.7906 -0.8312
 3531TIP3   OH232083   3.293   2.674  14.220 -0.2554  0.5179  0.2515
 3531TIP3    H132084   3.374   2.718  14.246  1.0390 -0.2639 -2.2661
 3531TIP3    H232085   3.251   2.736  14.160 -0.2975 -0.0911 -0.3540
 3532TIP3   OH232086   4.813   6.081   2.519 -0.5960  0.0302 -0.3098
 3532TIP3    H132087   4.879   6.057   2.454 -0.3640 -1.6180  0.5169
 3532TIP3    H232088   4.730   6.074   2.473 -0.4149 -0.8858 -0.5008
 3533TIP3   OH232089   3.348   6.531  14.415  0.3649  0.2935  0.0465
 3533TIP3    H132090   3.274   6.565  14.366  0.7506  0.7395 -0.2289
 3533TIP3    H232091   3.317   6.447  14.450 -0.3408  0.5918  0.1327
 3534TIP3   OH232092   4.456   3.614  16.329  0.0230 -0.1370  0.0625
 3534TIP3    H132093   4.428   3.694  16.286 -0.7079  0.4446  1.5795
 3534TIP3    H232094   4.547   3.603  16.303 -0.5230 -0.0723 -1.9895
 3535TIP3   OH232095   3.761   5.910  16.870  0.8071 -0.3489 -0.5692
 3535TIP3    H132096   3.738   5.893  16.779 -0.1009  2.2209 -0.8387
 3535TIP3    H232097   3.682   5.948  16.909  1.1628 -1.4452  1.3311
 3536TIP3   OH232098   1.297   3.727  12.849 -0.2660  0.1104  0.2158
 3536TIP3    H132099   1.351   3.651  12.826 -2.0618 -1.4828  1.1857
 3536TIP3    H232100   1.263   3.759  12.765  3.3358  2.0844 -0.6021
 3537TIP3   OH232101   0.757   3.492   5.902  0.1705 -0.0536  0.1076
 3537TIP3    H132102   0.745   3.437   5.824  0.3579  0.0372  0.0144
 3537TIP3    H232103   0.838   3.540   5.885  0.2410 -0.0767  0.3837
 3538TIP3   OH232104   0.753   0.228  16.869 -0.7552  0.1434  0.0274
 3538TIP3    H132105   0.737   0.148  16.820 -2.4018  1.2653 -1.3482
 3538TIP3    H232106   0.671   0.244  16.916 -1.8216  2.9253 -2.5742
 3539TIP3   OH232107   3.501   2.538   0.828  0.1716 -0.3125 -0.2897
 3539TIP3    H132108   3.496   2.548   0.733  1.2758 -0.3490 -0.3655
 3539TIP3    H232109   3.590   2.566   0.850  0.0470 -0.6512  0.6899
 3540TIP3   OH232110   2.325   0.390  13.756 -0.1358 -0.4342  0.1711
 3540TIP3    H132111   2.265   0.381  13.682 -0.4919  1.1459  0.2485
 3540TIP3    H232112   2.268   0.411  13.830  0.6280  2.4244 -0.0247
 3541TIP3   OH232113   1.708   5.356  12.350 -0.3467  0.4010  0.2145
 3541TIP3    H132114   1.669   5.439  12.380 -1.0361  0.6400 -1.2997
 3541TIP3    H232115   1.753   5.379  12.269 -1.7328 -0.9872 -0.9714
 3542TIP3   OH232116   3.785   6.780   5.115 -0.4352  0.0721 -0.1990
 3542TIP3    H132117   3.696   6.749   5.103 -0.0675 -2.5852  3.2077
 3542TIP3    H232118   3.839   6.721   5.063 -0.5482  1.5506 -2.0866
 3543TIP3   OH232119   2.992   4.890   3.916  0.0142 -0.4087 -0.0362
 3543TIP3    H132120   3.010   4.891   4.010  1.0257  0.0418 -0.2278
 3543TIP3    H232121   2.899   4.913   3.909 -0.3547 -1.5691  0.9085
 3544TIP3   OH232122   0.986   1.708   5.545  0.0688 -0.3849 -0.2493
 3544TIP3    H132123   1.012   1.658   5.468 -0.1081 -1.3713  0.3284
 3544TIP3    H232124   0.963   1.642   5.610 -0.8095  0.4500  0.2973
 3545TIP3   OH232125   5.162   6.111  13.660  0.3855 -0.2981 -0.0947
 3545TIP3    H132126   5.237   6.146  13.612  0.2478 -0.1849 -0.2260
 3545TIP3    H232127   5.162   6.018  13.639  0.6746 -0.3559  0.1541
 3546TIP3   OH232128   4.273   1.850  13.054 -0.4601  0.4390 -0.0904
 3546TIP3    H132129   4.222   1.930  13.061  0.3372  1.1307 -1.8346
 3546TIP3    H232130   4.355   1.870  13.099 -0.2221  0.6542 -0.6098
 3547TIP3   OH232131   1.053   2.940   4.216  0.2359 -0.0441  0.4964
 3547TIP3    H132132   0.981   2.964   4.158 -1.3669 -1.3208  1.8620
 3547TIP3    H232133   1.075   2.850   4.191 -0.7679 -0.7735  2.0541
 3548TIP3   OH232134   1.234   0.417  13.543 -0.4547 -0.1833 -0.3750
 3548TIP3    H132135   1.282   0.423  13.625 -1.0462 -0.2410 -0.0166
 3548TIP3    H232136   1.159   0.476  13.554 -0.9081 -0.7060 -0.6029
 3549TIP3   OH232137   6.029   1.992  15.916 -0.0628 -0.1534 -0.0261
 3549TIP3    H132138   6.006   2.003  15.824  0.4335  1.8287  0.0726
 3549TIP3    H232139   5.958   1.939  15.952 -1.4223  0.9240 -1.0642
 3550TIP3   OH232140   4.933   6.016  15.614 -0.4900  0.1484 -0.2524
 3550TIP3    H132141   5.018   5.976  15.629 -0.0432  1.3421  0.4226
 3550TIP3    H232142   4.872   5.962  15.666 -0.3707 -1.5187 -1.7990
 3551TIP3   OH232143   6.090   3.286   0.513  0.1629  0.3775  0.2830
 3551TIP3    H132144   6.160   3.330   0.464 -0.2046 -0.9819 -1.5032
 3551TIP3    H232145   6.024   3.354   0.525  0.5247  0.9049 -0.5966
 3552TIP3   OH232146   2.297   5.366  12.707  0.3795  0.3721 -0.3580
 3552TIP3    H132147   2.253   5.367  12.622 -0.0180  0.5812 -0.1475
 3552TIP3    H232148   2.312   5.458  12.728 -1.6446  0.4384  0.9024
 3553TIP3   OH232149   4.099   4.796  14.526  0.4839  0.4030 -0.1833
 3553TIP3    H132150   4.147   4.824  14.604  0.5312  1.5998 -0.6264
 3553TIP3    H232151   4.152   4.830  14.453 -0.4913  0.8378 -0.6936
 3554TIP3   OH232152   1.782   0.751   3.998 -0.3162  0.1627  0.2624
 3554TIP3    H132153   1.768   0.767   3.904 -2.1834 -0.6110  0.4039
 3554TIP3    H232154   1.845   0.679   4.000  1.4139  1.6021 -0.3656
 3555TIP3   OH232155   5.833   0.653  17.141  0.1928  0.1813 -0.1059
 3555TIP3    H132156   5.758   0.710  17.155  1.2551  1.4858  0.3875
 3555TIP3    H232157   5.839   0.601  17.220 -0.6631 -0.4911 -0.4792
 3556TIP3   OH232158   5.481   0.318   3.039 -0.1696  0.1417  0.1613
 3556TIP3    H132159   5.496   0.349   2.950 -0.6886 -0.6510 -0.2100
 3556TIP3    H232160   5.524   0.233   3.042 -2.0256 -0.8386 -0.0293
 3557TIP3   OH232161   3.037   4.075   1.614 -0.4734 -0.9897 -0.2117
 3557TIP3    H132162   2.951   4.058   1.575 -0.3704 -0.8667 -0.4906
 3557TIP3    H232163   3.020   4.138   1.684 -0.5547 -0.6767 -0.5149
 3558TIP3   OH232164   1.939   5.904   3.532  0.1306 -0.2850  0.2140
 3558TIP3    H132165   1.977   5.960   3.464  0.7927  1.5292  2.0594
 3558TIP3    H232166   1.999   5.829   3.538  2.1636  1.3982  1.4340
 3559TIP3   OH232167   5.451   2.442  12.954 -0.3609  0.3831  0.3113
 3559TIP3    H132168   5.532   2.392  12.958  0.4096  1.4928 -0.9353
 3559TIP3    H232169   5.406   2.408  12.877 -1.0375 -0.1678  0.9509
 3560TIP3   OH232170   1.253   4.052   5.367  0.4776 -0.4891  0.0723
 3560TIP3    H132171   1.277   4.072   5.277  0.7029  1.1063  0.4606
 3560TIP3    H232172   1.164   4.018   5.361  0.2747  0.1631 -0.6984
 3561TIP3   OH232173   2.376   0.420  15.917 -0.2630  0.1959 -0.2917
 3561TIP3    H132174   2.462   0.391  15.889 -0.0169  1.8917 -1.3932
 3561TIP3    H232175   2.324   0.340  15.923  0.8168 -0.6251 -1.6703
 3562TIP3   OH232176   0.907   5.819  10.765  0.3033  0.0523  0.0091
 3562TIP3    H132177   0.829   5.787  10.718 -2.7640  1.4597  3.8427
 3562TIP3    H232178   0.935   5.895  10.714 -0.9820 -0.2986 -1.2717
 3563TIP3   OH232179   0.259   0.651  16.222 -0.1695  0.5193  0.0385
 3563TIP3    H132180   0.171   0.630  16.254  0.4053 -0.6802  0.8532
 3563TIP3    H232181   0.274   0.589  16.152  0.5557 -0.1766  0.8007
 3564TIP3   OH232182   6.230   5.660  15.540  0.0277 -0.0202  0.0608
 3564TIP3    H132183   6.225   5.583  15.483  0.7788 -0.0695  0.0561
 3564TIP3    H232184   6.323   5.667  15.563  0.0884  1.3294 -0.5446
 3565TIP3   OH232185   2.980   6.470   2.222  0.3117 -0.2653 -0.0537
 3565TIP3    H132186   3.006   6.550   2.177  1.3009 -0.7639 -0.4154
 3565TIP3    H232187   3.063   6.432   2.252  0.0247 -2.0131 -1.3973
 3566TIP3   OH232188   5.439   4.505  16.454  0.0690  0.3743 -0.3117
 3566TIP3    H132189   5.442   4.601  16.457  0.8563  0.3138  0.9734
 3566TIP3    H232190   5.483   4.477  16.533  0.2653 -1.0725 -0.9180
 3567TIP3   OH232191   2.859   3.375   2.455  0.2827 -0.3434  0.2780
 3567TIP3    H132192   2.944   3.333   2.439  0.8301 -0.4316  3.1730
 3567TIP3    H232193   2.879   3.468   2.461 -0.0828 -0.2047 -0.5783
 3568TIP3   OH232194   5.941   3.666  12.943  0.2625 -0.3295  0.0165
 3568TIP3    H132195   5.927   3.571  12.944 -2.4456  0.0198  1.9947
 3568TIP3    H232196   5.964   3.688  13.033 -2.4515  1.2514  0.3910
 3569TIP3   OH232197   1.596   4.799  17.285 -0.1338  0.6228 -0.1206
 3569TIP3    H132198   1.569   4.717  17.243 -0.9946  0.9997 -0.3282
 3569TIP3    H232199   1.647   4.845  17.219  0.5112  0.1698  0.0603
 3570TIP3   OH232200   6.551   2.104  11.317  0.3753  0.1916 -0.4444
 3570TIP3    H132201   6.595   2.059  11.388  0.6467 -0.3097 -0.9246
 3570TIP3    H232202   6.458   2.092  11.334  0.4094  1.2602  0.5735
 3571TIP3   OH232203   4.813   1.680  11.513  0.8339  0.3164  0.7715
 3571TIP3    H132204   4.781   1.607  11.460  1.4954  0.8655 -0.4031
 3571TIP3    H232205   4.907   1.683  11.495  0.6920  1.9171  0.2303
 3572TIP3   OH232206   5.040   4.703  14.887 -0.3446 -0.5017  0.1410
 3572TIP3    H132207   5.011   4.781  14.839 -1.8479 -1.3262 -0.3002
 3572TIP3    H232208   5.116   4.671  14.837 -1.3883 -0.8759 -1.2300
 3573TIP3   OH232209   3.495   5.997  12.165  0.4301 -0.1322 -0.5695
 3573TIP3    H132210   3.404   5.974  12.147  0.4234  0.4152 -1.2788
 3573TIP3    H232211   3.527   6.033  12.082  0.4149  2.4347  0.4899
 3574TIP3   OH232212   6.264   3.778  10.694 -0.0316  0.0645  0.1441
 3574TIP3    H132213   6.341   3.762  10.638  1.1481  0.5334  1.5943
 3574TIP3    H232214   6.189   3.767  10.635  1.2107  1.8166 -1.8425
 3575TIP3   OH232215   4.050   3.071  13.478 -0.2140  0.7412 -0.2079
 3575TIP3    H132216   4.029   3.159  13.510  1.5636  1.6512 -1.4336
 3575TIP3    H232217   4.031   3.075  13.384  0.5079  0.0115 -0.3872
 3576TIP3   OH232218   0.829   2.403   2.312  0.0099  0.6859 -0.4269
 3576TIP3    H132219   0.881   2.476   2.345  3.3075 -1.4500 -0.5894
 3576TIP3    H232220   0.819   2.344   2.387 -0.8574  0.3626 -0.7919
 3577TIP3   OH232221   0.725   1.963   0.021  0.4767 -0.0623 -0.0336
 3577TIP3    H132222   0.682   1.931  -0.059  0.1977 -0.4935  0.2863
 3577TIP3    H232223   0.664   1.940   0.092  1.4599 -1.1135  0.4772
 3578TIP3   OH232224   4.573   2.580  11.849  0.0851 -0.1039  0.1039
 3578TIP3    H132225   4.646   2.626  11.809 -0.4085 -0.2087 -0.9305
 3578TIP3    H232226   4.595   2.577  11.942  1.8701 -0.9822 -0.3166
 3579TIP3   OH232227   6.568   6.757  15.735  0.2545 -0.2338  0.8178
 3579TIP3    H132228   6.645   6.708  15.765  0.0731 -0.6822  0.5561
 3579TIP3    H232229   6.601   6.846  15.718  1.5448 -1.3373 -2.8486
 3580TIP3   OH232230   4.274   6.017  14.810 -0.1270  0.0945  0.1145
 3580TIP3    H132231   4.300   5.976  14.727  1.0943 -2.1270  1.5614
 3580TIP3    H232232   4.185   6.048  14.793 -0.0739 -0.7290 -1.9017
 3581TIP3   OH232233   6.658   1.958   4.563  0.1767  0.1552 -0.3993
 3581TIP3    H132234   6.733   1.928   4.512 -0.2162 -0.4063 -0.6553
 3581TIP3    H232235   6.633   1.881   4.615 -1.3936 -0.2260 -1.7150
 3582TIP3   OH232236   1.752   5.822   5.280  0.3053 -0.2140  0.3751
 3582TIP3    H132237   1.715   5.746   5.235  0.5356 -0.2567  0.2573
 3582TIP3    H232238   1.817   5.785   5.340 -0.3157 -0.1938  1.0727
 3583TIP3   OH232239   1.696   1.274  11.895 -0.1459  0.3014  0.1937
 3583TIP3    H132240   1.770   1.255  11.838  1.3218 -1.5037  2.6653
 3583TIP3    H232241   1.620   1.239  11.848  1.0094 -0.9837 -0.7296
 3584TIP3   OH232242   6.568   6.475   4.524  0.0303 -0.0409  0.1403
 3584TIP3    H132243   6.520   6.436   4.598  1.6382  0.4633  1.4774
 3584TIP3    H232244   6.621   6.404   4.490  0.4023  0.1020  0.4185
 3585TIP3   OH232245   6.057   3.114   5.950 -0.1886  0.3257  0.7439
 3585TIP3    H132246   6.091   3.203   5.958 -0.6963  0.4556  1.5279
 3585TIP3    H232247   6.087   3.070   6.030 -1.7191  0.3964  1.3701
 3586TIP3   OH232248   2.454   1.569   6.042 -0.2662  0.6883 -0.2470
 3586TIP3    H132249   2.509   1.499   6.076 -2.1710  0.0674  1.6374
 3586TIP3    H232250   2.510   1.646   6.040  0.6890  0.0408  1.5334
 3587TIP3   OH232251   2.306   0.709   6.813 -0.2569  0.3003 -0.4642
 3587TIP3    H132252   2.290   0.772   6.883 -0.1707  0.5293 -0.6499
 3587TIP3    H232253   2.224   0.705   6.765 -0.3932 -0.0412 -0.2036
 3588TIP3   OH232254   2.232   0.808  11.005  0.1886 -0.2006 -0.0481
 3588TIP3    H132255   2.254   0.728  11.052  1.0989  0.9650  1.5571
 3588TIP3    H232256   2.201   0.778  10.919  1.6799 -2.1839  0.0841
 3589TIP3   OH232257   0.887   0.293  11.963  0.0219 -0.1363 -0.2090
 3589TIP3    H132258   0.880   0.388  11.968  1.0245 -0.0516 -0.3479
 3589TIP3    H232259   0.875   0.273  11.870 -1.1337 -0.2300 -0.0440
 3590TIP3   OH232260   1.638   2.114   4.708 -0.0295 -0.2550  0.6392
 3590TIP3    H132261   1.557   2.094   4.754  0.1848 -1.8232  0.3805
 3590TIP3    H232262   1.704   2.062   4.753  0.5140 -0.3608 -0.2686
 3591TIP3   OH232263   0.160   0.136   0.267  0.3685 -0.6287  0.0493
 3591TIP3    H132264   0.103   0.063   0.291  1.6145 -0.7868  2.6561
 3591TIP3    H232265   0.125   0.211   0.315  0.5950 -0.0701 -0.6471
 3592TIP3   OH232266   6.788   1.432  17.049  0.5928 -0.4077  0.6809
 3592TIP3    H132267   6.862   1.478  17.008 -0.0682 -0.8784 -1.0350
 3592TIP3    H232268   6.790   1.344  17.012  0.6909 -1.2197  2.5416
 3593TIP3   OH232269   6.610   0.331  12.749 -0.3321 -0.2933  0.0996
 3593TIP3    H132270   6.638   0.346  12.839  1.1930  1.8373 -0.6833
 3593TIP3    H232271   6.689   0.303  12.704 -0.1958  2.4062 -1.3995
 3594TIP3   OH232272   2.864   3.711  15.070  0.0275 -0.0590  0.2767
 3594TIP3    H132273   2.893   3.686  14.982  2.1395 -1.1095  1.2265
 3594TIP3    H232274   2.938   3.762  15.104 -1.9103  2.7544  0.4414
 3595TIP3   OH232275   4.309   4.129  16.620  0.3291  0.1339 -0.4223
 3595TIP3    H132276   4.364   4.184  16.564  0.4422 -1.0159 -1.4701
 3595TIP3    H232277   4.371   4.067  16.660 -0.2294 -1.5772 -2.0910
 3596TIP3   OH232278   1.071   0.175   0.581 -0.3779  0.5092  0.3768
 3596TIP3    H132279   1.081   0.250   0.640 -3.2904  1.8944 -0.7894
 3596TIP3    H232280   1.045   0.103   0.639  0.9707  0.7282  1.3034
 3597TIP3   OH232281   5.668   3.649   0.057  0.5223 -0.1379  0.1830
 3597TIP3    H132282   5.658   3.584   0.126  0.7893 -0.4182 -0.0382
 3597TIP3    H232283   5.733   3.611  -0.002 -1.6037 -1.1129 -1.6166
 3598TIP3   OH232284   2.775   6.255  12.090 -0.3743 -0.0101  0.3103
 3598TIP3    H132285   2.727   6.325  12.134  0.6225  1.0379 -0.2313
 3598TIP3    H232286   2.854   6.243  12.143 -0.2178 -0.2568  0.0226
 3599TIP3   OH232287   3.549   1.211   3.472  0.1269  0.3060  0.4243
 3599TIP3    H132288   3.522   1.246   3.387  1.4079 -2.3276 -1.1080
 3599TIP3    H232289   3.467   1.182   3.512 -0.3254  0.2967 -0.4950
 3600TIP3   OH232290   5.346   1.424  15.218 -0.1539  0.0259 -0.0081
 3600TIP3    H132291   5.279   1.492  15.218  0.5710  0.7520 -0.6098
 3600TIP3    H232292   5.429   1.471  15.206  0.4093 -0.9049  0.1404
 3601TIP3   OH232293   6.341   1.340   4.023 -0.0508 -0.1754 -0.2913
 3601TIP3    H132294   6.372   1.347   4.113 -2.5316 -0.0927  0.5747
 3601TIP3    H232295   6.352   1.427   3.986  3.1659 -0.7485 -0.8503
 3602TIP3   OH232296   1.652   6.097   5.292  0.0563  0.0185 -0.3570
 3602TIP3    H132297   1.635   6.045   5.213 -1.7362  1.1493 -0.7418
 3602TIP3    H232298   1.628   6.186   5.268  0.6012  0.5695  1.1139
 3603TIP3   OH232299   1.991   3.910   0.308  0.1392 -0.1764  0.8998
 3603TIP3    H132300   1.917   3.863   0.270  0.5371 -1.2495  1.4286
 3603TIP3    H232301   2.009   3.864   0.390  1.2862  0.1709  0.8534
 3604TIP3   OH232302   1.295   6.773  15.083 -0.4036  0.1858 -0.4075
 3604TIP3    H132303   1.374   6.720  15.085 -0.6535 -0.1704  0.0605
 3604TIP3    H232304   1.319   6.850  15.030  0.5454  0.5358  0.5102
 3605TIP3   OH232305   0.982   4.821  16.096 -0.3836 -0.1878  0.4519
 3605TIP3    H132306   1.060   4.770  16.116  0.7823  2.2310  2.2717
 3605TIP3    H232307   0.996   4.852  16.006  0.2617 -0.6207  0.4016
 3606TIP3   OH232308   5.981   6.543  14.249  0.1980 -0.0196  0.1314
 3606TIP3    H132309   6.024   6.602  14.188  0.1084 -0.1534 -0.0611
 3606TIP3    H232310   6.052   6.509  14.304  0.6130 -1.7210 -1.4273
 3607TIP3   OH232311   2.351   0.696  12.876 -0.4210 -0.0920 -0.2939
 3607TIP3    H132312   2.349   0.783  12.835 -1.8461  0.0984  0.1705
 3607TIP3    H232313   2.323   0.711  12.966  1.6036 -0.6928  0.4634
 3608TIP3   OH232314   2.764   5.836   3.514  0.1300  0.0417 -0.6449
 3608TIP3    H132315   2.804   5.800   3.435  1.6944 -1.0115  0.5882
 3608TIP3    H232316   2.769   5.765   3.578  0.8416  1.5419  1.0201
 3609TIP3   OH232317   0.720   3.697  13.761 -0.3631 -0.6593 -0.6125
 3609TIP3    H132318   0.701   3.694  13.855  0.5299 -0.6512 -0.4275
 3609TIP3    H232319   0.815   3.703  13.756 -0.4952  0.8092 -1.5008
 3610TIP3   OH232320   2.635   1.004   1.955  0.5511 -0.4726 -0.0292
 3610TIP3    H132321   2.681   1.085   1.978  1.2636 -0.2014 -2.2837
 3610TIP3    H232322   2.581   0.985   2.031  0.1125  2.3188  0.4088
 3611TIP3   OH232323   4.644   0.842  15.675 -0.0914 -0.9407  0.0668
 3611TIP3    H132324   4.717   0.781  15.679 -0.3046 -1.2002 -0.0012
 3611TIP3    H232325   4.680   0.920  15.632  0.0001 -1.2791 -0.4756
 3612TIP3   OH232326   4.253   4.462   0.060  0.6696 -0.0224  0.3811
 3612TIP3    H132327   4.245   4.417  -0.024 -0.0805  0.0485  0.4142
 3612TIP3    H232328   4.324   4.525   0.047  0.3386  0.2125 -0.2919
 3613TIP3   OH232329   5.503   3.793   1.678  0.1462  0.0679  0.5303
 3613TIP3    H132330   5.486   3.887   1.669 -0.2677 -0.2150 -1.8355
 3613TIP3    H232331   5.536   3.784   1.767  0.6262  2.5269  0.6502
 3614TIP3   OH232332   3.963   6.245   1.544 -0.0816 -0.2969  0.9604
 3614TIP3    H132333   4.033   6.279   1.600  0.5071  1.4578 -0.7669
 3614TIP3    H232334   4.008   6.212   1.467 -1.1085  0.0915  0.1875
 3615TIP3   OH232335   1.225   1.262   5.736 -0.4011 -0.1324 -0.4708
 3615TIP3    H132336   1.305   1.232   5.779  0.4131  3.2785  0.5563
 3615TIP3    H232337   1.250   1.271   5.644  0.5030  1.2391 -0.0964
 3616TIP3   OH232338   3.178   6.620   1.163  0.1974 -0.6863 -0.1414
 3616TIP3    H132339   3.091   6.637   1.201  0.1493  0.8001 -0.9039
 3616TIP3    H232340   3.237   6.622   1.239 -0.3015 -0.7340  0.2557
 3617TIP3   OH232341   0.994   4.472  14.735  0.4435 -0.3378  0.6514
 3617TIP3    H132342   0.920   4.438  14.685 -0.3803 -0.8361  2.2038
 3617TIP3    H232343   1.004   4.562  14.705  0.3568 -0.8208 -0.8607
 3618TIP3   OH232344   6.140   4.979  15.572 -0.2102  0.1606 -0.2998
 3618TIP3    H132345   6.185   4.901  15.540 -1.8395 -0.4263 -1.1785
 3618TIP3    H232346   6.183   4.999  15.655  0.7023 -1.2381 -0.4227
 3619TIP3   OH232347   0.341   3.406   5.112  0.7478  0.1912  0.4655
 3619TIP3    H132348   0.360   3.409   5.205 -1.0746 -1.1216  0.9080
 3619TIP3    H232349   0.406   3.464   5.072  1.3190  1.0395  2.5730
 3620TIP3   OH232350   2.841   5.127  13.976  0.5417  1.0518  0.2586
 3620TIP3    H132351   2.851   5.201  14.036 -0.8760  0.2616  1.5125
 3620TIP3    H232352   2.759   5.144  13.931 -0.0219  0.0253  0.8828
 3621TIP3   OH232353   2.489   1.995   6.124  0.6780  0.4374 -0.4784
 3621TIP3    H132354   2.519   1.920   6.073  1.3713 -0.8344  1.7607
 3621TIP3    H232355   2.497   2.069   6.063 -0.4613 -1.3297 -2.8690
 3622TIP3   OH232356   1.463   5.854  14.026  0.2822 -0.6461 -0.1094
 3622TIP3    H132357   1.397   5.789  14.004  0.2146 -1.2997  1.8929
 3622TIP3    H232358   1.545   5.804  14.034  0.9920  0.1083 -2.2762
 3623TIP3   OH232359   1.880   5.120   6.389  0.1359  0.7357 -0.1025
 3623TIP3    H132360   1.856   5.201   6.435  1.2995  0.8487  0.3144
 3623TIP3    H232361   1.913   5.062   6.457 -0.8926 -0.1882 -0.3688
 3624TIP3   OH232362   1.349   4.908  11.045 -0.5411 -0.4129  0.0483
 3624TIP3    H132363   1.383   4.898  10.956 -1.1240 -1.4041 -0.0642
 3624TIP3    H232364   1.360   5.001  11.065  2.3550 -0.7102  0.0550
 3625TIP3   OH232365   6.653   0.865   4.516 -0.3618 -0.6479 -0.3969
 3625TIP3    H132366   6.689   0.860   4.428  3.2329 -0.8495  0.9897
 3625TIP3    H232367   6.692   0.791   4.562 -0.1710  0.9108  2.0223
 3626TIP3   OH232368   5.472   3.019   3.521 -0.5141  0.0992 -0.0722
 3626TIP3    H132369   5.555   3.008   3.474 -0.5822  1.5339 -0.5487
 3626TIP3    H232370   5.412   2.959   3.477 -0.1784  0.3128 -0.8283
 3627TIP3   OH232371   0.821   5.811   4.413 -0.0686  0.4023  0.3465
 3627TIP3    H132372   0.856   5.826   4.325 -1.5117  0.9037 -0.1606
 3627TIP3    H232373   0.897   5.783   4.465  1.1529  1.8904 -0.6013
 3628TIP3   OH232374   1.186   3.256  10.588  0.0530 -0.1247 -0.3231
 3628TIP3    H132375   1.091   3.243  10.584 -0.0624  0.6742 -0.2355
 3628TIP3    H232376   1.197   3.325  10.653  0.6668  0.1071 -0.6791
 3629TIP3   OH232377   5.315   6.708  11.608 -0.4150  0.0713 -0.7670
 3629TIP3    H132378   5.323   6.793  11.566 -3.9321  1.5087  1.1855
 3629TIP3    H232379   5.276   6.651  11.542 -0.4861  0.7138 -1.2747
 3630TIP3   OH232380   5.808   4.715   3.596 -0.8818  0.1923  0.0480
 3630TIP3    H132381   5.869   4.658   3.548 -1.6740 -0.1809 -0.5169
 3630TIP3    H232382   5.811   4.682   3.686  0.2803  0.6233  0.1838
 3631TIP3   OH232383   2.921   0.022   5.546  0.0620 -0.3653  0.7039
 3631TIP3    H132384   2.999   0.041   5.598 -0.5299  0.1683  1.4143
 3631TIP3    H232385   2.927   0.081   5.471  0.6216 -0.7172  0.4706
 3632TIP3   OH232386   5.993   6.385  16.568 -0.2384  0.5593  0.2696
 3632TIP3    H132387   5.910   6.387  16.616  0.0786 -0.3004  0.8796
 3632TIP3    H232388   5.968   6.371  16.477 -0.7826  0.7494  0.3870
 3633TIP3   OH232389   2.280   5.194  10.400  0.4590 -0.7141 -0.2146
 3633TIP3    H132390   2.229   5.198  10.482  1.0421 -2.2635  0.2463
 3633TIP3    H232391   2.335   5.271  10.403  1.5372 -1.5014  1.6025
 3634TIP3   OH232392   5.628   0.045   5.487  0.0404 -1.2427 -0.1304
 3634TIP3    H132393   5.571  -0.028   5.464 -0.0996 -1.2077  0.1022
 3634TIP3    H232394   5.713   0.004   5.506 -0.2570 -1.4327  0.8057
 3635TIP3   OH232395   5.853   0.506  11.886 -0.0967  0.4296 -0.5002
 3635TIP3    H132396   5.812   0.592  11.895  1.7613  1.4371 -1.3426
 3635TIP3    H232397   5.926   0.509  11.948 -0.3638 -0.7773 -0.1142
 3636TIP3   OH232398   3.167   5.792   2.031 -0.2525 -0.3059 -0.3341
 3636TIP3    H132399   3.260   5.807   2.047  0.0322  0.0939 -2.3234
 3636TIP3    H232400   3.132   5.879   2.012 -0.9269 -0.5440 -0.1925
 3637TIP3   OH232401   2.719   3.644  17.141  0.5840  0.3091  0.6589
 3637TIP3    H132402   2.751   3.603  17.221 -0.0296 -0.3817  0.5500
 3637TIP3    H232403   2.642   3.593  17.116  0.2300  1.0798  0.1299
 3638TIP3   OH232404   4.752   1.889  14.005 -0.6013  0.1930 -0.2490
 3638TIP3    H132405   4.733   1.966  13.952  0.7658  1.9028  1.7081
 3638TIP3    H232406   4.728   1.914  14.094  0.6069 -1.3400  0.5366
 3639TIP3   OH232407   2.574   2.370   4.122  0.4317  0.0840  0.1738
 3639TIP3    H132408   2.624   2.409   4.050 -0.3924  2.8398  1.0356
 3639TIP3    H232409   2.492   2.341   4.082  1.6035 -2.0346 -0.7346
 3640TIP3   OH232410   5.517   3.154   4.042 -0.1843  0.1119 -0.0792
 3640TIP3    H132411   5.508   3.244   4.011 -0.4118  0.0179 -0.2833
 3640TIP3    H232412   5.548   3.163   4.132  0.5763  0.3804 -0.3650
 3641TIP3   OH232413   1.734   0.116   5.345  0.4270 -0.3243 -0.0699
 3641TIP3    H132414   1.639   0.114   5.337  0.1357  0.7897  2.6884
 3641TIP3    H232415   1.751   0.158   5.430  3.4086  0.8940 -1.1852
 3642TIP3   OH232416   2.095   4.720  13.976  0.1535  0.2918  0.1352
 3642TIP3    H132417   2.043   4.649  13.938  2.1370 -1.3020  0.3166
 3642TIP3    H232418   2.179   4.679  13.997  0.0422  1.7364  3.8249
 3643TIP3   OH232419   0.063   0.104  15.013  0.6945 -0.1246  0.0542
 3643TIP3    H132420   0.018   0.025  14.981 -1.6495  0.6868  1.2483
 3643TIP3    H232421   0.071   0.090  15.107  0.8156  0.7842  0.1826
 3644TIP3   OH232422   2.630   3.084   5.488 -0.2977  0.0522  0.0854
 3644TIP3    H132423   2.625   3.179   5.478  0.4722  0.0376 -0.5398
 3644TIP3    H232424   2.676   3.054   5.409 -1.5023 -0.9513 -0.2445
 3645TIP3   OH232425   4.866   2.103  16.376  0.0171 -0.2257  0.0753
 3645TIP3    H132426   4.791   2.054  16.411  0.8022 -0.6091  1.2701
 3645TIP3    H232427   4.921   2.036  16.335 -0.6290  0.1526 -1.4316
 3646TIP3   OH232428   4.480   0.880   5.009  0.4855  0.7315  0.0030
 3646TIP3    H132429   4.548   0.813   5.000  1.3548  1.6197 -0.1440
 3646TIP3    H232430   4.417   0.860   4.940  0.9046  0.2639 -0.2462
 3647TIP3   OH232431   1.646   2.411   0.539 -0.3485 -0.0741  0.0456
 3647TIP3    H132432   1.567   2.366   0.568 -0.7560 -0.4251 -1.5732
 3647TIP3    H232433   1.717   2.370   0.588 -1.1685  0.3318  1.6049
 3648TIP3   OH232434   5.207   0.292   4.383 -0.6078 -0.4177 -0.2206
 3648TIP3    H132435   5.269   0.222   4.363  0.5636  0.7302 -0.6453
 3648TIP3    H232436   5.186   0.281   4.476  1.3623  0.0859  0.2872
 3649TIP3   OH232437   0.845   6.336  14.470  0.1639  0.0237  0.1816
 3649TIP3    H132438   0.804   6.262  14.515 -0.5357  0.0534 -0.4031
 3649TIP3    H232439   0.881   6.298  14.390 -0.1621  0.3052 -0.1007
 3650TIP3   OH232440   3.175   5.060  13.415 -0.4352 -0.0711  0.1199
 3650TIP3    H132441   3.181   5.151  13.445 -0.6049  0.2919 -0.9390
 3650TIP3    H232442   3.169   5.009  13.496 -3.5099  1.0771  0.6834
 3651TIP3   OH232443   2.002   4.607  16.936 -1.4774 -0.1454 -0.3462
 3651TIP3    H132444   1.977   4.601  16.844  2.8992 -1.1906 -1.5770
 3651TIP3    H232445   1.978   4.521  16.972  1.7389 -1.8143 -1.9537
 3652TIP3   OH232446   0.168   1.527   5.129 -0.1039 -0.0513 -0.3905
 3652TIP3    H132447   0.083   1.563   5.153  0.3220 -0.9524  2.7986
 3652TIP3    H232448   0.152   1.479   5.048 -2.4010  0.6886 -0.4068
 3653TIP3   OH232449   5.598   0.910  14.892  0.1891  0.3539 -0.0679
 3653TIP3    H132450   5.546   0.842  14.850 -1.6281  1.2892  0.6064
 3653TIP3    H232451   5.645   0.953  14.820  0.6443 -0.9963 -0.5905
 3654TIP3   OH232452   5.500   3.365  11.491 -0.0200  0.3739 -0.5525
 3654TIP3    H132453   5.518   3.299  11.558  0.2626  0.6379 -0.3616
 3654TIP3    H232454   5.512   3.448  11.537  0.7277  0.5553 -1.0711
 3655TIP3   OH232455   1.330   3.910  16.958  0.3200 -0.7257  0.0758
 3655TIP3    H132456   1.281   3.990  16.980 -0.2648 -1.0256 -0.1352
 3655TIP3    H232457   1.370   3.930  16.873  3.6248  0.9113  1.9390
 3656TIP3   OH232458   4.196   3.868  14.789 -1.1064  0.2053 -0.0300
 3656TIP3    H132459   4.233   3.945  14.832  0.0744 -0.6251  0.4931
 3656TIP3    H232460   4.223   3.795  14.845 -0.4774 -0.7930 -1.6021
 3657TIP3   OH232461   0.856   3.314   5.000  0.7084  0.0745 -0.7333
 3657TIP3    H132462   0.934   3.332   4.947  1.7443 -1.1821  0.3301
 3657TIP3    H232463   0.885   3.330   5.090 -0.4735  0.2784 -0.3840
 3658TIP3   OH232464   3.866   3.589  12.383 -0.0217 -0.2936 -0.3049
 3658TIP3    H132465   3.907   3.534  12.450 -0.8806 -0.7158 -0.1219
 3658TIP3    H232466   3.811   3.529  12.333  0.4562  0.0632 -1.2662
 3659TIP3   OH232467   1.011   2.708  11.450  0.2655  0.1601 -0.0732
 3659TIP3    H132468   0.970   2.626  11.480  0.7407 -0.1282 -0.2077
 3659TIP3    H232469   0.951   2.776  11.481 -1.9440 -0.4055 -2.8973
 3660TIP3   OH232470   4.083   2.928   5.768 -0.1524  0.1301 -0.0595
 3660TIP3    H132471   4.099   3.022   5.767  0.0257  0.1171 -2.1632
 3660TIP3    H232472   4.154   2.892   5.821  0.8771  1.0286 -0.8030
 3661TIP3   OH232473   1.316   5.632  13.932 -0.2789 -0.2759  0.8995
 3661TIP3    H132474   1.257   5.556  13.933  0.2088 -0.6660  0.6386
 3661TIP3    H232475   1.402   5.594  13.915 -0.3525  0.5623 -1.5293
 3662TIP3   OH232476   4.807   0.697  13.909 -1.3796 -0.0293  0.1935
 3662TIP3    H132477   4.713   0.689  13.895 -1.1619  0.6832 -1.8286
 3662TIP3    H232478   4.830   0.783  13.873  0.2228 -0.6878 -0.4294
 3663TIP3   OH232479   0.700   4.652   0.173  0.4109 -0.1655  0.2957
 3663TIP3    H132480   0.657   4.718   0.118  0.5872  1.9938  2.6802
 3663TIP3    H232481   0.700   4.573   0.119  1.7406  2.1984 -3.3561
 3664TIP3   OH232482   1.508   4.429   2.984 -0.0204 -0.3759  0.3950
 3664TIP3    H132483   1.587   4.468   2.946  0.6900 -1.7762  0.4322
 3664TIP3    H232484   1.469   4.500   3.035  1.8257  0.0073  1.3106
 3665TIP3   OH232485   1.966   4.018  11.289 -0.4487 -0.0719  0.2245
 3665TIP3    H132486   1.965   3.984  11.379 -0.8099  0.3536  0.3811
 3665TIP3    H232487   2.011   4.102  11.295  0.8383 -0.7009 -0.2374
 3666TIP3   OH232488   2.223   1.120  15.553  0.0465  0.9614 -0.2398
 3666TIP3    H132489   2.168   1.186  15.510  0.1646  0.1673 -1.6243
 3666TIP3    H232490   2.162   1.068  15.605 -0.1110  1.8609  0.4934
 3667TIP3   OH232491   4.822   0.658   2.145  0.0105 -0.2916 -0.5471
 3667TIP3    H132492   4.797   0.743   2.182 -0.0967 -0.7153  0.3593
 3667TIP3    H232493   4.886   0.623   2.207  2.5848  0.5929 -2.5877
 3668TIP3   OH232494   5.733   6.554  16.615  0.4488  0.4897  0.3145
 3668TIP3    H132495   5.721   6.649  16.612 -1.0536  0.3254  0.5315
 3668TIP3    H232496   5.727   6.527  16.523 -3.5369  0.1443  0.5955
 3669TIP3   OH232497   0.984   5.644   0.469 -0.8508 -0.7917  0.6188
 3669TIP3    H132498   1.072   5.610   0.453 -0.9112 -0.9354  0.5898
 3669TIP3    H232499   0.998   5.732   0.503 -0.7100 -0.5961  0.0648
 3670TIP3   OH232500   0.065   5.795   1.409 -0.5117 -0.0688  0.7037
 3670TIP3    H132501  -0.030   5.790   1.392 -0.8555 -1.1850  2.7332
 3670TIP3    H232502   0.099   5.709   1.381 -0.4255 -0.3823  1.7524
 3671TIP3   OH232503   5.984   6.202   1.489 -0.3615 -0.0123  0.6389
 3671TIP3    H132504   5.955   6.119   1.452 -1.6947  0.9098 -0.4008
 3671TIP3    H232505   6.056   6.229   1.433 -0.3168 -0.1600  0.6236
 3672TIP3   OH232506   0.646   0.333   3.852  0.5818 -0.3634 -0.4013
 3672TIP3    H132507   0.718   0.394   3.869 -0.0387  0.5587 -1.0099
 3672TIP3    H232508   0.580   0.386   3.807 -1.2549 -0.7362  1.7611
 3673TIP3   OH232509   5.008   2.677   3.647  0.3257  0.1821 -0.3859
 3673TIP3    H132510   5.041   2.763   3.621  1.1762  0.5297  1.6547
 3673TIP3    H232511   5.076   2.643   3.706  0.6182 -2.4497 -2.1580
 3674TIP3   OH232512   5.014   5.464  16.393  0.0687  1.1539 -0.0531
 3674TIP3    H132513   5.025   5.380  16.349 -0.3592  0.1253  1.7552
 3674TIP3    H232514   5.102   5.488  16.421 -0.1196  0.1575  1.4500
 3675TIP3   OH232515   2.493   0.837  13.933  0.1719 -0.2419 -0.0678
 3675TIP3    H132516   2.421   0.857  13.993  0.4104  0.7645 -0.1045
 3675TIP3    H232517   2.559   0.795  13.988 -0.0031 -0.1872  0.1855
 3676TIP3   OH232518   1.642   1.018  15.970  0.4752 -0.1545 -0.3004
 3676TIP3    H132519   1.578   1.086  15.993 -0.1711 -0.3097 -1.6125
 3676TIP3    H232520   1.618   0.992  15.881  1.5578 -1.1494 -0.3041
 3677TIP3   OH232521   4.037   5.695  17.052  0.2791  0.0468 -0.7612
 3677TIP3    H132522   4.099   5.622  17.040  0.8049  0.4583 -0.5490
 3677TIP3    H232523   3.969   5.659  17.110  0.8788 -0.0779 -0.1257
 3678TIP3   OH232524   3.887   5.237   2.782  0.4803  0.0704  0.1566
 3678TIP3    H132525   3.793   5.246   2.764  0.9025 -0.1271 -2.2999
 3678TIP3    H232526   3.929   5.288   2.713  2.2547 -1.9618 -0.3195
 3679TIP3   OH232527   6.564   1.872  15.329 -0.8541 -0.0258 -0.2425
 3679TIP3    H132528   6.518   1.931  15.389  0.7129  0.7684  0.2043
 3679TIP3    H232529   6.555   1.912  15.243 -0.7736  0.2647 -0.1149
 3680TIP3   OH232530   0.181   5.441  16.261 -0.7968 -0.6052 -0.2704
 3680TIP3    H132531   0.183   5.414  16.169 -0.5652  0.0555 -0.4650
 3680TIP3    H232532   0.240   5.517  16.265 -1.8168  0.1675  0.1638
 3681TIP3   OH232533   4.241   4.570  14.402 -0.4314  0.7175 -0.4927
 3681TIP3    H132534   4.290   4.618  14.469 -0.7160 -1.0317  1.0269
 3681TIP3    H232535   4.170   4.529  14.451  0.1319 -1.6659 -1.6397
 3682TIP3   OH232536   2.720   5.945   4.176  0.7340  0.0670 -0.2900
 3682TIP3    H132537   2.793   5.956   4.238  0.2410  0.5983  0.1994
 3682TIP3    H232538   2.763   5.931   4.092  1.4229  2.2991 -0.3528
 3683TIP3   OH232539   5.888   6.652  17.261  0.1386  0.4761  0.2883
 3683TIP3    H132540   5.805   6.634  17.306 -0.5772  0.9789 -0.8188
 3683TIP3    H232541   5.936   6.709  17.321 -0.8509  1.2158  0.3861
 3684TIP3   OH232542   5.587   3.796   1.971 -0.7945 -0.1032 -0.3243
 3684TIP3    H132543   5.506   3.817   2.018 -1.1389 -1.9694 -0.0107
 3684TIP3    H232544   5.653   3.786   2.039 -0.8196 -0.7498 -0.3873
 3685TIP3   OH232545   6.678   5.723  14.916  0.6317 -0.2023  0.0245
 3685TIP3    H132546   6.605   5.696  14.972 -1.3250 -0.6593 -2.6273
 3685TIP3    H232547   6.651   5.807  14.880  1.6159 -0.1816 -0.6882
 3686TIP3   OH232548   1.597   1.773   3.998 -0.1406  0.2041  0.4807
 3686TIP3    H132549   1.692   1.776   4.010 -0.2405  0.1245  1.2873
 3686TIP3    H232550   1.580   1.686   3.964  0.0365  0.0905  0.6799
 3687TIP3   OH232551   2.078   3.146   5.104  0.1316  0.6917  0.0992
 3687TIP3    H132552   2.036   3.227   5.077 -1.0530 -0.1666 -0.7117
 3687TIP3    H232553   2.146   3.131   5.038 -0.1081  0.6832 -0.1509
 3688TIP3   OH232554   5.027   0.352   0.108  0.3235  0.0882 -0.0504
 3688TIP3    H132555   4.936   0.324   0.109  0.3869 -0.0946  0.4618
 3688TIP3    H232556   5.078   0.272   0.119  0.5097  0.3661  1.1320
 3689TIP3   OH232557   4.073   1.749  16.509 -0.0495 -0.2711 -0.1228
 3689TIP3    H132558   3.979   1.745  16.526 -0.2753  3.6081 -0.1211
 3689TIP3    H232559   4.113   1.731  16.594 -0.8834  1.7959  0.7366
 3690TIP3   OH232560   3.636   5.387  17.100 -0.2271  0.6167  0.1753
 3690TIP3    H132561   3.638   5.302  17.056  1.7316 -0.0184  1.4306
 3690TIP3    H232562   3.592   5.445  17.038  1.9738 -0.3963 -2.4487
 3691TIP3   OH232563   2.579   3.715  14.116 -1.0784 -0.3248 -0.3616
 3691TIP3    H132564   2.578   3.749  14.205 -0.5336  0.2808 -0.5781
 3691TIP3    H232565   2.631   3.635  14.121 -0.5622  0.0145 -0.2364
 3692TIP3   OH232566   5.998   3.724   4.770  0.1018 -0.2474 -0.4434
 3692TIP3    H132567   5.961   3.777   4.700 -0.2080 -1.8973 -1.5461
 3692TIP3    H232568   5.948   3.643   4.769 -0.2299 -0.1237  2.0185
 3693TIP3   OH232569   2.038   1.758   4.276 -0.1263  0.4293 -0.3509
 3693TIP3    H132570   1.981   1.795   4.343  0.1124  0.1983 -0.0147
 3693TIP3    H232571   2.073   1.678   4.317 -0.9081 -0.3458 -1.1943
 3694TIP3   OH232572   3.541   1.318  13.025  0.5037 -0.0263  0.7595
 3694TIP3    H132573   3.524   1.409  13.004  0.9281 -0.1022  0.0770
 3694TIP3    H232574   3.470   1.293  13.084  1.1402  1.1332  2.0329
 3695TIP3   OH232575   2.011   2.856  16.009 -0.4615  0.1004 -0.7365
 3695TIP3    H132576   2.043   2.798  15.939  0.1032 -1.4113  0.7338
 3695TIP3    H232577   2.091   2.896  16.044 -0.7521  0.9226 -1.0275
 3696TIP3   OH232578   1.079   1.631  12.636  0.4456  0.0185  0.4510
 3696TIP3    H132579   1.144   1.677  12.689  0.7685 -0.5345  0.5334
 3696TIP3    H232580   1.128   1.561  12.593  0.2158  0.5284 -0.6782
 3697TIP3   OH232581   6.435   2.896   5.770  0.1410 -0.4660  0.7151
 3697TIP3    H132582   6.417   2.885   5.677  1.7238 -0.4647  0.4006
 3697TIP3    H232583   6.435   2.991   5.783 -0.7251 -0.4819  0.8529
 3698TIP3   OH232584   1.174   6.723  16.940  0.1957 -0.7722 -0.0741
 3698TIP3    H132585   1.128   6.806  16.957  0.5743 -0.2317 -1.5716
 3698TIP3    H232586   1.135   6.661  17.000 -0.7927  0.2733  0.3840
 3699TIP3   OH232587   6.198   6.544  12.611  0.1372 -0.4442  0.0338
 3699TIP3    H132588   6.279   6.493  12.616 -0.1171 -0.7192  1.9031
 3699TIP3    H232589   6.218   6.615  12.550  1.5826 -0.8829 -0.0239
 3700TIP3   OH232590   1.057   2.181   0.863  0.0049 -0.0198  0.3849
 3700TIP3    H132591   1.033   2.088   0.865  0.8651 -0.2938 -1.0186
 3700TIP3    H232592   1.150   2.183   0.886 -0.2623  0.6061  1.4504
 3701TIP3   OH232593   4.940   1.616   5.725 -0.7815  0.2773  0.2613
 3701TIP3    H132594   4.944   1.557   5.801  0.8750 -0.6789 -0.5671
 3701TIP3    H232595   4.973   1.700   5.758 -0.0970 -0.1271  0.6069
 3702TIP3   OH232596   3.382   3.551   4.939  0.1621 -0.2844  0.3017
 3702TIP3    H132597   3.415   3.462   4.925  1.6037  0.1252  1.0327
 3702TIP3    H232598   3.363   3.555   5.032  1.5253  0.6428  0.5488
 3703TIP3   OH232599   4.326   4.645   5.561 -0.1279 -0.1795 -0.0863
 3703TIP3    H132600   4.377   4.723   5.583 -1.1343  0.9485 -1.6376
 3703TIP3    H232601   4.275   4.626   5.640  1.8075 -0.6485  1.0885
 3704TIP3   OH232602   5.210   1.738  13.987  0.6269 -0.4574 -0.4076
 3704TIP3    H132603   5.272   1.809  13.972 -1.4644  1.6625  0.6129
 3704TIP3    H232604   5.136   1.760  13.930 -0.0783 -1.7661  0.0016
 3705TIP3   OH232605   4.405   2.733  13.625  0.0423  0.4937  0.5710
 3705TIP3    H132606   4.348   2.784  13.567  0.7031  0.4265 -0.1567
 3705TIP3    H232607   4.491   2.740  13.584  0.3481 -0.2689  1.0891
 3706TIP3   OH232608   4.700   1.662   4.411  0.0955 -0.1921 -0.3355
 3706TIP3    H132609   4.622   1.692   4.459  0.7594  0.6358  0.2414
 3706TIP3    H232610   4.732   1.587   4.462  1.0683  0.9760  0.7892
 3707TIP3   OH232611   1.670   3.317  15.285  0.9091  0.0793 -0.5459
 3707TIP3    H132612   1.629   3.332  15.370  1.3059  1.0669 -0.5211
 3707TIP3    H232613   1.618   3.248  15.245  0.4511 -0.0816  0.3218
 3708TIP3   OH232614   3.307   5.811   2.442  0.2709 -0.7435 -0.5885
 3708TIP3    H132615   3.251   5.751   2.392  0.0898  0.3743 -1.7440
 3708TIP3    H232616   3.273   5.898   2.422  1.7587 -0.1269 -0.4467
 3709TIP3   OH232617   4.562   0.088   0.268 -0.4220  0.6463  0.1616
 3709TIP3    H132618   4.564   0.169   0.319  0.4097  1.0999 -0.5706
 3709TIP3    H232619   4.533   0.116   0.181 -0.5434  0.0914  0.0250
 3710TIP3   OH232620   2.688   4.200   2.352 -0.4623 -0.9498 -0.2315
 3710TIP3    H132621   2.678   4.111   2.318 -1.2256 -1.5319  1.4786
 3710TIP3    H232622   2.598   4.233   2.359 -0.3839 -1.1643  2.0524
 3711TIP3   OH232623   4.011   5.277   3.239 -0.6475  0.1001  0.1580
 3711TIP3    H132624   4.031   5.242   3.152 -2.9210  0.2906 -0.4727
 3711TIP3    H232625   3.971   5.362   3.222 -1.0999  0.1424  1.4067
 3712TIP3   OH232626   2.571   0.046  14.180  0.1647 -0.0563  0.0088
 3712TIP3    H132627   2.635   0.118  14.185  1.1053 -0.8004 -1.0329
 3712TIP3    H232628   2.590  -0.008  14.257 -0.1179  0.4560  0.4432
 3713TIP3   OH232629   2.173   4.742   0.497 -0.1486  0.2814 -0.5723
 3713TIP3    H132630   2.169   4.837   0.492 -1.3206  0.3463  1.1323
 3713TIP3    H232631   2.262   4.720   0.469  0.3446  1.9195 -0.3555
 3714TIP3   OH232632   6.751   0.508   0.109  0.3363 -0.2135 -0.7083
 3714TIP3    H132633   6.702   0.461   0.041 -0.0801 -1.4190  0.4120
 3714TIP3    H232634   6.834   0.530   0.067 -0.5683  0.5386 -2.1503
 3715TIP3   OH232635   0.217   5.981  13.149  0.4612  0.2938 -0.7009
 3715TIP3    H132636   0.255   6.054  13.197 -1.8141  1.9660 -1.3509
 3715TIP3    H232637   0.189   5.919  13.218 -0.9030  1.7232  0.0656
 3716TIP3   OH232638   1.708   1.576   6.095  0.2331 -0.5306 -0.0405
 3716TIP3    H132639   1.621   1.578   6.135  0.3147 -0.6218  0.1434
 3716TIP3    H232640   1.733   1.484   6.095 -0.1492 -0.6313 -1.1497
 3717TIP3   OH232641   5.289   4.976   0.439  0.4042  0.1410  0.6888
 3717TIP3    H132642   5.316   4.886   0.459 -0.1415  0.1644  1.5622
 3717TIP3    H232643   5.227   4.998   0.508 -0.3440  0.7866 -0.1799
 3718TIP3   OH232644   1.281   4.517   5.919  0.1782  0.1098  0.5576
 3718TIP3    H132645   1.251   4.605   5.940 -1.0378  0.2870 -1.7545
 3718TIP3    H232646   1.330   4.489   5.996 -1.3327  1.9281  2.2264
 3719TIP3   OH232647   0.422   5.667   5.054 -0.5493  0.3574 -0.0032
 3719TIP3    H132648   0.412   5.574   5.074 -0.1201 -0.0313 -1.5581
 3719TIP3    H232649   0.438   5.670   4.960  0.4229  1.9324  0.1897
 3720TIP3   OH232650   0.706   0.348   4.805 -0.0559  0.1610 -0.2339
 3720TIP3    H132651   0.730   0.410   4.875 -0.2786 -0.2657  0.2217
 3720TIP3    H232652   0.773   0.360   4.738 -1.3946  2.6087 -1.2178
 3721TIP3   OH232653   4.298   2.430  16.554  0.1950  0.4931 -0.0222
 3721TIP3    H132654   4.387   2.443  16.524  0.2499  2.5326  0.9068
 3721TIP3    H232655   4.307   2.394  16.642  0.1046  1.0711  0.2236
 3722TIP3   OH232656   3.677   2.125   0.593 -0.6659  0.0967  0.1283
 3722TIP3    H132657   3.660   2.137   0.687 -1.6646  0.7278 -0.1211
 3722TIP3    H232658   3.611   2.180   0.550 -0.2639 -0.2541 -0.9469
 3723TIP3   OH232659   5.008   5.487   2.463  0.1831 -0.0470  0.0555
 3723TIP3    H132660   5.053   5.566   2.433 -1.6149  0.6566 -0.9032
 3723TIP3    H232661   4.937   5.475   2.400 -0.4404 -1.6089  1.0282
 3724TIP3   OH232662   5.852   0.463  13.665  0.3525  0.2545  0.0613
 3724TIP3    H132663   5.810   0.548  13.651 -0.7440 -0.4845 -1.2436
 3724TIP3    H232664   5.940   0.474  13.629  0.1232  0.7560 -0.3523
 3725TIP3   OH232665   3.535   4.036   2.994  0.1322 -0.5606  0.3992
 3725TIP3    H132666   3.530   3.946   2.962  0.5580 -0.5233  0.2263
 3725TIP3    H232667   3.444   4.060   3.012 -0.0544 -0.7816 -0.2372
 3726TIP3   OH232668   1.667   2.895   2.479  0.1928 -0.1564 -0.2622
 3726TIP3    H132669   1.678   2.828   2.545 -0.1483 -0.9406 -0.9965
 3726TIP3    H232670   1.575   2.920   2.484  0.3601  0.3861  0.1340
 3727TIP3   OH232671   6.808   2.559  14.922 -0.7279  0.1605 -0.2732
 3727TIP3    H132672   6.730   2.602  14.888 -0.4779  0.6465 -0.2318
 3727TIP3    H232673   6.864   2.630  14.953 -0.3451 -0.1939 -0.1348
 3728TIP3   OH232674   1.115   2.282   3.092 -0.1855 -0.6963  0.4424
 3728TIP3    H132675   1.041   2.251   3.143  0.2876 -0.5560  1.2254
 3728TIP3    H232676   1.084   2.363   3.051  0.0267  0.2091  2.0214
 3729TIP3   OH232677   2.906   0.183  15.801 -0.4605  0.0722  0.1005
 3729TIP3    H132678   2.971   0.113  15.812 -0.2417  0.1374 -0.7262
 3729TIP3    H232679   2.956   0.256  15.764 -1.3627 -0.5428 -2.4592
 3730TIP3   OH232680   2.423   4.367   2.883  0.4870  0.3257 -0.0119
 3730TIP3    H132681   2.363   4.293   2.882  1.2132 -0.3575  2.1883
 3730TIP3    H232682   2.372   4.441   2.851 -0.3884 -1.0115 -1.7731
 3731TIP3   OH232683   2.414   0.182   4.036  0.0734 -0.5675  0.4637
 3731TIP3    H132684   2.370   0.228   3.964  1.6564 -1.3837 -1.0493
 3731TIP3    H232685   2.349   0.118   4.066 -0.2039 -0.9870 -0.9885
 3732TIP3   OH232686   1.674   1.902  12.662  0.2236 -0.6258  0.1825
 3732TIP3    H132687   1.759   1.875  12.628  0.6843 -0.6106  1.2922
 3732TIP3    H232688   1.614   1.831  12.636  0.8329 -1.2638  0.5015
 3733TIP3   OH232689   6.128   1.738  14.421  0.1462  0.5893 -0.9554
 3733TIP3    H132690   6.196   1.787  14.467  0.1816 -0.3978  0.0894
 3733TIP3    H232691   6.105   1.792  14.345  0.0435  2.2836  0.2510
 3734TIP3   OH232692   6.171   3.952   1.415  0.4131 -0.1393  0.7332
 3734TIP3    H132693   6.223   3.983   1.490  1.1111 -0.5865  0.4379
 3734TIP3    H232694   6.145   3.863   1.440  0.2024 -0.0954  0.6679
 3735TIP3   OH232695   3.704   0.350  14.471  0.0142  0.5215  0.4527
 3735TIP3    H132696   3.661   0.334  14.555  1.1083  0.2196  0.9650
 3735TIP3    H232697   3.787   0.392  14.494  0.8564 -0.6337 -0.4072
 3736TIP3   OH232698   3.654   1.047   6.460  0.2742 -0.4744  0.3447
 3736TIP3    H132699   3.606   1.011   6.534 -2.2271  1.6205 -0.1545
 3736TIP3    H232700   3.741   1.067   6.494 -1.1521  1.4760  3.0413
 3737TIP3   OH232701   0.328   2.266  12.066 -0.2064  0.2316  0.5661
 3737TIP3    H132702   0.406   2.210  12.069  0.8603  1.5609 -1.3162
 3737TIP3    H232703   0.261   2.211  12.025  0.8346  0.2601 -1.2697
 3738TIP3   OH232704   6.773   4.444   1.831  0.1992  0.6285 -0.5685
 3738TIP3    H132705   6.848   4.461   1.773 -0.4325  1.4482 -1.1517
 3738TIP3    H232706   6.738   4.360   1.800  1.3964 -0.2035  0.2731
 3739TIP3   OH232707   3.702   3.788  11.148  0.0087  0.5764 -0.2936
 3739TIP3    H132708   3.783   3.738  11.161 -0.4514  0.4444  2.3879
 3739TIP3    H232709   3.673   3.763  11.060  1.1385 -1.9182 -0.0279
 3740TIP3   OH232710   6.146   6.761  15.382 -0.4395 -0.0822 -0.8332
 3740TIP3    H132711   6.221   6.759  15.442 -0.9237  0.3569 -0.2164
 3740TIP3    H232712   6.108   6.848  15.394 -0.7338 -0.1123 -1.5420
 3741TIP3   OH232713   4.034   5.163   2.403  0.0748  0.4333 -0.6705
 3741TIP3    H132714   4.085   5.180   2.323  1.0594  0.1889 -0.0991
 3741TIP3    H232715   3.958   5.221   2.395 -0.5497 -0.5777 -2.4507
 3742TIP3   OH232716   5.579   2.068   0.078  0.4784  0.1202  0.1178
 3742TIP3    H132717   5.496   2.116   0.076  0.6880  0.4916  0.3600
 3742TIP3    H232718   5.558   1.983   0.038  0.5915  1.1711 -2.2875
 3743TIP3   OH232719   5.057   0.960   0.581 -0.0906 -0.5476 -0.2715
 3743TIP3    H132720   5.051   0.908   0.501  0.1843  0.2456 -0.8199
 3743TIP3    H232721   5.148   0.991   0.583 -0.6629  1.1961 -0.7795
 3744TIP3   OH232722   1.294   5.036  11.941 -0.4448  0.1594  1.0605
 3744TIP3    H132723   1.363   5.102  11.944 -0.0517 -0.2466  0.9453
 3744TIP3    H232724   1.213   5.086  11.951 -0.2861  0.9058 -1.1080
 3745TIP3   OH232725   3.032   4.418   3.546 -0.0901  0.4948 -0.4288
 3745TIP3    H132726   3.042   4.489   3.609 -1.4029  0.9102 -0.6722
 3745TIP3    H232727   3.108   4.427   3.488 -0.8470  2.4338 -1.1665
 3746TIP3   OH232728   6.272   3.216   2.575 -0.0251 -0.0397 -0.3731
 3746TIP3    H132729   6.361   3.201   2.542 -0.6545  0.5766 -2.4230
 3746TIP3    H232730   6.217   3.159   2.522 -0.8809 -0.4298  0.8959
 3747TIP3   OH232731   5.208   1.747   6.142 -0.3220  0.0685  0.7008
 3747TIP3    H132732   5.266   1.672   6.134 -1.4352 -0.7072 -0.2077
 3747TIP3    H232733   5.175   1.743   6.232 -0.6903 -0.7525  0.5274
 3748TIP3   OH232734   2.111   0.572   5.288 -0.3534 -0.1042 -0.1227
 3748TIP3    H132735   2.117   0.598   5.196  1.7985 -1.3056 -0.3557
 3748TIP3    H232736   2.051   0.497   5.288  0.3983 -0.7202 -0.7078
 3749TIP3   OH232737   4.839   0.583  13.214 -0.4459  0.3781 -0.6124
 3749TIP3    H132738   4.745   0.564  13.211 -0.4768  0.5936 -1.0364
 3749TIP3    H232739   4.880   0.510  13.169 -0.3428 -0.1256  0.2730
 3750TIP3   OH232740   2.816   3.590  14.628  0.0886 -0.1812  0.1943
 3750TIP3    H132741   2.828   3.512  14.573  1.2743 -0.4996  0.8689
 3750TIP3    H232742   2.810   3.555  14.717  0.6303  0.4896  0.4998
 3751TIP3   OH232743   4.691   3.732   4.690 -0.1236 -0.5138 -0.5003
 3751TIP3    H132744   4.628   3.706   4.621 -0.5800  1.7611 -0.9720
 3751TIP3    H232745   4.667   3.822   4.711  2.3041  0.0044  0.1153
 3752TIP3   OH232746   5.424   2.101   0.939  0.5778 -0.0860 -0.3612
 3752TIP3    H132747   5.399   2.193   0.933  0.8033  0.1272  1.7361
 3752TIP3    H232748   5.519   2.101   0.940  0.6034 -0.4402 -1.4488
 3753TIP3   OH232749   4.549   6.409   0.068  0.2106 -0.6719 -0.3036
 3753TIP3    H132750   4.509   6.384   0.152  2.0384  1.3637  1.2428
 3753TIP3    H232751   4.497   6.483   0.038 -0.4357 -1.3918 -0.9985
 3754TIP3   OH232752   5.575   5.406  14.066  0.5287 -0.0003  0.0309
 3754TIP3    H132753   5.483   5.431  14.062  0.8916  1.0603 -2.5032
 3754TIP3    H232754   5.574   5.313  14.087 -1.0762  0.1965  0.8989
 3755TIP3   OH232755   3.897   1.312  11.231  0.4180  0.4385 -0.0919
 3755TIP3    H132756   3.976   1.329  11.180  0.6097 -2.4761 -0.8416
 3755TIP3    H232757   3.845   1.254  11.175 -0.3133 -1.1240  2.1801
 3756TIP3   OH232758   6.156   6.583   1.515  0.1427 -0.4588  0.1837
 3756TIP3    H132759   6.127   6.657   1.568 -1.7540 -1.5937  0.7572
 3756TIP3    H232760   6.231   6.548   1.563  0.0770  0.1314  0.7242
 3757TIP3   OH232761   0.506   1.130  14.155 -0.2522 -0.3595 -0.1326
 3757TIP3    H132762   0.452   1.084  14.219 -2.1991  0.1026 -1.3920
 3757TIP3    H232763   0.456   1.124  14.073  1.8046 -0.2431 -1.4191
 3758TIP3   OH232764   0.578   3.678   5.954  0.3486  0.0365  0.3119
 3758TIP3    H132765   0.594   3.757   5.902  1.1573 -1.0611 -1.1470
 3758TIP3    H232766   0.655   3.623   5.939  0.2517 -0.6183  2.1091
 3759TIP3   OH232767   5.444   3.911  16.107  0.2353  0.6043 -0.3606
 3759TIP3    H132768   5.480   3.999  16.117 -0.5432  0.7563  1.1376
 3759TIP3    H232769   5.386   3.917  16.031  2.0520  0.7668 -1.7606
 3760TIP3   OH232770   4.094   4.417   1.449  0.3733 -0.7575  0.3645
 3760TIP3    H132771   4.100   4.512   1.458  0.4008 -0.5575 -1.6598
 3760TIP3    H232772   4.007   4.395   1.483  0.5069 -0.0540  1.1684
 3761TIP3   OH232773   4.864   5.140  14.055  0.5217 -0.0263  0.0124
 3761TIP3    H132774   4.909   5.178  14.130 -1.2879  2.8403 -0.2814
 3761TIP3    H232775   4.777   5.115  14.089 -0.5092  1.8046 -1.2088
 3762TIP3   OH232776   6.143   3.670   3.048  0.4087 -0.0952 -0.6804
 3762TIP3    H132777   6.187   3.752   3.023  0.8852  0.1015  0.7657
 3762TIP3    H232778   6.057   3.698   3.078  0.5019 -0.1392 -0.3690
 3763TIP3   OH232779   4.307   3.995   6.026  0.1219  0.1774 -0.1708
 3763TIP3    H132780   4.293   3.943   6.106 -2.2759 -0.3120 -0.8682
 3763TIP3    H232781   4.335   3.932   5.960 -1.0513  0.0381 -0.5487
 3764TIP3   OH232782   5.386   0.544   1.600  0.6697 -0.0505 -0.6395
 3764TIP3    H132783   5.299   0.505   1.597  0.2236  0.8321  0.3661
 3764TIP3    H232784   5.372   0.632   1.635  2.0062 -0.0036 -0.1748
 3765TIP3   OH232785   5.614   3.908  14.404 -0.3107 -0.3089  0.0057
 3765TIP3    H132786   5.578   3.989  14.440  0.9870  0.2117  0.1673
 3765TIP3    H232787   5.614   3.847  14.477 -0.1886 -0.0853  0.1933
 3766TIP3   OH232788   5.165   2.236  16.402 -0.0256 -0.6608 -0.5607
 3766TIP3    H132789   5.078   2.269  16.381  0.1819  1.4011  1.5852
 3766TIP3    H232790   5.153   2.180  16.478  0.6426  0.3915  0.3301
 3767TIP3   OH232791   5.809   2.053   1.669  0.3672  0.0718  0.7694
 3767TIP3    H132792   5.807   2.146   1.646 -0.0674 -0.3384 -0.9917
 3767TIP3    H232793   5.717   2.026   1.667  0.6621 -0.9147 -1.1461
 3768TIP3   OH232794   6.310   3.257   5.082 -0.2381 -0.6338  0.0206
 3768TIP3    H132795   6.305   3.353   5.086 -0.1150 -0.6776  1.8495
 3768TIP3    H232796   6.219   3.228   5.093 -0.5607 -0.7083 -2.5594
 3769TIP3   OH232797   6.209   0.680  11.767  1.2466  0.1910  0.3409
 3769TIP3    H132798   6.183   0.601  11.719 -2.7549  0.4191  1.9796
 3769TIP3    H232799   6.223   0.746  11.700 -4.4641  0.5654 -0.7239
 3770TIP3   OH232800   3.395   1.194   7.050  0.4642 -0.0001  0.6764
 3770TIP3    H132801   3.416   1.287   7.047 -1.1391  0.3674  0.3023
 3770TIP3    H232802   3.438   1.158   6.973 -2.8129  1.3161 -1.8961
 3771TIP3   OH232803   3.333   5.657  14.338 -0.5440 -0.3788 -0.4422
 3771TIP3    H132804   3.395   5.708  14.287 -0.8613  0.1117 -0.3526
 3771TIP3    H232805   3.387   5.603  14.396 -0.1319 -2.5160 -2.7469
 3772TIP3   OH232806   0.442   4.905  15.814  0.1594  0.1885 -0.1729
 3772TIP3    H132807   0.404   4.902  15.902 -0.1020 -0.0349 -0.2916
 3772TIP3    H232808   0.482   4.992  15.808 -2.4455  1.4152 -0.9166
 3773TIP3   OH232809   1.540   2.377   1.681  0.3457  0.3539 -0.5920
 3773TIP3    H132810   1.545   2.443   1.749 -0.3928 -0.3334  0.1312
 3773TIP3    H232811   1.631   2.361   1.656  0.5759  1.0210 -0.1845
 3774TIP3   OH232812   5.662   5.809  12.390  0.7295  0.4988  0.2585
 3774TIP3    H132813   5.712   5.791  12.310  0.6986  2.1516 -0.1414
 3774TIP3    H232814   5.679   5.733  12.445  0.9605 -0.5453 -1.2155
 3775TIP3   OH232815   3.298   2.536   5.057 -0.2286  0.6494 -0.1712
 3775TIP3    H132816   3.260   2.449   5.046  0.2941  0.2572  1.0551
 3775TIP3    H232817   3.355   2.547   4.982 -0.4812  0.0294 -0.4587
 3776TIP3   OH232818   5.310   1.492   1.448  0.4752  0.5583  0.1957
 3776TIP3    H132819   5.387   1.543   1.422 -0.3082  1.4380 -0.4212
 3776TIP3    H232820   5.342   1.402   1.453  1.8207  1.0766  1.0897
 3777TIP3   OH232821   0.366   1.968  12.340  0.3455 -0.2702  0.2242
 3777TIP3    H132822   0.448   1.925  12.366  1.5972  2.5602  1.2307
 3777TIP3    H232823   0.313   1.969  12.420  0.9113  1.2476  0.6082
 3778TIP3   OH232824   5.751   5.773  13.548  0.2746 -0.1384  0.3310
 3778TIP3    H132825   5.673   5.810  13.505 -0.3172 -2.1365 -0.3584
 3778TIP3    H232826   5.753   5.815  13.634 -0.7489  0.9933 -0.1712
 3779TIP3   OH232827   6.017   3.010  16.597 -0.3736 -0.4914 -0.2659
 3779TIP3    H132828   5.957   2.972  16.533 -1.0152 -1.1812  0.7166
 3779TIP3    H232829   6.059   2.935  16.639 -0.6565 -0.0911  0.7639
 3780TIP3   OH232830   2.077   4.836  13.699  0.8905  0.1791 -0.1191
 3780TIP3    H132831   2.067   4.803  13.788  1.4331  0.4349  0.0404
 3780TIP3    H232832   2.147   4.782  13.661 -0.0310 -0.6042 -0.7231
 3781TIP3   OH232833   4.235   3.016  15.533  0.7658 -0.0134  0.1959
 3781TIP3    H132834   4.186   2.934  15.526 -1.2446  1.0896  1.0726
 3781TIP3    H232835   4.252   3.042  15.443 -1.4702  0.2963 -0.1438
 3782TIP3   OH232836   6.252   5.331   6.456  0.2685 -0.8674  0.0227
 3782TIP3    H132837   6.255   5.404   6.518  1.6716 -0.6576 -0.2750
 3782TIP3    H232838   6.302   5.361   6.380  1.0658 -2.2120 -0.0107
 3783TIP3   OH232839   4.764   6.173  12.019  0.3481 -0.0518 -0.3253
 3783TIP3    H132840   4.818   6.098  11.997  1.8351  1.1100 -0.6953
 3783TIP3    H232841   4.766   6.228  11.940  0.4784  1.0751  0.4561
 3784TIP3   OH232842   6.381   2.536   4.761 -0.1210 -0.0709  0.0675
 3784TIP3    H132843   6.337   2.471   4.815  0.7158 -0.9307 -0.2671
 3784TIP3    H232844   6.365   2.619   4.805 -1.4174 -0.4669  0.3542
 3785TIP3   OH232845   1.554   2.114   2.536 -0.6037  0.0292 -0.1033
 3785TIP3    H132846   1.623   2.062   2.494 -1.4146 -0.8615 -0.3725
 3785TIP3    H232847   1.507   2.051   2.591 -1.4812  0.5193 -0.2823
 3786TIP3   OH232848   1.281   4.341  16.826 -0.3335  0.3604  0.2585
 3786TIP3    H132849   1.211   4.406  16.821 -0.4939  0.1018 -1.0977
 3786TIP3    H232850   1.236   4.257  16.833 -0.2345  0.0455 -2.2643
 3787TIP3   OH232851   6.315   5.708  14.143  0.0164 -0.1280  0.1678
 3787TIP3    H132852   6.257   5.649  14.190 -0.2877 -0.5831 -0.7507
 3787TIP3    H232853   6.258   5.751  14.079  0.3288  0.8168  0.5246
 3788TIP3   OH232854   1.341   2.584   5.747  0.1038  0.0975 -0.6069
 3788TIP3    H132855   1.291   2.531   5.686 -0.1502 -0.8680  0.4368
 3788TIP3    H232856   1.335   2.538   5.830  1.3080  0.8664 -0.0817
 3789TIP3   OH232857   2.634   3.472   3.734  0.1909 -0.4209  0.4443
 3789TIP3    H132858   2.614   3.490   3.826  0.1626 -1.8197  0.7237
 3789TIP3    H232859   2.664   3.381   3.734  0.6208 -0.2824 -0.8690
 3790TIP3   OH232860   3.663   5.048   0.777 -0.0049 -0.1013  0.6284
 3790TIP3    H132861   3.707   5.101   0.710 -3.1949  1.0043 -0.6943
 3790TIP3    H232862   3.668   5.101   0.857  0.8454  0.0984  0.4504
 3791TIP3   OH232863   2.805   4.493  15.379 -0.2345 -0.3129 -0.4550
 3791TIP3    H132864   2.807   4.449  15.463  0.9038  0.8572  0.1492
 3791TIP3    H232865   2.895   4.487  15.346 -0.1204  1.3257 -0.4740
 3792TIP3   OH232866   1.757   6.746  11.803  0.3704  0.1222 -0.1417
 3792TIP3    H132867   1.793   6.830  11.832  0.2123 -0.1070  0.7242
 3792TIP3    H232868   1.826   6.683  11.821  0.9900  0.2350 -1.9640
 3793TIP3   OH232869   3.283   6.240  15.740 -0.1460 -0.7016  0.0004
 3793TIP3    H132870   3.239   6.274  15.818  0.5617  0.4035 -0.0707
 3793TIP3    H232871   3.253   6.149  15.733 -1.7147 -0.2350  0.4634
 3794TIP3   OH232872   5.428   6.699   4.918  0.1617 -0.0488  0.4088
 3794TIP3    H132873   5.381   6.640   4.977 -0.8018  0.8601  0.5653
 3794TIP3    H232874   5.388   6.785   4.933 -0.2693  0.1446 -1.7541
 3795TIP3   OH232875   0.734   0.654  12.616 -0.1317 -0.1278 -0.7271
 3795TIP3    H132876   0.687   0.602  12.681 -0.0283 -0.0922 -0.6249
 3795TIP3    H232877   0.826   0.646  12.640 -0.1508  0.4878 -0.4320
 3796TIP3   OH232878   1.628   6.158   4.458 -0.1180  0.1431 -0.0475
 3796TIP3    H132879   1.644   6.114   4.375  0.6073 -0.4506  0.4013
 3796TIP3    H232880   1.540   6.130   4.484  0.2726 -0.9161  0.1536
 3797TIP3   OH232881   3.243   2.671   1.872 -0.1011  0.3376  0.1200
 3797TIP3    H132882   3.263   2.581   1.848 -2.5655 -0.3012  0.2476
 3797TIP3    H232883   3.214   2.665   1.963 -2.1927  0.9098 -0.4710
 3798TIP3   OH232884   6.126   5.929   3.355 -0.2832  0.5003  0.1459
 3798TIP3    H132885   6.092   5.938   3.445  0.1701  0.9192  0.2769
 3798TIP3    H232886   6.051   5.900   3.304  0.0080 -2.0813  1.1039
 3799TIP3   OH232887   0.284   5.141   2.961 -0.0103 -0.4566 -0.0658
 3799TIP3    H132888   0.222   5.068   2.957 -2.3794  1.4817  0.0990
 3799TIP3    H232889   0.256   5.201   2.892  1.7582  0.4424 -0.0454
 3800TIP3   OH232890   6.714   6.415   1.889 -0.0945 -0.0330  0.3685
 3800TIP3    H132891   6.631   6.457   1.867 -0.1750 -0.3749 -0.0059
 3800TIP3    H232892   6.781   6.477   1.862 -0.2009 -0.3204 -0.5942
 3801TIP3   OH232893   3.347   4.953  11.951 -0.3647  0.7025  0.0519
 3801TIP3    H132894   3.371   4.861  11.962 -1.6096  0.5774  1.9063
 3801TIP3    H232895   3.253   4.953  11.937 -0.7768  1.8607  2.6267
 3802TIP3   OH232896   4.060   2.237   6.873 -0.4309  0.4759 -0.6580
 3802TIP3    H132897   4.026   2.254   6.785 -0.8136  3.4034 -0.0111
 3802TIP3    H232898   3.983   2.210   6.923 -0.7938  1.6393 -0.5578
 3803TIP3   OH232899   3.467   0.353   5.386  0.0951 -0.3741  0.6408
 3803TIP3    H132900   3.518   0.291   5.439  2.0693  0.7854  0.1482
 3803TIP3    H232901   3.408   0.297   5.335 -0.1944 -1.6500  2.3488
 3804TIP3   OH232902   1.526   1.670  13.923 -0.3647  0.1023  0.5222
 3804TIP3    H132903   1.600   1.653  13.981 -0.2720 -1.8675 -0.1471
 3804TIP3    H232904   1.559   1.733  13.859  0.8129 -0.9417  0.0905
 3805TIP3   OH232905   1.605   2.350  14.308 -0.2018  0.1123 -0.1147
 3805TIP3    H132906   1.606   2.445  14.322 -1.1289  0.0354  0.4746
 3805TIP3    H232907   1.513   2.325  14.316  0.2189 -1.0642  1.2364
 3806TIP3   OH232908   1.458   2.099  15.135  0.6641 -0.1332  0.0177
 3806TIP3    H132909   1.500   2.182  15.158  1.4612 -0.4461 -0.2845
 3806TIP3    H232910   1.527   2.049  15.091  0.1342 -0.8803  0.0298
 3807TIP3   OH232911   5.186   2.794  14.008  0.1082 -0.0901  0.0760
 3807TIP3    H132912   5.201   2.847  14.086 -0.1507 -2.5766  1.9052
 3807TIP3    H232913   5.234   2.713  14.025 -1.9664 -1.6677 -1.2232
 3808TIP3   OH232914   6.570   0.007  12.165  0.4568  0.3890 -0.0936
 3808TIP3    H132915   6.524   0.089  12.181  0.0149  0.1673 -0.2315
 3808TIP3    H232916   6.629  -0.002  12.241  0.1598  0.5897  0.1630
 3809TIP3   OH232917   6.790   6.658  15.226 -0.1953  0.3693 -0.3602
 3809TIP3    H132918   6.851   6.728  15.251 -0.5520  0.6883 -0.3740
 3809TIP3    H232919   6.797   6.654  15.131  0.7952 -0.5052 -0.2533
 3810TIP3   OH232920   2.501   6.439  12.189  0.4227  0.1651  0.1970
 3810TIP3    H132921   2.467   6.387  12.116  1.6263 -1.4302  0.7416
 3810TIP3    H232922   2.517   6.526  12.151  0.2608 -0.4107 -1.2309
 3811TIP3   OH232923   1.985   4.457  15.317  0.2026  0.4578  0.0308
 3811TIP3    H132924   2.014   4.429  15.231  1.0523  0.8822  0.1789
 3811TIP3    H232925   1.893   4.431  15.321  0.0535  0.7952 -1.1474
 3812TIP3   OH232926   6.412   5.576   1.883 -0.1192 -0.0042 -0.1860
 3812TIP3    H132927   6.494   5.566   1.931  0.7456  0.8979 -1.4267
 3812TIP3    H232928   6.436   5.624   1.804 -1.7226 -0.3447 -0.9185
 3813TIP3   OH232929   0.894   3.743  12.236 -0.0459 -0.0173  0.9134
 3813TIP3    H132930   0.936   3.758  12.321 -0.6575 -1.0218  1.4041
 3813TIP3    H232931   0.807   3.782  12.245  0.8360  2.3022 -0.1954
 3814TIP3   OH232932   1.976   2.431  17.160 -0.3885  0.3814 -0.2962
 3814TIP3    H132933   1.931   2.409  17.078  0.3447 -1.8289 -0.1458
 3814TIP3    H232934   1.934   2.512  17.190 -1.8879  0.2324 -1.9104
 3815TIP3   OH232935   2.862   5.768   2.618  0.2851 -0.4404  1.1609
 3815TIP3    H132936   2.787   5.723   2.656 -0.7137  1.3662  1.3596
 3815TIP3    H232937   2.894   5.825   2.688  0.5320  0.3730  0.3898
 3816TIP3   OH232938   5.090   3.900   0.146  0.0351  0.0280 -0.2313
 3816TIP3    H132939   5.118   3.909   0.055 -1.7971 -2.1742 -1.0611
 3816TIP3    H232940   5.128   3.817   0.174 -0.0348  0.3297  0.7644
 3817TIP3   OH232941   3.283   6.644  16.092  0.2777 -0.0768 -0.1482
 3817TIP3    H132942   3.360   6.618  16.041  1.5030  1.6144  0.8164
 3817TIP3    H232943   3.286   6.739  16.093  0.4560 -0.0555  3.3117
 3818TIP3   OH232944   4.090   1.962   3.510  0.5697  0.2500 -0.1049
 3818TIP3    H132945   4.104   2.005   3.426 -1.7934 -0.7569 -1.0646
 3818TIP3    H232946   4.072   2.033   3.571  0.5095  0.8841 -0.8564
 3819TIP3   OH232947   3.309   2.461   1.668  0.7795  0.0958 -0.6735
 3819TIP3    H132948   3.315   2.365   1.671  1.6999  0.1610 -0.3693
 3819TIP3    H232949   3.220   2.478   1.638  0.8386 -0.8712 -1.4421
 3820TIP3   OH232950   2.616   5.070   6.382 -0.4889  0.7200  0.7414
 3820TIP3    H132951   2.657   5.145   6.339 -1.3372  0.6563 -0.1901
 3820TIP3    H232952   2.672   5.053   6.458 -0.5020  2.5248  1.1810
 3821TIP3   OH232953   2.996   3.302   2.765 -0.1091  0.1860  0.1433
 3821TIP3    H132954   3.071   3.247   2.789  0.2727  0.9011  0.6323
 3821TIP3    H232955   3.035   3.385   2.738 -0.6022 -0.2696 -2.0405
 3822TIP3   OH232956   5.554   4.609  15.230  0.3443 -0.2422 -0.0324
 3822TIP3    H132957   5.497   4.676  15.192 -0.0542  0.0148  0.9998
 3822TIP3    H232958   5.582   4.556  15.156 -0.1440  0.4657 -0.7251
 3823TIP3   OH232959   4.645   3.186  16.676  0.2586  0.0612 -0.1156
 3823TIP3    H132960   4.701   3.249  16.723  0.4755 -0.0412 -0.2357
 3823TIP3    H232961   4.655   3.209  16.584 -2.2429  1.9681  0.0482
 3824TIP3   OH232962   2.186   1.208   4.041  0.7501 -0.2064 -0.1694
 3824TIP3    H132963   2.176   1.284   3.984 -0.2958 -1.1502 -1.2904
 3824TIP3    H232964   2.102   1.199   4.085  0.6195 -1.1324 -0.5906
 3825TIP3   OH232965   6.631   5.179  16.554  0.1078  0.5648 -0.3555
 3825TIP3    H132966   6.683   5.227  16.490 -1.3315  0.7959 -1.3713
 3825TIP3    H232967   6.570   5.244  16.589 -0.1737  0.0661  0.0876
 3826TIP3   OH232968   6.468   2.464  17.238  0.2575  0.3364  0.1174
 3826TIP3    H132969   6.508   2.434  17.320 -1.4113  2.0376  1.5796
 3826TIP3    H232970   6.389   2.410  17.229  0.5574 -0.0086 -0.5238
 3827TIP3   OH232971   0.911   1.698   1.254 -0.6648  0.5390 -0.2087
 3827TIP3    H132972   0.907   1.766   1.186 -0.1691  0.7624 -0.0191
 3827TIP3    H232973   0.886   1.743   1.335 -2.1962  0.0457 -0.4015
 3828TIP3   OH232974   1.717   3.802  12.775  0.1480 -0.1600 -0.1111
 3828TIP3    H132975   1.797   3.753  12.791 -1.0423 -1.6603  1.5287
 3828TIP3    H232976   1.725   3.880  12.830  1.2368  0.5566 -1.2890
 3829TIP3   OH232977   6.293   1.909  17.025 -0.2158 -0.2313 -0.4301
 3829TIP3    H132978   6.210   1.863  17.012 -0.4505  0.0394  0.1027
 3829TIP3    H232979   6.356   1.859  16.974 -0.4590 -1.1905  0.2062
 3830TIP3   OH232980   1.465   5.981   1.259 -0.1834  0.1894 -0.1167
 3830TIP3    H132981   1.538   6.035   1.227 -0.4961 -0.4053 -1.8584
 3830TIP3    H232982   1.501   5.938   1.337  1.7558 -1.0143 -1.6165
 3831TIP3   OH232983   1.542   0.796   1.476 -0.7438  0.1404 -0.2909
 3831TIP3    H132984   1.579   0.772   1.392 -0.4810  0.3233 -0.2293
 3831TIP3    H232985   1.603   0.861   1.512 -1.0266  0.3098 -0.1080
 3832TIP3   OH232986   5.826   6.289   5.368 -0.3386  0.3885 -0.1528
 3832TIP3    H132987   5.772   6.360   5.403  0.0744  0.2851  0.7082
 3832TIP3    H232988   5.872   6.255   5.444 -0.6024 -0.8665 -0.5526
 3833TIP3   OH232989   1.448   4.491  15.667  0.3992 -0.6312 -0.3667
 3833TIP3    H132990   1.454   4.557  15.598  0.6909 -0.6455 -0.3584
 3833TIP3    H232991   1.440   4.408  15.620 -0.8500 -0.5188 -0.3689
 3834TIP3   OH232992   3.106   0.173   2.013  0.4543  0.0374 -0.2617
 3834TIP3    H132993   3.170   0.205   2.075 -2.0696 -1.2122  3.1557
 3834TIP3    H232994   3.046   0.246   1.999  0.9256  0.2655 -1.1107
 3835TIP3   OH232995   1.587   0.768  15.745 -0.0664 -0.3075  0.3404
 3835TIP3    H132996   1.668   0.748  15.793 -0.7058  1.1449  2.0546
 3835TIP3    H232997   1.522   0.709  15.783 -0.4848  0.5723  0.9969
 3836TIP3   OH232998   3.428   1.458  11.992  0.5683  0.1072  0.0555
 3836TIP3    H132999   3.428   1.397  12.066 -0.6759  0.6896  0.5437
 3836TIP3    H233000   3.445   1.403  11.916  0.8921 -0.6387  0.6600
 3837TIP3   OH233001   4.050   6.596  12.923 -0.5730 -0.1874  0.0189
 3837TIP3    H133002   4.106   6.674  12.919 -1.1860  0.2226 -0.7722
 3837TIP3    H233003   3.986   6.616  12.992 -1.5307  0.5708 -1.0588
 3838TIP3   OH233004   3.371   0.090  17.039  0.5332 -0.0305  0.0503
 3838TIP3    H133005   3.311   0.084  17.113 -0.6723  0.0659 -0.9027
 3838TIP3    H233006   3.419   0.007  17.040 -0.3419 -0.5355  0.2123
 3839TIP3   OH233007   3.191   2.941   1.355 -0.5360 -0.7224 -0.1270
 3839TIP3    H133008   3.262   2.880   1.334 -0.1806 -0.0759 -0.8371
 3839TIP3    H233009   3.233   3.026   1.361 -0.9159 -0.6386  1.5995
 3840TIP3   OH233010   0.551   4.174   2.370 -0.0042  0.3149  0.3779
 3840TIP3    H133011   0.582   4.132   2.451 -2.3965 -3.2920 -0.4543
 3840TIP3    H233012   0.622   4.158   2.307 -0.6947 -2.2308  0.1893
 3841TIP3   OH233013   6.587   6.474   3.475 -0.6136  0.0667  0.2647
 3841TIP3    H133014   6.642   6.400   3.449 -0.4969 -0.1155  1.0175
 3841TIP3    H233015   6.648   6.547   3.486 -0.8640  0.5514 -1.5243
 3842TIP3   OH233016   4.916   2.253  16.614 -0.4004  0.0281  0.3201
 3842TIP3    H133017   4.911   2.346  16.591 -0.5663 -0.4760 -1.7649
 3842TIP3    H233018   4.853   2.211  16.556 -0.7652 -1.3151  1.6860
 3843TIP3   OH233019   2.010   0.100   1.530 -0.2404  0.2763 -0.0723
 3843TIP3    H133020   2.073   0.171   1.543 -1.0888  0.6665  2.0989
 3843TIP3    H233021   2.021   0.044   1.607 -0.1847 -1.5068 -1.3469
 3844TIP3   OH233022   4.191   5.202  12.952 -0.7212 -0.1690  0.3398
 3844TIP3    H133023   4.197   5.251  13.034 -1.2149  1.3668 -0.5047
 3844TIP3    H233024   4.267   5.144  12.952 -0.7492 -0.2193  1.8994
 3845TIP3   OH233025   4.684   5.348   0.518 -0.1607  0.1575  0.1330
 3845TIP3    H133026   4.613   5.350   0.582  0.2851  0.9050  0.6153
 3845TIP3    H233027   4.657   5.283   0.454 -1.4032  0.6446  0.1632
 3846TIP3   OH233028   6.204   2.325  11.360  0.7554 -0.6045  0.2050
 3846TIP3    H133029   6.231   2.389  11.294  0.1027  0.5575  1.0360
 3846TIP3    H233030   6.260   2.344  11.436 -0.6777  0.2225  1.0915
 3847TIP3   OH233031   0.460   0.276   1.904 -0.2060  0.1118 -0.0868
 3847TIP3    H133032   0.450   0.184   1.928 -0.3495 -0.4938 -2.3166
 3847TIP3    H233033   0.383   0.319   1.941  0.5728 -0.3785  2.1785
 3848TIP3   OH233034   6.048   1.131  11.964  0.0007 -0.1649 -0.0179
 3848TIP3    H133035   6.120   1.174  11.918  0.4979 -0.5436  0.3992
 3848TIP3    H233036   6.091   1.068  12.022 -0.6962 -0.9346 -0.3199
 3849TIP3   OH233037   1.822   5.588   3.731 -0.3850  0.1847  0.2329
 3849TIP3    H133038   1.901   5.571   3.681 -1.2605  0.0535 -1.1348
 3849TIP3    H233039   1.783   5.502   3.745 -1.5080  0.4571 -1.1537
 3850TIP3   OH233040   4.110   6.504  11.805 -0.1591  0.0440  0.2201
 3850TIP3    H133041   4.114   6.563  11.730 -2.5387  0.0702  0.0625
 3850TIP3    H233042   4.107   6.416  11.766 -0.5062  0.0151  0.3094
 3851TIP3   OH233043   0.937   3.320   3.881 -0.2668  0.1831 -0.3488
 3851TIP3    H133044   0.994   3.294   3.808  2.0373  3.5195  0.1169
 3851TIP3    H233045   0.864   3.364   3.839  0.0390  0.3116 -0.7514
 3852TIP3   OH233046   4.632   4.407   3.069  0.2854  0.2205  0.4521
 3852TIP3    H133047   4.649   4.427   2.977  0.1134 -1.8539 -0.0467
 3852TIP3    H233048   4.676   4.324   3.084 -2.8110 -1.3570  1.2174
 3853TIP3   OH233049   6.734   4.322   2.642 -0.3649 -0.6859 -0.0976
 3853TIP3    H133050   6.712   4.413   2.623 -0.0147 -0.0553  2.4405
 3853TIP3    H233051   6.650   4.280   2.659 -0.5190 -0.8600 -1.1944
 3854TIP3   OH233052   5.992   6.281   2.179 -0.6077  0.0382 -0.1416
 3854TIP3    H133053   6.053   6.212   2.204  0.3114  1.0026  0.3183
 3854TIP3    H233054   5.940   6.297   2.258 -0.1325  0.5729  0.0686
 3855TIP3   OH233055   2.530   0.883   3.562 -0.1112  0.0023 -0.5979
 3855TIP3    H133056   2.540   0.900   3.656  1.3364 -0.9940 -0.5456
 3855TIP3    H233057   2.465   0.946   3.532  0.7033  1.5131  0.7450
 3856TIP3   OH233058   1.642   4.465   3.275 -0.2160 -0.4234  0.0575
 3856TIP3    H133059   1.711   4.477   3.210 -1.0357  0.7702 -0.6025
 3856TIP3    H233060   1.682   4.492   3.358  0.0013  0.6180 -0.3821
 3857TIP3   OH233061   1.924   0.361  11.522 -0.0199 -0.2956 -0.4811
 3857TIP3    H133062   1.989   0.322  11.580  0.0044  1.4841  0.7645
 3857TIP3    H233063   1.878   0.287  11.483  1.2558 -1.5488  0.3492
 3858TIP3   OH233064   1.085   3.262   3.165  0.3996  0.2521 -0.1711
 3858TIP3    H133065   1.161   3.253   3.223  0.3727  1.4448  0.0601
 3858TIP3    H233066   1.011   3.278   3.224 -0.2082 -1.7712 -0.3332
 3859TIP3   OH233067   6.564   1.644  10.854 -0.0510  0.0221  0.0565
 3859TIP3    H133068   6.610   1.629  10.771 -0.9668 -1.4138 -0.1980
 3859TIP3    H233069   6.479   1.680  10.828 -0.7434 -1.4003  0.3072
 3860TIP3   OH233070   4.370   6.696   5.330  0.2160  0.2347 -0.3601
 3860TIP3    H133071   4.409   6.709   5.243 -0.7056  0.9551 -0.6860
 3860TIP3    H233072   4.348   6.603   5.333 -0.3793  0.3370 -1.1915
 3861TIP3   OH233073   3.153   1.998  17.244 -0.1969  0.0834 -0.2468
 3861TIP3    H133074   3.081   2.053  17.213  0.0238  0.5146 -0.0022
 3861TIP3    H233075   3.215   1.997  17.171 -0.2862  0.0053 -0.3188
 3862TIP3   OH233076   4.328   1.169   0.692  0.3400  0.1471 -0.0548
 3862TIP3    H133077   4.240   1.184   0.659 -0.3646 -2.5555  0.4405
 3862TIP3    H233078   4.318   1.169   0.787  0.9955  0.4203  0.0166
 3863TIP3   OH233079   1.652   5.292   4.316 -0.2610  0.1019 -0.2779
 3863TIP3    H133080   1.642   5.220   4.379 -0.2480  0.0800 -0.3008
 3863TIP3    H233081   1.713   5.258   4.250 -1.2412 -0.3276 -0.9728
 3864TIP3   OH233082   4.767   1.805   4.182  1.7673 -0.1754 -0.0009
 3864TIP3    H133083   4.768   1.751   4.261  3.4695 -2.3474 -1.4754
 3864TIP3    H233084   4.792   1.892   4.213  0.7785 -0.5907  2.0987
 3865TIP3   OH233085   3.094   4.683   4.448 -0.5116  0.0534 -0.2307
 3865TIP3    H133086   3.085   4.770   4.410 -2.0875  0.0931  0.1701
 3865TIP3    H233087   3.116   4.699   4.540  0.4102  0.0006 -0.4364
 3866TIP3   OH233088   4.568   2.542  12.135  0.3179 -0.3002 -0.6560
 3866TIP3    H133089   4.577   2.448  12.147 -1.4375 -0.2109  1.6511
 3866TIP3    H233090   4.658   2.575  12.131  0.9757 -1.7504  1.4005
 3867TIP3   OH233091   6.504   2.096  14.517 -0.5775 -0.2753 -0.2267
 3867TIP3    H133092   6.533   2.152  14.589  0.9371 -0.8452 -0.3598
 3867TIP3    H233093   6.490   2.010  14.557  0.0439 -0.5365 -0.5558
 3868TIP3   OH233094   0.204   4.181  16.416 -0.2189 -0.4890  0.8654
 3868TIP3    H133095   0.178   4.101  16.461 -0.4458 -0.2040  1.2381
 3868TIP3    H233096   0.296   4.166  16.392 -0.3656 -1.0003  0.6248
 3869TIP3   OH233097   1.091   0.880   2.310 -0.5063 -0.1190  0.0317
 3869TIP3    H133098   1.183   0.875   2.287  0.1139  0.2901  2.3021
 3869TIP3    H233099   1.050   0.927   2.237  1.4197  1.5033 -0.0304
 3870TIP3   OH233100   1.633   6.306   6.332  0.2624 -0.2938 -0.1126
 3870TIP3    H133101   1.607   6.264   6.250  0.0977  0.2705 -0.3535
 3870TIP3    H233102   1.708   6.360   6.309  0.6924 -0.7166  0.2691
 3871TIP3   OH233103   4.499   0.730  12.893 -0.1254  0.1975 -0.1556
 3871TIP3    H133104   4.453   0.728  12.809 -1.0266  0.2861  0.3341
 3871TIP3    H233105   4.446   0.676  12.951  0.4040  0.2767  0.4085
 3872TIP3   OH233106   3.573   2.728   6.190 -0.6658  0.0500 -0.4736
 3872TIP3    H133107   3.504   2.752   6.251 -1.2043 -1.0773 -0.6223
 3872TIP3    H233108   3.638   2.682   6.243 -2.1427 -2.8241 -1.0964
 3873TIP3   OH233109   4.542   2.576  11.193 -0.1407 -0.2058  0.0883
 3873TIP3    H133110   4.505   2.585  11.105 -0.2238  1.9222  0.2978
 3873TIP3    H233111   4.622   2.526  11.180 -1.0742 -1.4746 -0.9313
 3874TIP3   OH233112   2.715   2.932  11.594  0.0730  0.6812  0.3262
 3874TIP3    H133113   2.661   2.990  11.540  0.8707  0.5913 -0.5716
 3874TIP3    H233114   2.788   2.906  11.538  1.6479  1.6510  1.8665
 3875TIP3   OH233115   1.970   0.211   6.003 -0.2328  0.3606 -0.3244
 3875TIP3    H133116   1.966   0.162   6.084 -1.4213 -0.8913 -1.1130
 3875TIP3    H233117   1.903   0.280   6.013  0.2852  0.8015  0.1258
 3876TIP3   OH233118   0.287   0.738   5.601  0.0630  0.4092 -0.2151
 3876TIP3    H133119   0.363   0.786   5.569  1.3269 -2.0808 -1.0725
 3876TIP3    H233120   0.258   0.687   5.525 -3.5607  2.6037 -0.4092
 3877TIP3   OH233121   4.058   2.261   2.262  0.5744  0.5484  0.0798
 3877TIP3    H133122   4.038   2.172   2.288  0.8825  0.8993  1.5355
 3877TIP3    H233123   4.062   2.257   2.166 -0.8635 -0.6725  0.0504
 3878TIP3   OH233124   4.855   6.469   1.880 -0.1975  0.7435 -0.0128
 3878TIP3    H133125   4.906   6.456   1.800 -0.6413  1.1100 -0.3586
 3878TIP3    H233126   4.764   6.474   1.851 -0.1933  3.0375  0.2563
 3879TIP3   OH233127   4.807   4.386  14.023  0.2153  0.1535  0.1484
 3879TIP3    H133128   4.897   4.419  14.025 -0.0161  1.2355 -3.3015
 3879TIP3    H233129   4.811   4.307  13.968 -0.9941  0.5159 -0.4998
 3880TIP3   OH233130   5.355   3.120  11.730  0.4467  0.8364  0.1350
 3880TIP3    H133131   5.379   3.208  11.762 -2.0169  0.7527  2.3310
 3880TIP3    H233132   5.398   3.060  11.792 -0.7361  0.5850  0.7261
 3881TIP3   OH233133   5.069   4.086   3.940  0.8244 -0.0671  0.0772
 3881TIP3    H133134   5.120   4.065   3.862 -1.4648 -0.2631 -1.3914
 3881TIP3    H233135   5.108   4.168   3.972  1.3935  0.3552 -1.6126
 3882TIP3   OH233136   2.088   3.835  12.824 -0.2950  0.3428 -0.1069
 3882TIP3    H133137   2.112   3.865  12.736  1.0859  0.1852  0.2104
 3882TIP3    H233138   2.045   3.751  12.810  0.0073  0.2753 -0.6316
 3883TIP3   OH233139   5.331   5.837  13.229 -0.4514  0.3409 -0.0431
 3883TIP3    H133140   5.252   5.816  13.278  0.9520 -1.0031  1.6982
 3883TIP3    H233141   5.322   5.788  13.147 -1.2349 -0.1281  0.3146
 3884TIP3   OH233142   4.687   5.546   5.216  0.5976  0.0154 -0.6297
 3884TIP3    H133143   4.684   5.638   5.241  2.0556  0.5817 -2.4851
 3884TIP3    H233144   4.625   5.538   5.144  0.9646 -0.3216 -0.9106
 3885TIP3   OH233145   5.509   2.002  13.685 -0.1016  0.0457 -0.3773
 3885TIP3    H133146   5.430   1.949  13.694  0.1333 -0.1116  0.9255
 3885TIP3    H233147   5.546   1.976  13.600 -0.2204 -1.5695  0.0363
 3886TIP3   OH233148   0.345   2.721   4.191 -0.5704  0.5060 -0.5744
 3886TIP3    H133149   0.318   2.805   4.228 -0.6711  1.2039 -2.1533
 3886TIP3    H233150   0.441   2.724   4.193 -0.5769  0.5130 -0.3023
 3887TIP3   OH233151   0.561   5.256  10.964  0.1592 -0.2853  0.5167
 3887TIP3    H133152   0.529   5.311  10.892 -0.1435  0.8486  1.5026
 3887TIP3    H233153   0.566   5.168  10.927  2.1714  0.6669 -1.5517
 3888TIP3   OH233154   4.335   0.804  15.950  0.6220 -0.3328 -0.6909
 3888TIP3    H133155   4.305   0.871  15.888  0.2800 -0.6199 -0.8376
 3888TIP3    H233156   4.391   0.852  16.011  2.2632 -0.3340 -2.1544
 3889TIP3   OH233157   2.634   1.730  15.026  1.0125 -0.1603  0.0318
 3889TIP3    H133158   2.588   1.658  14.985  1.8980 -1.3775  1.1376
 3889TIP3    H233159   2.601   1.808  14.982  0.0713 -1.2357 -1.1924
 3890TIP3   OH233160   1.404   1.576  12.895  0.2306 -0.4745  0.0451
 3890TIP3    H133161   1.447   1.662  12.891 -0.4814 -0.1383 -0.3944
 3890TIP3    H233162   1.450   1.524  12.829 -0.6389  0.1618 -1.0780
 3891TIP3   OH233163   6.155   6.808  11.759 -0.0578 -0.0589  0.2687
 3891TIP3    H133164   6.060   6.800  11.745 -0.0220  0.9648 -0.5717
 3891TIP3    H233165   6.163   6.871  11.830  0.0354  0.7781 -0.4838
 3892TIP3   OH233166   2.210   6.181   6.844 -0.1741 -0.0426 -0.0862
 3892TIP3    H133167   2.193   6.117   6.774 -1.4638  2.0780 -1.7892
 3892TIP3    H233168   2.123   6.205   6.875  0.3119  0.7355  0.6699
 3893TIP3   OH233169   1.133   0.360  15.155  0.0318 -0.1809  0.3481
 3893TIP3    H133170   1.127   0.313  15.238  1.7612 -0.1453  0.5083
 3893TIP3    H233171   1.050   0.341  15.111 -0.6221 -0.7466  1.7903
 3894TIP3   OH233172   4.989   6.221   3.755 -0.6689 -0.2795  0.3320
 3894TIP3    H133173   5.016   6.291   3.696  0.2348 -0.6644  0.2791
 3894TIP3    H233174   5.048   6.229   3.830  0.5377 -2.0186 -0.4165
 3895TIP3   OH233175   1.234   6.277  16.099 -0.1832 -0.2673 -0.0009
 3895TIP3    H133176   1.301   6.292  16.166  0.2488  1.7473 -0.8521
 3895TIP3    H233177   1.166   6.225  16.144  0.4019  0.4989  1.7989
 3896TIP3   OH233178   0.291   1.498  12.414 -0.2615 -0.3209 -0.2332
 3896TIP3    H133179   0.380   1.488  12.448  0.3402 -0.2604 -1.7680
 3896TIP3    H233180   0.301   1.548  12.333 -1.6307 -0.7604 -0.6947
 3897TIP3   OH233181   6.492   0.540  16.039  0.2815  0.0144  0.3919
 3897TIP3    H133182   6.415   0.497  16.000 -0.2472  0.2087  1.2015
 3897TIP3    H233183   6.535   0.471  16.090 -1.1426  0.6534  2.5394
 3898TIP3   OH233184   6.018   4.805  13.678  0.0036 -0.2164  0.4842
 3898TIP3    H133185   6.038   4.755  13.757  2.5478 -1.3790 -0.8519
 3898TIP3    H233186   5.985   4.740  13.616  1.5884  0.0167 -0.6466
 3899TIP3   OH233187   5.272   3.589  11.491 -0.3219  0.3772  0.7483
 3899TIP3    H133188   5.314   3.645  11.557  0.6005 -0.2830  0.7341
 3899TIP3    H233189   5.230   3.520  11.541  0.3360 -0.0961  0.6595
 3900TIP3   OH233190   0.339   6.636  10.966  0.3428 -0.2089 -0.0436
 3900TIP3    H133191   0.401   6.700  10.931 -0.4327  0.9587  0.7085
 3900TIP3    H233192   0.368   6.553  10.927  3.8509 -0.1160  2.1073
 3901TIP3   OH233193   1.369   5.870  16.265  0.3460 -0.5738 -0.0871
 3901TIP3    H133194   1.442   5.908  16.313  1.0990 -1.1382 -0.7770
 3901TIP3    H233195   1.294   5.878  16.324  0.8934  0.3184  0.4874
 3902TIP3   OH233196   2.909   1.991   5.230  0.2397 -0.6170 -0.1872
 3902TIP3    H133197   2.913   1.897   5.248  0.3628 -0.6561 -0.4103
 3902TIP3    H233198   2.948   2.032   5.307 -0.6428 -0.7066  0.3036
 3903TIP3   OH233199   4.757   3.262  15.719 -0.4884  1.0452 -0.3788
 3903TIP3    H133200   4.747   3.251  15.624 -0.6540  0.1509 -0.2678
 3903TIP3    H233201   4.697   3.197  15.756  2.2980 -1.2337  0.3217
 3904TIP3   OH233202   4.094   5.520   2.964 -0.7468  0.1575 -0.3251
 3904TIP3    H133203   4.139   5.441   2.931 -0.2011 -0.1669  1.1703
 3904TIP3    H233204   4.062   5.564   2.885  1.6092  0.0241 -1.3943
 3905TIP3   OH233205   5.981   5.586  10.972 -0.2067 -0.0474  0.2934
 3905TIP3    H133206   5.994   5.663  10.916 -1.4304  0.0941  0.1870
 3905TIP3    H233207   6.027   5.516  10.928 -0.1258  0.3477 -0.2594
 3906TIP3   OH233208   1.520   1.294  12.794 -0.0204 -0.1196  0.0873
 3906TIP3    H133209   1.534   1.199  12.794  0.0633 -0.1060  0.5853
 3906TIP3    H233210   1.589   1.329  12.737  0.4033 -0.2863  0.5027
 3907TIP3   OH233211   0.515   6.204  17.033 -0.1643 -0.7589  0.4905
 3907TIP3    H133212   0.570   6.282  17.028  0.4577 -1.2557 -0.6663
 3907TIP3    H233213   0.544   6.149  16.960 -0.6305 -2.0545  1.2557
 3908TIP3   OH233214   6.247   2.483   2.594 -0.2754 -0.4061 -0.0947
 3908TIP3    H133215   6.159   2.465   2.627 -1.3349  0.5994 -2.3031
 3908TIP3    H233216   6.261   2.417   2.525 -0.0608  0.6113 -1.0415
 3909TIP3   OH233217   6.562   1.316   2.518  0.7991  0.9114  0.6236
 3909TIP3    H133218   6.477   1.307   2.474  1.0364  2.6502 -0.2662
 3909TIP3    H233219   6.542   1.362   2.599  0.6155 -0.6252  1.4695
 3910TIP3   OH233220   3.138   5.641   2.265 -0.6937 -0.1142  0.0587
 3910TIP3    H133221   3.047   5.634   2.292 -0.2061  0.8253  2.0384
 3910TIP3    H233222   3.135   5.687   2.181 -2.1484 -1.7854 -0.8197
 3911TIP3   OH233223   3.300   4.623   4.842  0.4531 -0.4311 -0.5838
 3911TIP3    H133224   3.297   4.662   4.929 -1.0855  2.1691 -1.7574
 3911TIP3    H233225   3.379   4.659   4.802 -0.0576  0.1725 -1.0596
 3912TIP3   OH233226   0.147   3.861   1.448 -0.2400 -0.0166  0.5680
 3912TIP3    H133227   0.196   3.877   1.367  1.0393 -0.8583  1.1442
 3912TIP3    H233228   0.171   3.934   1.505 -2.4896  1.5023 -0.3991
 3913TIP3   OH233229   5.808   0.931   5.675 -0.2273 -0.4201  0.7544
 3913TIP3    H133230   5.845   0.997   5.733 -1.8166  0.5317  0.7185
 3913TIP3    H233231   5.774   0.864   5.734 -1.1178  0.1549  0.8968
 3914TIP3   OH233232   4.258   2.451   1.239 -0.3551  0.8560 -0.0181
 3914TIP3    H133233   4.333   2.478   1.187 -1.0397 -0.1595 -1.5474
 3914TIP3    H233234   4.293   2.443   1.328  1.6946 -0.9297 -0.9363
 3915TIP3   OH233235   4.853   3.547  15.439  0.3416  0.2163  0.3517
 3915TIP3    H133236   4.851   3.456  15.468 -0.8150  0.0443 -0.2094
 3915TIP3    H233237   4.799   3.593  15.502  0.3079  0.3753  0.2065
 3916TIP3   OH233238   5.146   0.217   2.442  0.2310  0.0463  0.2956
 3916TIP3    H133239   5.066   0.165   2.447 -1.0585  1.9560 -0.0917
 3916TIP3    H233240   5.192   0.182   2.365 -0.9383 -0.0919 -0.3590
 3917TIP3   OH233241   4.323   0.068  13.774  0.3290 -0.4684  0.4448
 3917TIP3    H133242   4.294   0.095  13.861  1.8319 -1.0323  1.1367
 3917TIP3    H233243   4.293   0.138  13.716 -0.6956 -0.0956  1.4091
 3918TIP3   OH233244   5.652   6.760   1.499 -0.2348 -0.1316  0.0312
 3918TIP3    H133245   5.667   6.829   1.434  1.4694  1.8436  2.4465
 3918TIP3    H233246   5.716   6.693   1.479 -1.1671 -0.5480 -1.6503
 3919TIP3   OH233247   5.790   3.026   5.890  0.2677 -0.3139 -0.8122
 3919TIP3    H133248   5.864   3.087   5.897 -0.6853  0.6896  0.7855
 3919TIP3    H233249   5.713   3.080   5.905 -0.7115 -1.6060 -1.1365
 3920TIP3   OH233250   0.634   5.139   2.908  0.8061 -0.0350 -0.0929
 3920TIP3    H133251   0.570   5.080   2.947  2.1050 -1.1686  0.3753
 3920TIP3    H233252   0.633   5.217   2.964 -1.8931  0.9851 -1.4891
 3921TIP3   OH233253   1.683   4.353   4.749 -0.4764  0.4843  0.3750
 3921TIP3    H133254   1.667   4.351   4.843 -0.6297  0.9480  0.3609
 3921TIP3    H233255   1.598   4.375   4.711 -0.3432  0.6170  0.1522
 3922TIP3   OH233256   4.211   0.460   6.101  0.3327 -0.3459  0.0316
 3922TIP3    H133257   4.156   0.448   6.178 -0.2669 -2.0042 -0.6391
 3922TIP3    H233258   4.165   0.526   6.049  0.3372  0.1969  0.7115
 3923TIP3   OH233259   0.859   4.870  13.604  0.0103  0.3977  0.1848
 3923TIP3    H133260   0.869   4.786  13.649 -1.1615 -0.7334 -1.6278
 3923TIP3    H233261   0.784   4.911  13.646 -1.4870 -0.9455 -1.1505
 3924TIP3   OH233262   5.261   3.068  12.404  0.1043  0.2029  0.3979
 3924TIP3    H133263   5.343   3.104  12.437 -0.7405  2.7885 -0.1721
 3924TIP3    H233264   5.194   3.131  12.433 -1.7384 -1.9791  1.0842
 3925TIP3   OH233265   5.554   2.192   3.361 -0.2401  0.3034  0.5200
 3925TIP3    H133266   5.623   2.220   3.301 -1.4643  1.1381 -0.5435
 3925TIP3    H233267   5.570   2.241   3.441  1.4790 -0.9097  0.9366
 3926TIP3   OH233268   6.178   3.024  12.516 -0.2403 -0.0149  0.1171
 3926TIP3    H133269   6.177   3.092  12.448 -0.7527 -0.2140 -0.0761
 3926TIP3    H233270   6.268   3.024  12.548 -0.7665  2.3418  1.7112
 3927TIP3   OH233271   6.731   4.963  16.389 -0.1231 -0.0228 -0.0142
 3927TIP3    H133272   6.720   5.014  16.469 -2.8888 -0.7327  0.1153
 3927TIP3    H233273   6.788   5.016  16.334 -1.7853  2.5561  0.6844
 3928TIP3   OH233274   5.543   1.932   3.444 -0.0250 -0.3188 -0.5188
 3928TIP3    H133275   5.505   1.987   3.375  0.2374  0.5214 -0.0020
 3928TIP3    H233276   5.534   1.984   3.524  0.7265 -0.8038 -0.1160
 3929TIP3   OH233277   2.918   1.855  12.236 -0.1882  0.6214  0.1034
 3929TIP3    H133278   2.917   1.857  12.332  1.4510  0.0934  0.1432
 3929TIP3    H233279   2.910   1.946  12.209 -0.7105  0.7651  0.7353
 3930TIP3   OH233280   5.977   6.608   4.870 -0.2104  0.1137  0.0003
 3930TIP3    H133281   5.936   6.691   4.896  1.0429  0.8016 -0.1531
 3930TIP3    H233282   5.916   6.540   4.899 -0.6573  1.0400  1.2571
 3931TIP3   OH233283   6.758   0.604   3.533 -0.1989 -0.6190  0.1896
 3931TIP3    H133284   6.803   0.631   3.453 -0.7936 -1.9300 -0.5983
 3931TIP3    H233285   6.783   0.670   3.598 -1.2155  1.5359 -1.5534
 3932TIP3   OH233286   2.938   6.039  12.774  0.1448 -0.4405 -0.2763
 3932TIP3    H133287   2.974   6.105  12.833 -1.8170  1.1843 -0.8254
 3932TIP3    H233288   2.969   5.956  12.809  3.3011  0.7920 -0.0073
 3933TIP3   OH233289   6.704   4.396  12.243  0.3288  0.0246  0.0108
 3933TIP3    H133290   6.657   4.335  12.301  0.5099 -1.3682 -1.2714
 3933TIP3    H233291   6.665   4.381  12.157  2.2521 -0.2240 -0.8279
 3934TIP3   OH233292   0.798   6.057  14.355 -0.1570  0.7845 -0.7173
 3934TIP3    H133293   0.852   6.093  14.286  0.6404 -0.4294 -0.7446
 3934TIP3    H233294   0.715   6.105  14.348  0.2010  1.2426 -1.9717
 3935TIP3   OH233295   0.350   2.839  12.214 -0.1823 -0.6810 -0.0094
 3935TIP3    H133296   0.319   2.928  12.197  1.8421  0.4487  1.7982
 3935TIP3    H233297   0.288   2.782  12.169 -1.8399  1.6297 -0.7380
 3936TIP3   OH233298   0.031   4.183   3.282  0.3614 -0.2740 -0.1085
 3936TIP3    H133299   0.105   4.237   3.309  0.9320 -0.8228 -0.5745
 3936TIP3    H233300  -0.016   4.236   3.218  0.4593 -0.0067  0.0407
 3937TIP3   OH233301   2.416   0.446  12.070  0.3020  0.3206  0.3671
 3937TIP3    H133302   2.470   0.505  12.018 -0.3139  0.6619  0.1011
 3937TIP3    H233303   2.363   0.398  12.005  1.4856 -1.2321  0.5205
 3938TIP3   OH233304   6.025   0.774   5.619 -0.5875 -0.3000 -0.1789
 3938TIP3    H133305   5.996   0.689   5.653  0.1995 -0.7154 -0.5554
 3938TIP3    H233306   5.945   0.827   5.617 -0.6066 -0.1308  2.6783
 3939TIP3   OH233307   1.453   4.220  15.157  0.2067  0.4527  0.2635
 3939TIP3    H133308   1.529   4.241  15.103  0.3982  1.7797  1.0193
 3939TIP3    H233309   1.378   4.240  15.101  0.4093  0.9893  0.1795
 3940TIP3   OH233310   3.932   6.561   0.725 -0.3347  0.3075  0.1247
 3940TIP3    H133311   3.841   6.556   0.695 -0.2643 -1.4838  0.1432
 3940TIP3    H233312   3.984   6.535   0.648  0.2295  2.3175 -0.1933
 3941TIP3   OH233313   5.659   3.548  12.730 -0.1585 -0.0500  0.0622
 3941TIP3    H133314   5.734   3.498  12.764  0.6584  1.0811 -0.0448
 3941TIP3    H233315   5.655   3.525  12.637  0.9024  0.9066 -0.2344
 3942TIP3   OH233316   6.331   6.729   0.276  0.0583 -0.6385 -0.2772
 3942TIP3    H133317   6.378   6.702   0.354  0.6660 -0.2912 -0.5225
 3942TIP3    H233318   6.292   6.813   0.298  2.8334  1.0145 -1.3555
 3943TIP3   OH233319   0.089   1.530  16.417  0.4326  0.1653 -0.4920
 3943TIP3    H133320   0.027   1.463  16.449  0.9513  0.3373  0.8822
 3943TIP3    H233321   0.057   1.550  16.329 -1.2967  0.0234  0.0718
 3944TIP3   OH233322   0.788   2.224  17.186  0.1606 -0.2268 -0.1081
 3944TIP3    H133323   0.722   2.197  17.122 -0.1987  0.3653  0.0088
 3944TIP3    H233324   0.787   2.155  17.252 -0.7783  0.0768  0.2076
 3945TIP3   OH233325   2.345   6.635   0.662 -0.5160  0.0946 -0.3476
 3945TIP3    H133326   2.360   6.729   0.647  0.2334  0.3535  1.7930
 3945TIP3    H233327   2.276   6.631   0.727 -0.3641 -0.8310 -0.2287
 3946TIP3   OH233328   4.805   5.949  14.562 -0.1668  0.5151  0.0904
 3946TIP3    H133329   4.806   6.037  14.600  0.3632  0.9636 -0.9432
 3946TIP3    H233330   4.879   5.948  14.502  1.2966 -1.4485  1.8822
 3947TIP3   OH233331   3.887   5.002  14.439  0.7978 -0.3837  0.1819
 3947TIP3    H133332   3.905   5.093  14.464 -0.1247 -0.3779  0.8465
 3947TIP3    H233333   3.945   4.951  14.495  1.1526 -0.2138 -0.0299
 3948TIP3   OH233334   1.066   5.115   0.878  0.1149 -0.1985  0.0478
 3948TIP3    H133335   1.114   5.104   0.796  1.2963 -0.4228  0.7512
 3948TIP3    H233336   1.115   5.183   0.925 -0.5831 -0.0356  0.5368
 3949TIP3   OH233337   2.900   2.484   2.264 -0.0886  0.4925 -0.1266
 3949TIP3    H133338   2.937   2.572   2.275  3.4020 -0.7722 -1.1790
 3949TIP3    H233339   2.897   2.447   2.352 -1.9601  1.7684  0.3758
 3950TIP3   OH233340   3.531   4.403  11.761 -0.6306  0.4326 -0.9829
 3950TIP3    H133341   3.468   4.358  11.818 -0.8101  1.6501 -0.1940
 3950TIP3    H233342   3.588   4.334  11.729  0.0197 -0.1716  1.3833
 3951TIP3   OH233343   6.170   3.813  15.094 -0.0285  0.4540  0.6834
 3951TIP3    H133344   6.218   3.784  15.172  1.7793 -1.0520 -0.9490
 3951TIP3    H233345   6.102   3.748  15.082 -0.1430  0.5436  0.8355
 3952TIP3   OH233346   3.991   5.807  15.361  0.3017 -0.0632 -0.4790
 3952TIP3    H133347   3.999   5.829  15.268 -1.2532  2.1615 -0.1124
 3952TIP3    H233348   3.984   5.711  15.362  2.4847 -0.2840 -2.4641
 3953TIP3   OH233349   1.875   3.699  10.779 -0.1663 -0.3528  0.8461
 3953TIP3    H133350   1.787   3.714  10.812  0.2568 -1.2259  2.4219
 3953TIP3    H233351   1.887   3.604  10.783 -0.2020 -0.5294 -2.1441
 3954TIP3   OH233352   6.476   1.420  12.420  0.1033  0.1128  0.0506
 3954TIP3    H133353   6.396   1.381  12.383  0.6472  0.1711 -1.2110
 3954TIP3    H233354   6.529   1.442  12.344  1.0601  0.6584  0.8667
 3955TIP3   OH233355   2.859   1.371  16.876  0.1068  0.3956  0.1867
 3955TIP3    H133356   2.904   1.338  16.797  1.7414  0.0131  1.2482
 3955TIP3    H233357   2.908   1.451  16.899 -1.9766  1.9639 -0.6507
 3956TIP3   OH233358   3.637   5.445  13.789 -0.0447 -0.2535 -0.1419
 3956TIP3    H133359   3.625   5.455  13.883  0.4351  1.5507 -0.2515
 3956TIP3    H233360   3.550   5.460  13.752  0.2569  1.5885 -0.1490
 3957TIP3   OH233361   4.949   2.474  12.381  0.7294  0.4287 -0.1676
 3957TIP3    H133362   4.860   2.438  12.378  1.0686 -0.5615  1.5240
 3957TIP3    H233363   4.946   2.540  12.450  1.1885  0.7563 -0.4583
 3958TIP3   OH233364   3.607   5.205  16.780 -0.3619  0.0879  0.4793
 3958TIP3    H133365   3.691   5.161  16.767  0.6713  2.4987 -1.2976
 3958TIP3    H233366   3.549   5.167  16.714  0.1549  0.4910 -0.2030
 3959TIP3   OH233367   5.608   5.683  15.373  0.7492  0.4855  0.2286
 3959TIP3    H133368   5.582   5.754  15.432  0.2169  0.0550  0.5197
 3959TIP3    H233369   5.682   5.641  15.417 -0.1115 -0.2966  0.9623
 3960TIP3   OH233370   3.903   0.782  13.688 -0.3368 -0.0882  0.2965
 3960TIP3    H133371   3.924   0.699  13.646  1.5335  1.4306 -1.9457
 3960TIP3    H233372   3.896   0.762  13.781  0.0684 -2.7441 -0.2165
 3961TIP3   OH233373   5.439   2.919   5.248 -0.0036  0.3519  0.8069
 3961TIP3    H133374   5.357   2.918   5.200 -0.0440 -0.9842  0.8728
 3961TIP3    H233375   5.450   3.010   5.277 -0.6120  0.8808 -0.6180
 3962TIP3   OH233376   3.342   0.319  16.059 -1.3403  0.5769 -1.0543
 3962TIP3    H133377   3.426   0.355  16.030 -2.2926  3.3542 -0.4648
 3962TIP3    H233378   3.342   0.331  16.154 -2.2228  0.1719 -1.0019
 3963TIP3   OH233379   6.375   2.783  15.427 -0.5840  0.0468  0.1273
 3963TIP3    H133380   6.340   2.725  15.495 -4.6710 -0.2511 -2.1099
 3963TIP3    H233381   6.306   2.847  15.412  2.1656  2.9838 -0.4862
 3964TIP3   OH233382   1.083   6.320   3.888  0.0713  0.2150 -0.0264
 3964TIP3    H133383   1.070   6.327   3.793 -0.3436  1.2867  0.1122
 3964TIP3    H233384   1.166   6.272   3.896  0.5363  0.8397 -0.9407
 3965TIP3   OH233385   4.019   5.862  14.502  0.7314 -0.9001  0.3886
 3965TIP3    H133386   3.994   5.873  14.594  1.1947 -0.7775  0.5042
 3965TIP3    H233387   4.072   5.782  14.502  1.7896 -0.2055  0.4423
 3966TIP3   OH233388   6.529   1.478   2.998 -0.4466 -0.6867 -0.4188
 3966TIP3    H133389   6.576   1.557   2.970 -0.3620  0.0416  1.6338
 3966TIP3    H233390   6.445   1.483   2.953 -0.6108  0.8163  0.0206
 3967TIP3   OH233391   2.058   5.851   1.633  0.3127  0.5566  0.0868
 3967TIP3    H133392   2.111   5.892   1.701 -1.1485  0.2461  1.4449
 3967TIP3    H233393   1.970   5.847   1.671  0.2772 -3.2441 -0.2418
 3968TIP3   OH233394   0.909   3.617   4.768  0.1966  0.1023 -0.8516
 3968TIP3    H133395   0.949   3.652   4.688 -1.0933  1.0261 -1.0998
 3968TIP3    H233396   0.840   3.679   4.790  0.9056  0.1798  1.3289
 3969TIP3   OH233397   1.331   3.599   4.985  0.1078  0.1185 -0.2016
 3969TIP3    H133398   1.425   3.606   4.968  0.7419 -2.7336  1.8388
 3969TIP3    H233399   1.300   3.531   4.924 -0.0721 -0.9100  1.0101
 3970TIP3   OH233400   5.585   0.528   3.176  0.5758 -0.3608 -0.5807
 3970TIP3    H133401   5.646   0.487   3.237  1.1544  0.9642 -0.2646
 3970TIP3    H233402   5.550   0.455   3.125  1.8997 -1.2037 -0.2957
 3971TIP3   OH233403   6.196   1.450  13.288 -0.2304 -0.3612  0.1183
 3971TIP3    H133404   6.123   1.456  13.350 -1.3904 -2.5580 -0.9682
 3971TIP3    H233405   6.252   1.382  13.324 -0.0981 -0.5471 -0.4453
 3972TIP3   OH233406   6.404   1.339   0.220  0.4291 -0.3830 -0.1358
 3972TIP3    H133407   6.391   1.320   0.127  0.4833 -1.7952  0.1324
 3972TIP3    H233408   6.482   1.394   0.223 -0.1174  0.4410 -0.9996
 3973TIP3   OH233409   0.356   2.016   4.865  0.4537  0.1915  0.4356
 3973TIP3    H133410   0.307   1.966   4.800  0.4358  0.0748  0.5384
 3973TIP3    H233411   0.314   1.994   4.949 -0.4057  1.3984  0.3384
 3974TIP3   OH233412   1.027   4.117  12.399  0.3565 -0.3849 -0.1837
 3974TIP3    H133413   1.088   4.186  12.374 -0.3663 -0.0948 -1.2028
 3974TIP3    H233414   0.969   4.108  12.324  0.6770 -2.3867 -0.2352
 3975TIP3   OH233415   1.603   2.962   5.948  0.0129 -0.0744  0.2265
 3975TIP3    H133416   1.641   2.922   6.027  4.3921  2.1163 -0.6195
 3975TIP3    H233417   1.625   2.901   5.877 -0.2938  0.0029  0.0636
 3976TIP3   OH233418   0.467   3.797   4.804 -0.4775  0.1529  0.0717
 3976TIP3    H133419   0.542   3.857   4.807 -0.6213  0.2925  0.9422
 3976TIP3    H233420   0.391   3.854   4.799 -0.5061  0.0020 -1.5216
 3977TIP3   OH233421   1.128   2.635   2.042 -0.3491 -0.2646  0.3015
 3977TIP3    H133422   1.189   2.661   1.973 -0.9327 -0.0947 -0.1571
 3977TIP3    H233423   1.152   2.544   2.063  1.3033  0.4124  1.4842
 3978TIP3   OH233424   1.965   0.582  10.980 -0.1434 -0.0272 -0.3258
 3978TIP3    H133425   2.042   0.620  10.938 -0.3593  0.2200 -0.5064
 3978TIP3    H233426   1.960   0.493  10.945 -1.1165  0.6228 -1.9264
 3979TIP3   OH233427   3.160   5.617  13.338  0.3595 -0.9831 -0.1377
 3979TIP3    H133428   3.119   5.703  13.344  0.1869 -0.9649 -1.5310
 3979TIP3    H233429   3.087   5.558  13.318  0.7966 -1.1356 -1.3090
 3980TIP3   OH233430   3.860   3.288  11.454  0.1158 -0.1119 -0.4292
 3980TIP3    H133431   3.804   3.365  11.441  2.5239  1.8871  0.5696
 3980TIP3    H233432   3.863   3.278  11.549  2.5700  0.7286 -0.3764
 3981TIP3   OH233433   2.247   6.434   1.887 -0.3940  0.6351  0.7646
 3981TIP3    H133434   2.176   6.476   1.936  0.4075  1.1026  1.5441
 3981TIP3    H233435   2.294   6.382   1.953 -0.5469 -0.3961  0.0807
 3982TIP3   OH233436   2.882   0.346   2.736  0.1848  0.1544  0.1441
 3982TIP3    H133437   2.884   0.386   2.649 -0.4442  0.7645  0.4007
 3982TIP3    H233438   2.797   0.303   2.740  0.5030 -0.4658  0.1988
 3983TIP3   OH233439   0.753   4.134   1.256 -0.7146  0.1717  0.5012
 3983TIP3    H133440   0.698   4.065   1.294 -1.2033  0.6027  0.5753
 3983TIP3    H233441   0.697   4.211   1.255  0.5585  1.1576  2.4900
 3984TIP3   OH233442   0.390   3.088   1.553 -0.7945  0.2559  0.3138
 3984TIP3    H133443   0.328   3.109   1.484 -1.6716  0.4741  1.1733
 3984TIP3    H233444   0.343   3.104   1.634 -0.3226 -1.5717  0.9798
 3985TIP3   OH233445   3.476   4.845  14.930  0.0271 -0.4020 -0.1214
 3985TIP3    H133446   3.460   4.808  14.843 -0.6009  0.9298 -0.5811
 3985TIP3    H233447   3.388   4.861  14.966  0.2605 -1.8554  1.1654
 3986TIP3   OH233448   2.571   4.250  11.790 -0.0371  0.0310  0.7029
 3986TIP3    H133449   2.530   4.163  11.788 -1.0331  0.4968  0.2497
 3986TIP3    H233450   2.646   4.240  11.848 -0.9944 -0.7730  1.8170
 3987TIP3   OH233451   2.830   3.947   2.287 -0.2000 -0.0392  0.2924
 3987TIP3    H133452   2.850   3.860   2.251  0.0047  0.5129 -0.9516
 3987TIP3    H233453   2.910   3.973   2.332 -0.8891 -1.2842  2.2836
 3988TIP3   OH233454   3.556   1.599  11.772  0.3464 -0.1857 -0.5973
 3988TIP3    H133455   3.472   1.614  11.816  0.4792 -2.0616  0.3215
 3988TIP3    H233456   3.589   1.687  11.754 -0.3773  0.5987  1.7607
 3989TIP3   OH233457   2.103   4.856   2.857  0.6596 -0.1629  0.2396
 3989TIP3    H133458   2.126   4.763   2.849  1.1336 -0.0289  0.0494
 3989TIP3    H233459   2.128   4.894   2.773  0.2877  0.1035  0.2465
 3990TIP3   OH233460   3.419   1.750   6.518 -0.4473 -0.0451  0.7948
 3990TIP3    H133461   3.329   1.716   6.516 -0.2243 -0.5979 -0.6683
 3990TIP3    H233462   3.415   1.830   6.466  0.1587 -0.7356 -0.3238
 3991TIP3   OH233463   4.637   0.024  13.311  0.0025 -0.3327 -0.0691
 3991TIP3    H133464   4.649   0.022  13.406  0.7126 -0.4060 -0.1572
 3991TIP3    H233465   4.682  -0.054  13.280 -1.2137 -0.9339 -0.3638
 3992TIP3   OH233466   5.475   0.215  16.789 -0.1185  0.0815  0.4280
 3992TIP3    H133467   5.461   0.304  16.823 -0.8336 -0.3734  1.3372
 3992TIP3    H233468   5.535   0.175  16.851  1.6080  0.5032 -0.9528
 3993TIP3   OH233469   6.153   6.779   5.424 -0.1468  0.0456 -0.3864
 3993TIP3    H133470   6.119   6.867   5.407 -0.7261 -0.4507 -1.8888
 3993TIP3    H233471   6.130   6.762   5.515 -2.1455  0.5173 -0.7750
 3994TIP3   OH233472   5.800   6.271  12.738  0.8025  0.4482 -0.5454
 3994TIP3    H133473   5.797   6.320  12.656 -0.8155  0.1694 -0.6772
 3994TIP3    H233474   5.777   6.182  12.713 -0.1165  0.4473  0.2609
 3995TIP3   OH233475   2.152   0.801   5.399 -0.1120  0.6696 -0.2082
 3995TIP3    H133476   2.065   0.821   5.366  0.1234  1.6188 -0.2760
 3995TIP3    H233477   2.161   0.707   5.388 -1.5494  0.3863  0.8269
 3996TIP3   OH233478   3.405   4.421  17.188  0.3495  0.3727  0.2073
 3996TIP3    H133479   3.396   4.417  17.093  0.4311  1.9209  0.1102
 3996TIP3    H233480   3.334   4.366  17.222  0.4499 -0.3486 -0.7452
 3997TIP3   OH233481   5.851   4.869  15.653  0.2608 -0.1803 -0.4574
 3997TIP3    H133482   5.915   4.937  15.674  0.4329 -0.9449  1.6017
 3997TIP3    H233483   5.767   4.915  15.652  0.2446 -0.0959  1.9705
 3998TIP3   OH233484   2.074   6.268   4.582  0.4354  0.2457 -0.0763
 3998TIP3    H133485   2.113   6.327   4.646 -0.5130 -1.7923  2.4693
 3998TIP3    H233486   1.979   6.282   4.592  0.2897  0.2124 -1.3502
 3999TIP3   OH233487   4.288   4.619  15.952 -0.0154  0.1458 -0.2557
 3999TIP3    H133488   4.248   4.536  15.931 -1.5402  0.6008  0.7602
 3999TIP3    H233489   4.271   4.631  16.046 -0.0240  1.6855 -0.4320
 4000TIP3   OH233490   0.103   4.515  15.212  0.4058  0.6085  0.0297
 4000TIP3    H133491   0.153   4.545  15.136  0.7840 -0.0747  0.0038
 4000TIP3    H233492   0.029   4.467  15.174  0.0193  1.1580  0.0779
 4001TIP3   OH233493   2.509   0.923  15.677  0.1273 -0.0859  0.0384
 4001TIP3    H133494   2.456   0.844  15.687 -1.6885  1.0040 -0.8199
 4001TIP3    H233495   2.531   0.949  15.766  0.0281 -1.0866  0.3570
 4002TIP3   OH233496   6.336   2.938   4.486 -0.2236 -0.0320  0.4049
 4002TIP3    H133497   6.366   2.985   4.408 -0.8201 -0.3191  0.0047
 4002TIP3    H233498   6.279   3.000   4.531 -1.2390 -0.4767 -0.2718
 4003TIP3   OH233499   6.012   4.795   4.074 -0.2216 -0.0145 -0.4282
 4003TIP3    H133500   6.038   4.722   4.129 -1.1813 -0.6446 -0.7964
 4003TIP3    H233501   6.048   4.873   4.118 -2.6547 -0.2938  2.1775
 4004TIP3   OH233502   2.552   4.283   4.854  0.3760  0.1626  0.5293
 4004TIP3    H133503   2.518   4.370   4.878  0.5835 -0.1668  2.0987
 4004TIP3    H233504   2.623   4.267   4.917  1.8474 -0.1991 -1.1669
 4005TIP3   OH233505   4.504   3.808   6.633  0.7029 -0.0399  0.2001
 4005TIP3    H133506   4.473   3.732   6.682  2.0255 -1.5269 -1.2232
 4005TIP3    H233507   4.433   3.830   6.574 -0.6427  1.3590  2.2622
 4006TIP3   OH233508   4.940   6.420   4.252  0.0186 -0.4364  0.0593
 4006TIP3    H133509   4.849   6.448   4.263  0.3769  0.0916  1.8504
 4006TIP3    H233510   4.983   6.493   4.208 -0.2360 -0.3133  0.0193
 4007TIP3   OH233511   2.755   4.922   5.926  0.5078 -0.1920  0.0463
 4007TIP3    H133512   2.798   4.979   5.862  0.7011 -0.8375 -0.4105
 4007TIP3    H233513   2.826   4.889   5.981  0.5808 -1.1358 -0.6090
 4008TIP3   OH233514   1.471   0.587   3.178 -0.2053 -0.3966 -0.1823
 4008TIP3    H133515   1.456   0.623   3.265  0.0345  1.4593 -0.8759
 4008TIP3    H233516   1.387   0.598   3.133 -0.5384 -1.9965  0.0174
 4009TIP3   OH233517   2.509   0.441  12.908 -0.5737 -0.1012 -0.0485
 4009TIP3    H133518   2.593   0.463  12.948 -0.1264 -1.9705  0.0646
 4009TIP3    H233519   2.463   0.525  12.902  0.2030  0.5515  2.4050
 4010TIP3   OH233520   0.802   3.693  14.705  0.0841  0.1669 -0.0914
 4010TIP3    H133521   0.750   3.613  14.714 -1.5138  1.1784 -0.1473
 4010TIP3    H233522   0.872   3.683  14.771 -1.2526 -0.3948  1.2713
 4011TIP3   OH233523   5.192   5.800   5.482  0.0459 -0.1321  0.0912
 4011TIP3    H133524   5.117   5.775   5.428 -0.3687 -1.3749  1.2055
 4011TIP3    H233525   5.207   5.724   5.538  2.3991 -0.0528 -0.3947
 4012TIP3   OH233526   3.630   1.003  12.173  0.4495 -0.0222 -0.0327
 4012TIP3    H133527   3.693   0.937  12.144  0.4520 -0.1055  0.1585
 4012TIP3    H233528   3.675   1.086  12.162  0.8268 -0.1262  0.6978
 4013TIP3   OH233529   1.934   3.389   3.627 -0.0784 -0.7534 -0.0823
 4013TIP3    H133530   1.840   3.385   3.645  0.1438 -0.9663  1.0790
 4013TIP3    H233531   1.975   3.378   3.713  1.0204 -1.6102 -0.7045
 4014TIP3   OH233532   3.702   5.360   0.472  0.0467  0.3178 -0.2184
 4014TIP3    H133533   3.793   5.372   0.446  0.2705  0.5647  0.6774
 4014TIP3    H233534   3.700   5.271   0.509  0.2795  0.9158  1.2601
 4015TIP3   OH233535   2.053   2.417   6.283  0.1036 -0.2519 -0.0531
 4015TIP3    H133536   1.964   2.381   6.280 -0.3944  0.9507  0.1705
 4015TIP3    H233537   2.102   2.356   6.338 -0.5240 -1.0328 -0.3424
 4016TIP3   OH233538   6.727   4.335  15.162  0.6466 -0.2694 -0.2982
 4016TIP3    H133539   6.787   4.262  15.178  0.2102 -0.4188  0.6477
 4016TIP3    H233540   6.704   4.325  15.069 -0.8678 -2.4519  0.2734
 4017TIP3   OH233541   3.297   3.197  15.355  0.3526  0.0866 -0.3832
 4017TIP3    H133542   3.355   3.212  15.429  0.3691  0.8341 -0.5426
 4017TIP3    H233543   3.211   3.180  15.395  0.3617  0.4875 -0.1875
 4018TIP3   OH233544   4.760   3.833   0.430  0.0009 -0.1450  0.0781
 4018TIP3    H133545   4.731   3.752   0.473  0.0666 -0.0478  0.3061
 4018TIP3    H233546   4.708   3.837   0.349  0.6491 -0.8824 -0.3731
 4019TIP3   OH233547   4.175   3.319   6.801  0.0871 -0.3770 -0.4387
 4019TIP3    H133548   4.207   3.260   6.870  1.4610 -1.1903 -1.7432
 4019TIP3    H233549   4.172   3.265   6.722  1.0532  1.2041 -1.5988
 4020TIP3   OH233550   6.647   3.345   1.768  0.3391 -0.4730 -0.0504
 4020TIP3    H133551   6.738   3.351   1.798 -0.4612 -0.7488  2.5955
 4020TIP3    H233552   6.625   3.433   1.739  1.1305 -0.1667  0.2648
 4021TIP3   OH233553   2.920   4.339  13.881  0.3463 -0.4898 -0.1305
 4021TIP3    H133554   2.998   4.390  13.905  1.3805 -1.2257 -1.8563
 4021TIP3    H233555   2.914   4.348  13.786 -1.0242 -1.4023 -0.1349
 4022TIP3   OH233556   3.037   3.503  16.273  0.1855 -0.1576  0.1762
 4022TIP3    H133557   3.110   3.454  16.312 -0.6318 -0.9304  0.7393
 4022TIP3    H233558   3.062   3.513  16.181  0.9275 -0.5711  0.3232
 4023TIP3   OH233559   1.646   2.655  12.318  0.5097 -0.8397  0.3137
 4023TIP3    H133560   1.656   2.601  12.396 -0.6693 -0.6147  0.6300
 4023TIP3    H233561   1.667   2.744  12.347 -2.4663 -0.3040  1.0662
 4024TIP3   OH233562   1.383   1.383  12.217  0.5629  0.0152 -0.0505
 4024TIP3    H133563   1.452   1.432  12.172 -2.0309  1.7402 -2.3001
 4024TIP3    H233564   1.324   1.354  12.147 -0.2355 -2.7244  1.6720
 4025TIP3   OH233565   1.288   1.537  14.338 -0.4592 -0.0544 -0.2005
 4025TIP3    H133566   1.293   1.589  14.418  1.4926 -0.2174 -0.1931
 4025TIP3    H233567   1.334   1.590  14.273 -1.2291 -0.3508 -0.9862
 4026TIP3   OH233568   5.505   5.817   4.425  0.0800  0.5092 -0.1101
 4026TIP3    H133569   5.442   5.772   4.369  1.9742  0.1133 -2.0132
 4026TIP3    H233570   5.583   5.761   4.422  0.7214  1.2829  1.6971
 4027TIP3   OH233571   6.433   3.114  11.881  0.0328  0.0491 -0.2928
 4027TIP3    H133572   6.527   3.095  11.887  0.1616  0.8342  0.2008
 4027TIP3    H233573   6.423   3.156  11.795  0.2078  0.3639 -0.1625
 4028TIP3   OH233574   5.780   6.772  16.143  0.1027 -0.6084  0.3824
 4028TIP3    H133575   5.706   6.719  16.111 -0.9299  1.2834 -0.4658
 4028TIP3    H233576   5.857   6.728  16.107 -0.7930 -0.9750 -1.1867
 4029TIP3   OH233577   1.243   2.032   6.705 -0.0228  0.3040 -0.1022
 4029TIP3    H133578   1.236   2.126   6.722  0.2348  0.9360 -3.3030
 4029TIP3    H233579   1.175   2.014   6.640  2.8784 -0.8305 -2.9196
 4030TIP3   OH233580   0.476   6.406   4.173  0.1187 -0.4345 -0.8704
 4030TIP3    H133581   0.431   6.490   4.186  0.4122 -0.2666 -0.9528
 4030TIP3    H233582   0.447   6.353   4.248 -0.0398 -0.2502 -0.7983
 4031TIP3   OH233583   3.241   0.312   4.046  0.1898 -0.4143  0.0032
 4031TIP3    H133584   3.169   0.255   4.019 -1.5390  1.3576  0.7907
 4031TIP3    H233585   3.239   0.312   4.141  0.4139  0.6309  0.0240
 4032TIP3   OH233586   0.170   6.645  15.678 -0.0304  0.7138  0.2024
 4032TIP3    H133587   0.174   6.685  15.765  1.3329  2.1188 -0.4721
 4032TIP3    H233588   0.178   6.719  15.618 -2.9542 -0.0319 -1.1689
 4033TIP3   OH233589   5.957   2.919  14.968  0.3233  0.2358  0.0333
 4033TIP3    H133590   6.032   2.945  15.022  0.1322 -1.4823  1.1585
 4033TIP3    H233591   5.975   2.829  14.943 -1.6687 -0.4213  0.8711
 4034TIP3   OH233592   4.540   3.550   6.034  0.4196  0.0254 -0.0739
 4034TIP3    H133593   4.614   3.508   6.078 -1.0511 -0.5912  1.8944
 4034TIP3    H233594   4.480   3.478   6.014  0.5558  0.4506 -2.1426
 4035TIP3   OH233595   3.735   4.833   5.059 -0.8854  0.1604  0.0237
 4035TIP3    H133596   3.759   4.883   4.982 -2.3034  0.7143 -0.0786
 4035TIP3    H233597   3.741   4.742   5.032 -2.1123  0.3632 -0.9973
 4036TIP3   OH233598   4.776   0.439  14.054  0.1477 -0.3001 -0.2232
 4036TIP3    H133599   4.765   0.527  14.019 -0.8754  0.2238  1.3892
 4036TIP3    H233600   4.693   0.395  14.037 -0.4251  0.0173  1.6808
 4037TIP3   OH233601   0.136   4.637   4.020 -0.8379 -0.3766  0.4458
 4037TIP3    H133602   0.041   4.637   4.020 -0.8396  0.0333  0.1054
 4037TIP3    H233603   0.160   4.549   3.991 -1.1300 -0.0025 -0.9985
 4038TIP3   OH233604   6.285   3.097   2.860  0.5691  0.0070  0.0999
 4038TIP3    H133605   6.245   3.018   2.824 -1.8427  0.9745  0.5603
 4038TIP3    H233606   6.257   3.167   2.800  0.1322  0.9504  1.3831
 4039TIP3   OH233607   5.131   4.829  13.086 -0.0797 -0.0074 -0.5543
 4039TIP3    H133608   5.087   4.810  13.004 -0.5884  0.6178 -0.4309
 4039TIP3    H233609   5.218   4.858  13.061  0.0998 -0.7680 -0.8227
 4040TIP3   OH233610   3.256   3.047  13.775  0.0044  0.0083  0.0636
 4040TIP3    H133611   3.325   2.984  13.754  0.2512  0.7356 -1.4312
 4040TIP3    H233612   3.303   3.123  13.810 -0.1804 -0.1143  0.5830
 4041TIP3   OH233613   4.196   3.588  15.322  0.2986 -0.1146 -0.0853
 4041TIP3    H133614   4.288   3.597  15.296  0.5990 -2.2805  0.1226
 4041TIP3    H233615   4.182   3.657  15.387  1.7713  0.2464 -0.1372
 4042TIP3   OH233616   6.334   2.862   0.594 -0.4874  0.0212  0.1999
 4042TIP3    H133617   6.343   2.832   0.685 -0.4251  0.3464  0.2991
 4042TIP3    H233618   6.371   2.950   0.594  2.1919 -1.0335 -0.7484
 4043TIP3   OH233619   3.629   5.068   2.466 -0.0875 -0.2050 -0.5029
 4043TIP3    H133620   3.711   5.116   2.453  1.0876 -2.0422 -0.0472
 4043TIP3    H233621   3.574   5.128   2.516  1.2944  0.7301 -0.0645
 4044TIP3   OH233622   0.720   5.427  14.745  0.7483 -0.0464 -0.4594
 4044TIP3    H133623   0.656   5.496  14.762  1.1060  0.5794 -1.5637
 4044TIP3    H233624   0.804   5.466  14.769  0.9443 -0.1246 -1.0150
 4045TIP3   OH233625   4.368   4.064  15.754 -0.3807  0.0451  0.1312
 4045TIP3    H133626   4.415   4.134  15.710 -0.4226  0.6289  0.9883
 4045TIP3    H233627   4.434   3.997  15.771 -0.4484 -0.3452 -1.1474
 4046TIP3   OH233628   3.542   6.439  17.168  0.0436  0.3917  0.5621
 4046TIP3    H133629   3.545   6.344  17.174  0.2737  0.3354 -0.3260
 4046TIP3    H233630   3.634   6.466  17.176  0.0487  0.4942  0.1435
 4047TIP3   OH233631   3.416   1.845   0.662  0.1303  0.0587 -0.1411
 4047TIP3    H133632   3.421   1.921   0.605 -1.7758 -0.3354 -0.8721
 4047TIP3    H233633   3.493   1.851   0.718 -0.5083  3.0791  0.5015
 4048TIP3   OH233634   5.493   2.125  13.185  0.2398  0.3987 -0.9408
 4048TIP3    H133635   5.567   2.186  13.189  0.7092 -0.2433  0.4594
 4048TIP3    H233636   5.497   2.089  13.096  2.0768 -0.1879 -0.6423
 4049TIP3   OH233637   2.594   3.691  13.235  0.4823 -0.3928 -0.3884
 4049TIP3    H133638   2.505   3.716  13.260  0.2965 -1.0193 -0.4235
 4049TIP3    H233639   2.593   3.694  13.139  0.6354  0.0646 -0.3786
 4050TIP3   OH233640   4.630   2.423  13.017 -0.2076  1.2356 -0.4963
 4050TIP3    H133641   4.664   2.370  12.945  0.6154  2.0251 -0.6886
 4050TIP3    H233642   4.539   2.394  13.027  0.6620 -1.3352  0.4343
 4051TIP3   OH233643   2.315   1.637  11.737 -0.6224 -0.2419  0.2651
 4051TIP3    H133644   2.336   1.588  11.658  1.0332  2.3151 -0.9716
 4051TIP3    H233645   2.391   1.694  11.751 -1.2804  0.0075  3.1877
 4052TIP3   OH233646   5.063   0.114  14.476  0.0247  0.0419 -0.2366
 4052TIP3    H133647   4.999   0.120  14.404 -0.2537  1.3577  0.1088
 4052TIP3    H233648   5.058   0.023  14.504 -2.6380  0.3995  0.6327
 4053TIP3   OH233649   1.308   5.864   1.912 -0.2974 -0.5901 -0.2260
 4053TIP3    H133650   1.386   5.912   1.884 -0.1880 -0.7389 -0.1771
 4053TIP3    H233651   1.324   5.773   1.886 -0.9072 -0.4379 -1.1432
 4054TIP3   OH233652   0.215   3.421   4.583  0.2530  0.0130 -0.5149
 4054TIP3    H133653   0.218   3.360   4.657 -0.8778  0.9682  0.3483
 4054TIP3    H233654   0.125   3.418   4.553  0.2674  0.9867 -0.6839
 4055TIP3   OH233655   0.853   1.064   4.853 -0.2934 -0.2973 -0.7541
 4055TIP3    H133656   0.823   1.033   4.768 -3.9181  1.0387 -0.0424
 4055TIP3    H233657   0.831   1.157   4.854  0.4403 -0.1088  1.3197
 4056TIP3   OH233658   0.585   3.936   1.256  0.1207 -0.5032 -0.2588
 4056TIP3    H133659   0.601   3.857   1.308  1.2985  0.3675  0.7369
 4056TIP3    H233660   0.612   3.912   1.167 -0.0240 -1.3773 -0.0721
 4057TIP3   OH233661   6.207   1.634   2.356  0.1078  0.2784 -0.4270
 4057TIP3    H133662   6.195   1.677   2.440 -2.6162 -1.3061  0.0659
 4057TIP3    H233663   6.301   1.636   2.340  0.6906  0.3567  2.7787
 4058TIP3   OH233664   0.731   3.841   1.029  0.2441  0.2430  0.2148
 4058TIP3    H133665   0.809   3.791   1.002 -0.1525  0.1773 -0.8305
 4058TIP3    H233666   0.704   3.887   0.950  0.9563  2.6176  1.3131
 4059TIP3   OH233667   1.599   5.818  11.525 -0.1371  0.7680  0.1698
 4059TIP3    H133668   1.609   5.829  11.430 -1.9708  1.1762 -0.0044
 4059TIP3    H233669   1.518   5.768  11.535  1.3317 -1.4346  1.4574
 4060TIP3   OH233670   2.865   6.404  14.301 -0.4325  0.1368  0.1709
 4060TIP3    H133671   2.947   6.452  14.303 -0.2859 -0.1167  0.1549
 4060TIP3    H233672   2.799   6.471  14.281 -0.3070  0.4467  0.7778
 4061TIP3   OH233673   2.453   5.313   4.926  0.2490 -0.1634 -0.1267
 4061TIP3    H133674   2.445   5.397   4.971 -0.1217 -0.2834  0.0346
 4061TIP3    H233675   2.405   5.251   4.982  0.8542 -0.5586 -0.0390
 4062TIP3   OH233676   2.485   2.960  10.469 -0.0109 -0.0344  0.2419
 4062TIP3    H133677   2.393   2.936  10.475 -0.2278  0.5628 -0.5908
 4062TIP3    H233678   2.487   3.031  10.405  0.9743  0.2529  0.5846
 4063TIP3   OH233679   4.194   2.948  12.486  0.4879 -0.0041  0.1120
 4063TIP3    H133680   4.241   2.948  12.569  1.5171  0.6204 -0.4621
 4063TIP3    H233681   4.247   2.894  12.428  0.6009  0.8577 -0.6012
 4064TIP3   OH233682   4.560   1.128  12.223 -1.1061 -0.1728 -0.2225
 4064TIP3    H133683   4.486   1.186  12.207 -3.2897 -2.9216 -0.4665
 4064TIP3    H233684   4.580   1.089  12.138  1.2959  1.2226 -0.3638
 4065TIP3   OH233685   5.891   0.242  12.320  0.1000 -0.1327  0.5368
 4065TIP3    H133686   5.842   0.170  12.361  0.2475  0.1881  1.2934
 4065TIP3    H233687   5.847   0.321  12.350 -0.5247  0.0819 -0.9024
 4066TIP3   OH233688   2.474   4.233   0.335 -0.8328  0.0537  0.1411
 4066TIP3    H133689   2.517   4.298   0.280  1.0364 -0.0571  1.4249
 4066TIP3    H233690   2.502   4.254   0.424 -2.1872 -0.9989  0.8372
 4067TIP3   OH233691   0.188   1.685   1.947  0.4655 -0.2128 -0.6828
 4067TIP3    H133692   0.252   1.614   1.956  0.2741 -0.1429  1.8227
 4067TIP3    H233693   0.159   1.701   2.037 -2.2394  0.5218 -1.6494
 4068TIP3   OH233694   4.151   5.760  13.197  0.1058  0.1410  0.2663
 4068TIP3    H133695   4.246   5.761  13.193  0.1706  0.1184  1.5234
 4068TIP3    H233696   4.129   5.674  13.233 -0.4606 -0.4306 -1.4158
 4069TIP3   OH233697   0.534   3.183   0.345 -0.5707 -0.6845 -0.1945
 4069TIP3    H133698   0.549   3.091   0.368  0.5048 -0.8434 -1.5353
 4069TIP3    H233699   0.452   3.182   0.295  1.3860 -1.4322 -3.4712
 4070TIP3   OH233700   5.166   4.123   5.876 -0.2385 -0.1673  0.2906
 4070TIP3    H133701   5.124   4.081   5.951 -1.2258  1.1136  0.4672
 4070TIP3    H233702   5.122   4.208   5.868  0.8095  0.2797 -0.8824
 4071TIP3   OH233703   1.360   3.205  16.911 -0.5754  0.5595  0.0995
 4071TIP3    H133704   1.266   3.186  16.907 -0.3910 -0.0580 -1.3350
 4071TIP3    H233705   1.365   3.301  16.904 -1.0547  0.5310 -0.7336
 4072TIP3   OH233706   5.704   1.110   1.285  0.0695 -0.2759  0.4069
 4072TIP3    H133707   5.658   1.032   1.253  0.3345 -0.0029 -0.6537
 4072TIP3    H233708   5.780   1.075   1.331  0.7729 -0.6368 -0.9848
 4073TIP3   OH233709   2.144   4.774  16.472 -0.2852  0.5998 -0.3400
 4073TIP3    H133710   2.226   4.822  16.463 -1.3005  2.7704  1.5084
 4073TIP3    H233711   2.171   4.689  16.507  1.3500  0.5222 -1.7042
 4074TIP3   OH233712   3.034   4.677  13.130  0.6341  0.2531 -0.0304
 4074TIP3    H133713   3.036   4.668  13.226 -0.8538  1.2914  0.1066
 4074TIP3    H233714   3.102   4.617  13.100  1.1576 -0.0594  1.6816
 4075TIP3   OH233715   5.125   2.461   2.604  0.7510  0.3539 -0.1229
 4075TIP3    H133716   5.107   2.548   2.569  0.4726  1.3412  2.3896
 4075TIP3    H233717   5.045   2.436   2.650  1.7945 -0.0463  1.5202
 4076TIP3   OH233718   3.467   4.192   4.293 -0.6733 -0.3096 -0.1794
 4076TIP3    H133719   3.510   4.168   4.211 -1.4918 -1.9586 -0.1543
 4076TIP3    H233720   3.529   4.252   4.335  0.5554 -0.8136 -1.2024
 4077TIP3   OH233721   3.933   5.011   4.943 -0.1248 -1.0249 -0.0211
 4077TIP3    H133722   4.006   5.024   4.883  1.4244 -0.3337  1.9682
 4077TIP3    H233723   3.966   4.952   5.010 -0.8108  0.6206  1.8317
 4078TIP3   OH233724   4.798   0.708   6.627 -0.3020 -0.5468  0.2166
 4078TIP3    H133725   4.715   0.724   6.581  0.0773  1.0292  0.0561
 4078TIP3    H233726   4.781   0.737   6.717  0.3971  0.8430 -0.0805
 4079TIP3   OH233727   6.016   5.439   2.152 -0.3164 -0.5322  0.2109
 4079TIP3    H133728   6.039   5.483   2.069 -1.6594  0.7396  0.4849
 4079TIP3    H233729   5.982   5.354   2.125  1.0275 -0.8881 -0.4208
 4080TIP3   OH233730   2.857   4.179  14.219  0.5147  0.1793 -0.1738
 4080TIP3    H133731   2.835   4.271  14.205  0.6326  0.0233 -1.4833
 4080TIP3    H233732   2.773   4.133  14.219  0.4204  0.3353  0.9547
 4081TIP3   OH233733   0.659   4.953  11.759  0.9856 -0.4016  0.3345
 4081TIP3    H133734   0.641   4.959  11.853  2.5524 -0.3496  0.6362
 4081TIP3    H233735   0.684   4.862  11.745  1.1462 -0.3123  0.0365
 4082TIP3   OH233736   4.928   3.095  16.913  0.1049  0.1616  0.0358
 4082TIP3    H133737   4.870   3.088  16.989  0.3102 -0.7432  0.1177
 4082TIP3    H233738   4.923   3.187  16.887  0.3623  0.5760  1.4055
 4083TIP3   OH233739   6.572   0.682   3.181  0.5515 -0.4722  0.4012
 4083TIP3    H133740   6.617   0.740   3.243  1.5955 -1.7991  0.9112
 4083TIP3    H233741   6.587   0.722   3.095  0.7166  0.3637  0.8140
 4084TIP3   OH233742   1.474   3.369   1.089 -0.0806 -0.3651 -0.3735
 4084TIP3    H133743   1.503   3.451   1.049 -1.4533  0.0780 -0.4974
 4084TIP3    H233744   1.461   3.391   1.181 -0.7983 -0.3483 -0.4776
 4085TIP3   OH233745   5.710   3.523  15.593 -0.8264 -0.4266 -0.4504
 4085TIP3    H133746   5.766   3.542  15.669 -0.2754 -2.0066 -0.4304
 4085TIP3    H233747   5.755   3.563  15.519 -0.3137 -0.6164 -0.2433
 4086TIP3   OH233748   0.398   4.592   2.833  0.6260 -0.2535 -0.0084
 4086TIP3    H133749   0.429   4.553   2.751 -1.3860  0.3379 -1.0711
 4086TIP3    H233750   0.432   4.681   2.831 -0.2330  0.0637 -0.6677
 4087TIP3   OH233751   5.908   6.704   5.245 -0.0685 -0.1258 -0.3154
 4087TIP3    H133752   5.890   6.797   5.259 -1.2156 -0.3576 -0.1509
 4087TIP3    H233753   5.988   6.687   5.294 -0.0202  0.7067 -0.0946
 4088TIP3   OH233754   1.499   1.301   0.319  0.9302 -0.2277  0.4426
 4088TIP3    H133755   1.528   1.349   0.241  0.4039 -1.9322 -0.8229
 4088TIP3    H233756   1.568   1.236   0.335  0.8804 -0.0999  1.2156
 4089TIP3   OH233757   0.790   2.450   3.394 -0.1741 -0.4630 -0.3515
 4089TIP3    H133758   0.695   2.436   3.393 -0.1431 -0.6375 -1.5519
 4089TIP3    H233759   0.828   2.362   3.392  0.0272 -0.4212  0.9820
 4090TIP3   OH233760   4.639   1.565  16.343  0.0241 -0.0485  0.3758
 4090TIP3    H133761   4.706   1.530  16.402 -0.8471  0.0541  1.4532
 4090TIP3    H233762   4.651   1.660  16.347  0.8517 -0.0878 -0.7071
 4091TIP3   OH233763   2.767   0.332   4.793  0.2040  0.5188 -0.5792
 4091TIP3    H133764   2.693   0.378   4.833  0.2346 -1.1402  1.4534
 4091TIP3    H233765   2.757   0.349   4.699 -0.4928  3.6043 -0.0156
 4092TIP3   OH233766   4.289   1.397   1.821  0.2306  0.4257  0.1422
 4092TIP3    H133767   4.359   1.430   1.878  0.0567  0.4312  0.3496
 4092TIP3    H233768   4.248   1.476   1.786  1.1123  0.4243 -0.9324
 4093TIP3   OH233769   0.244   6.135   4.726 -0.1878 -0.2032 -0.1840
 4093TIP3    H133770   0.277   6.206   4.781  1.1468  1.5331 -3.0890
 4093TIP3    H233771   0.257   6.167   4.636 -2.1053 -2.9990 -1.5213
 4094TIP3   OH233772   2.688   6.120  12.690 -0.0506 -0.5976  0.0773
 4094TIP3    H133773   2.630   6.051  12.722 -0.8132  0.5187  1.1330
 4094TIP3    H233774   2.773   6.101  12.732 -0.4792 -0.4171  1.0545
 4095TIP3   OH233775   1.644   3.910  15.471 -0.0689  0.1817  0.0938
 4095TIP3    H133776   1.703   3.835  15.462 -1.3174 -0.7810 -0.3321
 4095TIP3    H233777   1.619   3.932  15.381 -2.3710 -1.0971  0.3758
 4096TIP3   OH233778   5.042   4.167   0.837  0.2801  0.5262  0.7348
 4096TIP3    H133779   5.087   4.086   0.815 -0.6867  0.2488 -0.2249
 4096TIP3    H233780   4.954   4.157   0.802  0.7834  2.8424 -1.3692
 4097TIP3   OH233781   5.126   4.882  15.843 -0.2201 -0.0072  0.0811
 4097TIP3    H133782   5.177   4.959  15.868 -0.8951  0.7586 -0.8695
 4097TIP3    H233783   5.118   4.888  15.748 -2.1141 -0.0920  0.2235
 4098TIP3   OH233784   0.526   3.284   5.955  0.1352 -0.0103 -0.5432
 4098TIP3    H133785   0.607   3.267   5.907 -0.0727  0.4373 -1.0478
 4098TIP3    H233786   0.471   3.208   5.936 -0.0468  0.2938 -1.2192
 4099TIP3   OH233787   5.765   5.071  14.729  0.4435  0.1982  0.3135
 4099TIP3    H133788   5.674   5.097  14.719  0.5913  1.5541  2.2999
 4099TIP3    H233789   5.792   5.044  14.641 -1.7690  0.0667 -0.3474
 4100TIP3   OH233790   3.459   3.874  11.791 -0.3698  0.1021  0.2128
 4100TIP3    H133791   3.373   3.842  11.765 -1.5099  1.6516  1.8968
 4100TIP3    H233792   3.467   3.959  11.747  0.9588 -0.7308 -1.1612
 4101TIP3   OH233793   2.561   1.282   2.464  0.3151 -0.1606 -0.0870
 4101TIP3    H133794   2.621   1.274   2.390  0.8432  1.5982  0.1282
 4101TIP3    H233795   2.485   1.328   2.429  0.7774  1.1184  0.5640
 4102TIP3   OH233796   1.397   5.297   0.059 -0.2384  0.3797 -0.2793
 4102TIP3    H133797   1.383   5.252   0.142 -1.2704  0.5561 -0.3534
 4102TIP3    H233798   1.320   5.275   0.007 -0.5691  1.9219 -0.4501
 4103TIP3   OH233799   6.436   1.072   2.842  0.0184 -0.4048  0.1556
 4103TIP3    H133800   6.375   1.119   2.785  2.2849  1.4184 -0.8139
 4103TIP3    H233801   6.454   0.990   2.796 -2.0129 -1.1977  0.6846
 4104TIP3   OH233802   3.718   2.866   4.140  0.1941  0.1068  0.8836
 4104TIP3    H133803   3.633   2.885   4.100  0.1278  1.7744  1.7896
 4104TIP3    H233804   3.770   2.828   4.069 -0.7889  0.5466 -0.0903
 4105TIP3   OH233805   5.534   3.682  14.099 -0.4603  0.3522 -0.9968
 4105TIP3    H133806   5.535   3.772  14.132  0.6371 -0.3909  1.0983
 4105TIP3    H233807   5.466   3.682  14.031 -1.1651  2.5187 -0.3328
 4106TIP3   OH233808   5.465   3.895  11.296  0.3969  0.9897 -0.2367
 4106TIP3    H133809   5.503   3.981  11.315  0.4860  1.0829 -0.8423
 4106TIP3    H233810   5.387   3.913  11.244  0.6159  0.6878 -0.6750
 4107TIP3   OH233811   5.441   0.016  17.128  0.6279  0.0515 -0.1887
 4107TIP3    H133812   5.512   0.039  17.067  0.0027 -0.0111 -0.9513
 4107TIP3    H233813   5.365   0.064  17.095  0.2424 -0.1198  0.4492
 4108TIP3   OH233814   3.330   3.671   0.587  0.0108 -0.3123  0.1514
 4108TIP3    H133815   3.362   3.739   0.647 -1.5563  0.8272 -0.2540
 4108TIP3    H233816   3.399   3.664   0.520 -0.0955  1.4013 -0.1822
 4109TIP3   OH233817   6.233   2.499   3.455  0.6385  0.3023  0.1427
 4109TIP3    H133818   6.311   2.449   3.431 -0.7251 -2.1299  0.6670
 4109TIP3    H233819   6.209   2.467   3.542 -1.2335  0.6736 -0.2157
 4110TIP3   OH233820   5.160   0.381  12.159 -0.2331 -0.1723 -0.3328
 4110TIP3    H133821   5.229   0.340  12.107 -1.1886 -1.7560 -0.4060
 4110TIP3    H233822   5.098   0.414  12.094 -0.2643 -0.0643 -0.2487
 4111TIP3   OH233823   4.876   2.370   2.646  0.6749  0.0321  0.3396
 4111TIP3    H133824   4.790   2.386   2.685  0.1961  0.8987 -1.0183
 4111TIP3    H233825   4.860   2.375   2.551  2.0567 -0.6608  0.0567
 4112TIP3   OH233826   1.362   3.983   5.107 -0.3351  0.5939  0.2681
 4112TIP3    H133827   1.279   3.937   5.121  0.0353  0.4032  1.8814
 4112TIP3    H233828   1.374   3.981   5.012  0.0147 -3.2731  0.3061
 4113TIP3   OH233829   3.764   4.022  11.264  0.3302  0.9343 -0.2755
 4113TIP3    H133830   3.854   4.037  11.291  0.4578  0.5579 -0.4972
 4113TIP3    H233831   3.770   3.958  11.193 -0.2530 -0.6033  1.0191
 4114TIP3   OH233832   5.334   1.301   1.833  0.0853 -0.2462  0.5513
 4114TIP3    H133833   5.263   1.238   1.823 -0.9012  0.8176  0.7555
 4114TIP3    H233834   5.296   1.385   1.807  1.6818  0.1077 -0.7270
 4115TIP3   OH233835   0.237   6.132  16.782 -1.0003  0.1985 -0.7214
 4115TIP3    H133836   0.186   6.099  16.856 -0.0340  1.0317  0.3447
 4115TIP3    H233837   0.328   6.120  16.809 -0.6413  0.7774 -1.6503
 4116TIP3   OH233838   2.549   2.257   3.726 -0.5768 -0.1799  0.1377
 4116TIP3    H133839   2.565   2.313   3.650 -1.4073  0.7311  0.6065
 4116TIP3    H233840   2.604   2.180   3.712  1.1276  1.0672 -0.1775
 4117TIP3   OH233841   2.559   3.481   4.002  0.1210 -0.2957  0.4521
 4117TIP3    H133842   2.578   3.475   4.096 -2.8932 -2.7804  0.9706
 4117TIP3    H233843   2.493   3.551   3.996  1.5106  0.9966 -0.0532
 4118TIP3   OH233844   2.407   0.703   2.088 -0.2700  0.1923 -0.4634
 4118TIP3    H133845   2.446   0.616   2.082  2.2099  1.1424  1.3252
 4118TIP3    H233846   2.396   0.731   1.997  2.0582 -0.6352 -1.0195
 4119TIP3   OH233847   0.221   0.873   2.189  0.1396  0.4409  0.4512
 4119TIP3    H133848   0.295   0.902   2.243  1.3381  3.0005 -2.4300
 4119TIP3    H233849   0.261   0.848   2.105 -1.9660 -0.8582 -0.1996
 4120TIP3   OH233850   4.069   6.205  11.947  0.1899 -0.8911 -0.2132
 4120TIP3    H133851   3.981   6.231  11.923  0.5095  0.9346  0.4836
 4120TIP3    H233852   4.117   6.201  11.865 -0.0138  0.2142 -0.3874
 4121TIP3   OH233853   6.444   3.978  12.063 -0.3492 -0.8687  0.3749
 4121TIP3    H133854   6.475   3.957  12.151 -0.1328  0.3597  0.5988
 4121TIP3    H233855   6.370   4.037  12.077 -0.0699 -0.3566 -0.2736
 4122TIP3   OH233856   5.710   1.688   2.184 -0.8510 -0.4688  0.9987
 4122TIP3    H133857   5.755   1.759   2.229 -0.3501 -0.1072 -0.0643
 4122TIP3    H233858   5.631   1.673   2.237 -0.4201  0.1459  1.8265
 4123TIP3   OH233859   2.542   2.416   1.162 -0.0011 -0.0434  0.0389
 4123TIP3    H133860   2.612   2.464   1.117 -0.0871  1.0793  1.0902
 4123TIP3    H233861   2.542   2.330   1.120  1.1305  0.3854 -0.8739
 4124TIP3   OH233862   5.049   2.738  14.588 -0.2019 -0.0754  0.0194
 4124TIP3    H133863   4.955   2.723  14.600 -0.1324  1.0351  2.1627
 4124TIP3    H233864   5.090   2.658  14.621 -0.3948 -0.8355 -1.5277
 4125TIP3   OH233865   6.773   5.600   1.761  0.4377  0.1662  0.0574
 4125TIP3    H133866   6.708   5.530   1.752  0.4107  0.2640 -0.5244
 4125TIP3    H233867   6.722   5.681   1.751  0.3327  0.3032  1.5440
 4126TIP3   OH233868   2.057   2.746  12.919 -0.0554  0.8607 -0.5179
 4126TIP3    H133869   2.132   2.734  12.978  0.7145  2.0363 -1.2246
 4126TIP3    H233870   1.980   2.739  12.975  0.5484 -0.7950  0.1547
 4127TIP3   OH233871   4.019   0.669   4.969 -0.2415 -0.0431  0.7594
 4127TIP3    H133872   4.097   0.632   4.928 -0.7125 -0.6707  0.4284
 4127TIP3    H233873   4.053   0.728   5.036  0.5206  1.3115 -0.8042
 4128TIP3   OH233874   1.633   2.605  14.033 -0.3881 -0.0047  0.1658
 4128TIP3    H133875   1.571   2.669  14.070 -0.1793 -0.4535  1.3293
 4128TIP3    H233876   1.710   2.658  14.010 -0.0590  0.1182  1.5035
 4129TIP3   OH233877   0.792   3.055  15.793 -0.1175 -0.0436 -0.1469
 4129TIP3    H133878   0.873   3.071  15.841  0.6934 -0.0814 -1.4853
 4129TIP3    H233879   0.723   3.082  15.853  0.9590  1.9783  0.2236
 4130TIP3   OH233880   1.192   6.171  13.766  0.1067 -0.0535  0.2866
 4130TIP3    H133881   1.255   6.112  13.724 -0.8011 -1.2142  0.5178
 4130TIP3    H233882   1.246   6.235  13.813  1.1120 -1.0726  0.5451
 4131TIP3   OH233883   3.581   4.023  17.011  0.2261  0.0427 -0.5065
 4131TIP3    H133884   3.672   3.997  17.000  0.4857  0.8385 -0.3042
 4131TIP3    H233885   3.549   4.037  16.921  0.0094 -1.1799 -0.6323
 4132TIP3   OH233886   4.322   1.379   6.077  0.3601 -0.5895 -0.4014
 4132TIP3    H133887   4.283   1.424   6.152  2.5390 -0.6232  0.7906
 4132TIP3    H233888   4.259   1.392   6.006 -2.0635 -1.1040  1.5637
 4133TIP3   OH233889   6.638   6.590   5.480 -0.4544 -0.4039  0.9042
 4133TIP3    H133890   6.720   6.548   5.455 -0.2339 -0.0848  1.0969
 4133TIP3    H233891   6.664   6.665   5.533 -0.8531 -0.1038  0.6817
 4134TIP3   OH233892   6.136   5.790  13.513 -0.5432  0.5556  0.2598
 4134TIP3    H133893   6.143   5.885  13.512 -0.9853  0.6051  1.5311
 4134TIP3    H233894   6.224   5.759  13.490  0.2884  1.2649  2.3879
 4135TIP3   OH233895   1.379   5.428   3.986 -0.8204 -0.6280  0.2203
 4135TIP3    H133896   1.297   5.475   3.972 -0.5249 -0.4821 -1.1388
 4135TIP3    H233897   1.432   5.488   4.040 -0.4990  0.5775 -1.3736
 4136TIP3   OH233898   1.723   4.564   2.889 -0.4619  0.9890 -0.0391
 4136TIP3    H133899   1.741   4.652   2.856 -1.9029  1.8931  1.5547
 4136TIP3    H233900   1.785   4.551   2.960 -1.3861  1.3708  0.8363
 4137TIP3   OH233901   2.955   4.872   1.829  0.2466  0.3033  0.0752
 4137TIP3    H133902   3.018   4.853   1.760 -1.4907  0.7314 -1.6743
 4137TIP3    H233903   3.009   4.885   1.907  2.2036 -0.8415 -1.0315
 4138TIP3   OH233904   4.310   1.630  12.263  0.6733  0.2568 -0.0305
 4138TIP3    H133905   4.332   1.542  12.292 -0.1243 -0.3284 -1.1925
 4138TIP3    H233906   4.235   1.619  12.205  0.7169  1.6727 -0.3841
 4139TIP3   OH233907   3.650   6.111   3.526 -0.1871  0.6003 -0.5789
 4139TIP3    H133908   3.698   6.193   3.511  0.7658  0.4288  1.4527
 4139TIP3    H233909   3.687   6.050   3.463 -1.1234  1.7830 -2.3374
 4140TIP3   OH233910   3.100   2.500   0.374  0.0397 -0.5890 -0.2526
 4140TIP3    H133911   3.009   2.498   0.345  0.7732  0.3500 -2.7480
 4140TIP3    H233912   3.138   2.418   0.342 -0.0294 -1.1923  1.1859
 4141TIP3   OH233913   0.445   3.795   1.454  0.6966 -0.2972 -0.1074
 4141TIP3    H133914   0.484   3.735   1.517  0.5640 -0.5600 -0.2735
 4141TIP3    H233915   0.401   3.738   1.390 -0.5537  0.0076  0.4602
 4142TIP3   OH233916   3.315   1.330   1.567 -0.1439 -0.5745  0.6054
 4142TIP3    H133917   3.382   1.280   1.520  0.0561  0.4274 -0.2047
 4142TIP3    H233918   3.245   1.344   1.503  0.4680  1.4623  0.3153
 4143TIP3   OH233919   6.417   0.409  17.028  0.0467 -0.0326  0.2477
 4143TIP3    H133920   6.414   0.321  17.067  0.0257  0.9336  2.4698
 4143TIP3    H233921   6.486   0.403  16.962  0.6236 -1.5028  0.9533
 4144TIP3   OH233922   4.426   3.500   3.059 -0.2027  0.5803 -0.1815
 4144TIP3    H133923   4.484   3.470   2.990 -1.3984  2.2803 -2.0008
 4144TIP3    H233924   4.440   3.595   3.062 -0.8138  0.6382  1.3125
 4145TIP3   OH233925   3.260   6.267   3.196  0.0839 -0.2316 -0.0143
 4145TIP3    H133926   3.167   6.261   3.174 -0.0765 -1.0638  0.8876
 4145TIP3    H233927   3.263   6.279   3.290  0.9408 -2.2425  0.2488
 4146TIP3   OH233928   2.630   0.734  14.678 -0.2046 -0.3507  0.2377
 4146TIP3    H133929   2.669   0.763  14.760 -1.5086  1.4580  0.2543
 4146TIP3    H233930   2.669   0.790  14.611 -0.8362 -0.2856 -0.0805
 4147TIP3   OH233931   6.077   4.884  15.131 -0.4451  1.0247 -0.0287
 4147TIP3    H133932   6.130   4.810  15.161 -1.2907  0.7981  0.9425
 4147TIP3    H233933   6.018   4.902  15.205  0.1636  3.0531 -0.0079
 4148TIP3   OH233934   2.350   5.069   1.461  0.3259  0.3673 -0.1797
 4148TIP3    H133935   2.396   5.039   1.383  1.8349  1.2822  0.3197
 4148TIP3    H233936   2.390   5.154   1.481 -1.6058  1.1997  0.2851
 4149TIP3   OH233937   4.054   6.365   3.710  0.2571 -0.7461  0.9332
 4149TIP3    H133938   4.114   6.439   3.702 -1.2934  0.2655 -2.2672
 4149TIP3    H233939   4.001   6.385   3.787 -1.4055  2.4743 -0.9477
 4150TIP3   OH233940   3.659   2.552   3.827 -0.0207  0.1519  0.4341
 4150TIP3    H133941   3.584   2.563   3.886 -0.9299  0.8120 -0.8107
 4150TIP3    H233942   3.734   2.582   3.878 -0.9025  1.4940  0.9678
 4151TIP3   OH233943   3.182   0.141   3.415 -0.5503  0.2659  0.0624
 4151TIP3    H133944   3.268   0.116   3.448  0.9814  4.5639 -0.3941
 4151TIP3    H233945   3.181   0.109   3.325  1.0197  1.1982 -0.2927
 4152TIP3   OH233946   4.236   3.871   4.151  0.1282  0.1213 -0.3787
 4152TIP3    H133947   4.317   3.836   4.113  0.3895 -0.5982  0.7995
 4152TIP3    H233948   4.266   3.927   4.223 -0.4057  0.3159 -0.3029
 4153TIP3   OH233949   6.191   5.396  13.883 -0.8867 -0.1842 -0.7568
 4153TIP3    H133950   6.181   5.430  13.794 -2.2060 -1.3478 -1.0769
 4153TIP3    H233951   6.284   5.405  13.902 -0.4697 -0.5481 -2.5293
 4154TIP3   OH233952   2.228   0.106   1.027  0.7141 -0.0887  0.7988
 4154TIP3    H133953   2.186   0.034   1.074  0.6458 -0.9112 -0.5032
 4154TIP3    H233954   2.172   0.182   1.044 -2.2758 -1.4724 -2.1922
 4155TIP3   OH233955   2.569   5.064   1.711  0.2276  0.0318  0.5364
 4155TIP3    H133956   2.542   5.047   1.620 -0.5772 -2.6742  1.2536
 4155TIP3    H233957   2.536   5.152   1.729 -0.8929  0.0220 -1.3240
 4156TIP3   OH233958   4.377   0.075  11.838 -0.3385  0.2869  0.3459
 4156TIP3    H133959   4.325   0.131  11.781  1.0107  0.4194 -0.8011
 4156TIP3    H233960   4.364  -0.013  11.803  1.6746  0.5459 -1.1555
 4157TIP3   OH233961   4.014   1.037  10.882  0.1380  0.2858  0.6816
 4157TIP3    H133962   3.957   0.994  10.819 -0.9160  2.5231  0.0796
 4157TIP3    H233963   3.957   1.063  10.954  0.9022 -0.0111  1.4132
 4158TIP3   OH233964   6.300   2.608   0.433 -0.2710 -0.0501  0.0806
 4158TIP3    H133965   6.224   2.578   0.383  0.4811  0.8476 -1.6265
 4158TIP3    H233966   6.281   2.699   0.455 -0.3014 -0.2398  0.8375
 4159TIP3   OH233967   1.542   1.482   5.036  0.0729 -0.2502  0.5361
 4159TIP3    H133968   1.508   1.461   4.949 -0.1466 -2.4740  1.1381
 4159TIP3    H233969   1.552   1.577   5.035 -1.4497 -0.0729 -1.3683
 4160TIP3   OH233970   1.077   2.991  14.167  0.3169 -0.3590 -0.0926
 4160TIP3    H133971   0.999   3.042  14.148  1.7124  1.1133 -2.0799
 4160TIP3    H233972   1.076   2.919  14.105  0.1776 -0.7368  0.3450
 4161TIP3   OH233973   4.495   3.396  12.706 -0.3767 -0.7333 -0.8357
 4161TIP3    H133974   4.553   3.472  12.693 -0.9408 -0.2819 -0.7134
 4161TIP3    H233975   4.541   3.342  12.770 -0.1490 -0.3119 -0.6360
 4162TIP3   OH233976   4.849   0.753  11.595 -0.1159 -0.5329  0.1399
 4162TIP3    H133977   4.894   0.746  11.679 -0.2745  0.3634  0.3149
 4162TIP3    H233978   4.791   0.829  11.606 -0.8310 -0.9835 -0.4576
 4163TIP3   OH233979   4.590   4.022   1.155  0.2569 -0.0678  0.1422
 4163TIP3    H133980   4.575   4.089   1.222  0.2980 -0.3846  0.4720
 4163TIP3    H233981   4.563   3.940   1.197  0.6660 -0.3221 -0.0851
 4164TIP3   OH233982   6.676   1.736   2.928  0.0288  0.0894 -0.0009
 4164TIP3    H133983   6.627   1.798   2.874 -1.3046 -0.8451  0.1004
 4164TIP3    H233984   6.683   1.779   3.013  0.2032  0.6329 -0.2889
 4165TIP3   OH233985   5.925   1.317   4.514 -0.1029 -0.0038  0.0767
 4165TIP3    H133986   5.917   1.260   4.438 -1.2542 -0.0512  0.2318
 4165TIP3    H233987   5.903   1.404   4.482  1.6076  0.3706 -0.1477
 4166TIP3   OH233988   4.597   3.558   1.738  0.7429 -0.1451  0.5290
 4166TIP3    H133989   4.660   3.548   1.809  0.2260 -1.3969  0.8236
 4166TIP3    H233990   4.577   3.469   1.711 -1.1908  0.2071  0.7047
 4167TIP3   OH233991   1.550   1.455  15.355 -0.5820 -0.0080  0.3462
 4167TIP3    H133992   1.595   1.488  15.277 -0.5510  0.6157  0.6235
 4167TIP3    H233993   1.525   1.366  15.332  1.4317 -0.6164  0.4515
 4168TIP3   OH233994   3.724   5.376   4.442  0.0211  0.6686  0.3364
 4168TIP3    H133995   3.819   5.375   4.457 -0.1107  1.8458  1.3208
 4168TIP3    H233996   3.713   5.429   4.363  0.2451 -0.3022 -0.3598
 4169TIP3   OH233997   1.752   4.428  17.105  0.7973  0.1432 -0.2494
 4169TIP3    H133998   1.698   4.484  17.050  2.2287  0.9620 -0.8367
 4169TIP3    H233999   1.819   4.392  17.046  2.9317  1.7815  1.1022
 4170TIP3   OH234000   3.844   4.353  14.958  0.4622  0.5539 -0.2751
 4170TIP3    H134001   3.885   4.273  14.926 -0.6634 -0.7721  1.5090
 4170TIP3    H234002   3.818   4.401  14.878  1.2585 -0.7832 -1.3498
 4171TIP3   OH234003   4.537   4.949  13.929  0.6059  0.1765  0.0830
 4171TIP3    H134004   4.461   4.891  13.940 -0.5080  1.3397 -1.2502
 4171TIP3    H234005   4.549   4.990  14.015  0.9530 -1.4734  0.8346
 4172TIP3   OH234006   5.113   3.882  10.591  0.5595 -0.3758 -0.0222
 4172TIP3    H134007   5.045   3.834  10.545  0.1748  1.0571 -0.9662
 4172TIP3    H234008   5.179   3.816  10.612  0.0519 -1.3121 -1.3234
 4173TIP3   OH234009   4.196   0.659  13.830  0.8653 -0.2014  0.0868
 4173TIP3    H134010   4.126   0.598  13.806  0.4720 -0.3359  1.5349
 4173TIP3    H234011   4.195   0.660  13.926  0.5271  2.4900  0.0724
 4174TIP3   OH234012   4.620   4.361   4.815 -0.0187 -0.0491 -0.4875
 4174TIP3    H134013   4.711   4.391   4.810 -0.1684  0.5212  0.1474
 4174TIP3    H234014   4.614   4.291   4.749  1.1482 -0.8190  0.2089
 4175TIP3   OH234015   3.891   6.289   6.355 -0.4190  0.3043 -0.1912
 4175TIP3    H134016   3.921   6.201   6.333 -0.9855  0.0203  0.1556
 4175TIP3    H234017   3.856   6.281   6.444 -2.1023  0.4762 -0.8260
 4176TIP3   OH234018   5.489   5.723   5.861  0.3296 -0.4720 -0.3714
 4176TIP3    H134019   5.470   5.770   5.780 -0.0285 -0.3900 -0.2437
 4176TIP3    H234020   5.491   5.791   5.929  0.5589 -0.5481 -0.2993
 4177TIP3   OH234021   2.682   3.188   1.847 -0.5257 -0.1252 -0.5163
 4177TIP3    H134022   2.697   3.122   1.779 -0.1039 -0.2737 -0.2829
 4177TIP3    H234023   2.591   3.215   1.835 -1.1992 -1.9277  0.4124
 4178TIP3   OH234024   4.454   4.696  16.896 -0.6232  0.3277 -0.2053
 4178TIP3    H134025   4.476   4.733  16.811 -2.0938  3.6401  0.8127
 4178TIP3    H234026   4.378   4.641  16.880  0.4100 -0.8053 -1.3760
 4179TIP3   OH234027   2.910   0.194   6.376  0.5572 -0.0640 -0.2317
 4179TIP3    H134028   2.958   0.277   6.376 -1.3466  1.0666  1.4556
 4179TIP3    H234029   2.867   0.190   6.461 -2.1070 -1.1634 -1.5520
 4180TIP3   OH234030   3.209   6.663   2.627  0.1411 -0.3866  0.1112
 4180TIP3    H134031   3.201   6.580   2.674 -1.2414  0.1651  0.8800
 4180TIP3    H234032   3.137   6.716   2.660 -0.8897  0.0102 -2.6788
 4181TIP3   OH234033   0.771   3.624   6.493  0.3407  0.2768 -0.0681
 4181TIP3    H134034   0.744   3.673   6.570 -0.9347  0.7775 -0.8306
 4181TIP3    H234035   0.856   3.586   6.518  0.3492  1.1308  1.2643
 4182TIP3   OH234036   1.368   4.373  10.936 -0.0869  0.2566  0.0670
 4182TIP3    H134037   1.461   4.353  10.927 -0.2037 -0.3659  0.2215
 4182TIP3    H234038   1.366   4.464  10.967  0.4920  0.0482  0.7399
 4183TIP3   OH234039   2.496   6.356   1.412  0.4885  0.3228 -0.2679
 4183TIP3    H134040   2.552   6.431   1.435 -0.1179  0.6482  0.1828
 4183TIP3    H234041   2.501   6.350   1.317  0.3239  1.1192 -0.3323
 4184TIP3   OH234042   1.687   0.793   2.112  0.0429  0.2133  0.1209
 4184TIP3    H134043   1.713   0.768   2.023  2.0837  1.1556  0.4206
 4184TIP3    H234044   1.697   0.713   2.163 -1.9937 -0.5609 -0.6458
 4185TIP3   OH234045   0.963   6.014  16.890  0.2735 -0.0959 -0.3170
 4185TIP3    H134046   0.918   5.934  16.919 -0.7066  0.9828  1.2424
 4185TIP3    H234047   0.958   6.012  16.795  0.3617 -1.9564 -0.2931
 4186TIP3   OH234048   3.522   0.667   1.417  0.1921 -0.1532  0.1318
 4186TIP3    H134049   3.475   0.584   1.429  0.3804 -0.4093 -0.8686
 4186TIP3    H234050   3.614   0.645   1.428  0.2254 -0.0287  0.1077
 4187TIP3   OH234051   1.879   3.533  11.052 -0.2605 -0.0573  0.2386
 4187TIP3    H134052   1.864   3.539  11.146 -0.8486 -0.0280  0.1429
 4187TIP3    H234053   1.792   3.539  11.013 -0.1479 -1.4989 -0.2423
 4188TIP3   OH234054   1.915   2.926  13.550 -0.1301 -0.2084 -0.6476
 4188TIP3    H134055   1.963   2.898  13.472  3.1079  1.2409  0.7230
 4188TIP3    H234056   1.855   2.994  13.518  2.2729  1.4855 -1.7087
 4189TIP3   OH234057   1.520   1.676  12.564  0.4031  0.3350 -0.0663
 4189TIP3    H134058   1.561   1.686  12.478  0.3194 -0.2742 -0.1762
 4189TIP3    H234059   1.441   1.626  12.548  0.8892 -0.6295  0.5079
 4190TIP3   OH234060   3.891   0.215  15.162 -0.0381  0.8547  0.1363
 4190TIP3    H134061   3.930   0.209  15.074  0.7907  1.2778  0.4746
 4190TIP3    H234062   3.797   0.209  15.146  0.2028 -1.9735 -0.5433
 4191TIP3   OH234063   0.380   2.403   0.299 -0.3941 -0.5876 -0.0804
 4191TIP3    H134064   0.315   2.364   0.357  0.0581 -0.5291  0.4673
 4191TIP3    H234065   0.386   2.341   0.225 -0.0214 -1.3185  0.5587
 4192TIP3   OH234066   4.197   0.495   1.835  0.1499 -0.0893  0.0749
 4192TIP3    H134067   4.114   0.450   1.822  0.3922 -0.4641 -0.1803
 4192TIP3    H234068   4.174   0.588   1.834 -0.2042 -0.1792 -0.4288
 4193TIP3   OH234069   3.653   6.270  16.109  0.0144  0.2000  0.2632
 4193TIP3    H134070   3.614   6.195  16.064 -0.3565  1.4621 -1.5370
 4193TIP3    H234071   3.745   6.268  16.083  0.1977 -0.1298  0.9190
 4194TIP3   OH234072   0.719   1.787  11.647  0.0833 -0.2948  0.2621
 4194TIP3    H134073   0.726   1.841  11.726  0.7791  1.2138 -0.8258
 4194TIP3    H234074   0.668   1.711  11.676  0.8457 -0.0750  2.3284
 4195TIP3   OH234075   2.588   1.174   0.918  0.2021  0.0279  0.4212
 4195TIP3    H134076   2.612   1.098   0.865 -1.2830  0.0853 -0.3416
 4195TIP3    H234077   2.513   1.144   0.970 -0.7544  1.1451 -0.3112
 4196TIP3   OH234078   2.257   1.201  13.932 -0.5661  0.5605 -0.2456
 4196TIP3    H134079   2.204   1.126  13.907 -0.7652  0.2948  0.9370
 4196TIP3    H234080   2.345   1.180  13.903 -0.1602 -1.1454  2.0484
 4197TIP3   OH234081   4.355   0.921  16.235 -0.3865  0.1959 -0.1832
 4197TIP3    H134082   4.310   0.999  16.202 -0.5186 -0.3861 -1.4279
 4197TIP3    H234083   4.439   0.920  16.189 -0.2342 -0.1965  0.1051
 4198TIP3   OH234084   0.989   6.347  14.020  0.5076  0.1172 -0.1560
 4198TIP3    H134085   1.051   6.419  14.029  1.7098 -0.9223  0.0574
 4198TIP3    H234086   0.947   6.362  13.935 -0.6155  2.0970  0.7194
 4199TIP3   OH234087   1.156   3.807   2.573 -0.1826 -0.3894  0.2632
 4199TIP3    H134088   1.068   3.826   2.540  0.1105 -1.0671 -0.9527
 4199TIP3    H234089   1.214   3.858   2.516  0.1392  1.4766  2.1754
 4200TIP3   OH234090   3.902   1.779   0.699  0.3639  0.0964  0.0054
 4200TIP3    H134091   3.939   1.840   0.635 -0.4341  2.2356  1.5211
 4200TIP3    H234092   3.807   1.795   0.695  0.0805 -1.5738 -0.0893
 4201TIP3   OH234093   3.670   6.222  13.989  0.0534 -0.4185 -0.2830
 4201TIP3    H134094   3.736   6.283  14.022 -0.7313  1.1102 -1.5029
 4201TIP3    H234095   3.659   6.245  13.897 -1.2639 -1.4932 -0.4130
 4202TIP3   OH234096   4.492   3.488   4.848  0.3414 -0.3886  0.3551
 4202TIP3    H134097   4.405   3.506   4.883  0.6246 -0.4853  1.1088
 4202TIP3    H234098   4.484   3.506   4.754 -0.4096 -0.1164  0.4681
 4203TIP3   OH234099   0.313   2.354   4.838  0.4947  0.2165  0.7044
 4203TIP3    H134100   0.294   2.332   4.746  1.4333 -0.1781  0.5924
 4203TIP3    H234101   0.253   2.425   4.859 -1.5131 -1.3860  0.5640
 4204TIP3   OH234102   3.817   4.752  14.042 -0.2003 -0.1683 -0.2098
 4204TIP3    H134103   3.841   4.718  13.956 -0.2353  0.8812 -0.6412
 4204TIP3    H234104   3.893   4.733  14.098 -1.2720 -3.3549  0.2478
 4205TIP3   OH234105   3.775   0.964   3.687  0.2858  0.6454 -0.0083
 4205TIP3    H134106   3.759   0.893   3.625 -2.4933  1.8886 -0.7970
 4205TIP3    H234107   3.794   1.040   3.632 -1.0571  1.4922  0.6719
 4206TIP3   OH234108   1.997   5.551  10.650 -0.3672 -0.2913 -0.5961
 4206TIP3    H134109   1.986   5.585  10.561  2.9651 -0.3325 -1.0853
 4206TIP3    H234110   2.091   5.553  10.665 -0.4458 -4.6935  1.2161
 4207TIP3   OH234111   4.278   5.713   0.227  0.0363  0.4615 -0.4613
 4207TIP3    H134112   4.366   5.708   0.191 -0.5609  0.5542 -1.9780
 4207TIP3    H234113   4.254   5.805   0.218  0.0255  0.5602  0.5472
 4208TIP3   OH234114   2.921   5.514  13.233 -0.2827  0.3820  0.0591
 4208TIP3    H134115   2.858   5.543  13.168 -1.2401 -1.6275  0.0373
 4208TIP3    H234116   2.962   5.437  13.194 -1.2003 -1.1361  1.9525
 4209TIP3   OH234117   2.117   5.701   3.428  0.2071  0.7353  0.0781
 4209TIP3    H134118   2.037   5.696   3.377 -0.3076  1.2063  0.8387
 4209TIP3    H234119   2.184   5.726   3.365 -0.2134  0.2186 -0.5818
 4210TIP3   OH234120   0.650   0.220   2.748  0.5355 -0.3529  0.3290
 4210TIP3    H134121   0.610   0.268   2.675 -1.2810  0.4233  1.7786
 4210TIP3    H234122   0.731   0.267   2.765  0.8478 -0.3776 -0.9959
 4211TIP3   OH234123   4.049   5.096  13.964  0.3736  0.4885 -0.4398
 4211TIP3    H134124   4.090   5.060  13.886  1.9095  3.0642 -0.8775
 4211TIP3    H234125   3.955   5.080  13.950  0.6400  0.6493 -2.6830
 4212TIP3   OH234126   6.694   0.737  13.847  0.5493  0.3019  0.2866
 4212TIP3    H134127   6.698   0.643  13.830 -0.6795  0.8023 -3.1056
 4212TIP3    H234128   6.601   0.759  13.840  0.8702  1.8437  0.6368
 4213TIP3   OH234129   6.377   5.032  17.065 -0.0813  0.2323 -0.3033
 4213TIP3    H134130   6.361   4.966  16.997 -0.3176 -0.3224  0.2857
 4213TIP3    H234131   6.383   5.115  17.017 -0.8895 -0.0662 -0.9319
 4214TIP3   OH234132   0.830   2.685  14.954 -0.5930 -0.1635  0.4853
 4214TIP3    H134133   0.753   2.728  14.991  0.3908  0.3298  1.9994
 4214TIP3    H234134   0.796   2.605  14.914 -1.8678 -0.0472  1.3054
 4215TIP3   OH234135   0.303   6.012   1.767  0.2718  0.9113  0.0668
 4215TIP3    H134136   0.252   6.088   1.797  1.0646  1.6953 -0.5382
 4215TIP3    H234137   0.239   5.956   1.723 -0.3668  1.1132  0.7232
 4216TIP3   OH234138   6.311   5.389  16.185 -0.1545 -0.0056 -0.2345
 4216TIP3    H134139   6.303   5.385  16.090 -0.4714  0.0045 -0.2080
 4216TIP3    H234140   6.291   5.301  16.215  1.3807 -0.3882 -0.2816
 4217TIP3   OH234141   4.641   0.908   0.071  0.8318  0.3410  0.0980
 4217TIP3    H134142   4.734   0.925   0.054  0.7618 -1.2881 -2.1272
 4217TIP3    H234143   4.596   0.941  -0.006 -0.2158 -0.8825  0.1662
 4218TIP3   OH234144   5.165   1.279  13.687  0.1831 -0.5313  0.2681
 4218TIP3    H134145   5.075   1.252  13.705 -0.8668  2.6876 -0.0162
 4218TIP3    H234146   5.211   1.266  13.770 -0.5992 -1.8312  0.5144
 4219TIP3   OH234147   1.466   3.350  13.905 -0.1139 -0.4356  0.3392
 4219TIP3    H134148   1.522   3.277  13.878  1.4014  0.8242 -0.0301
 4219TIP3    H234149   1.383   3.309  13.930  0.3613 -2.1821 -0.8189
 4220TIP3   OH234150   0.130   6.290  11.487  0.0746  0.0859  0.2600
 4220TIP3    H134151   0.210   6.333  11.518 -0.9098  1.3207  1.1458
 4220TIP3    H234152   0.083   6.359  11.440 -0.5701 -0.5833 -0.0777
 4221TIP3   OH234153   2.151   2.006  15.018 -0.7827 -0.3048  0.0022
 4221TIP3    H134154   2.153   1.950  15.094 -0.6130 -0.1609  0.1017
 4221TIP3    H234155   2.116   2.090  15.050 -0.3230 -0.1149  0.0029
 4222TIP3   OH234156   5.649   2.446  16.667  0.2556 -0.6054 -0.3638
 4222TIP3    H134157   5.657   2.363  16.621 -0.7289 -0.8152 -0.1668
 4222TIP3    H234158   5.636   2.421  16.759  1.0136 -0.2103 -0.1387
 4223TIP3   OH234159   0.067   5.104  13.624  0.8504 -0.1438 -0.0273
 4223TIP3    H134160   0.134   5.036  13.620  0.5697 -0.4313  0.1166
 4223TIP3    H234161   0.033   5.100  13.713 -0.6571 -1.2782 -0.6048
 4224TIP3   OH234162   6.091   3.989   0.830  0.1714 -0.1130  0.2209
 4224TIP3    H134163   6.136   4.073   0.832  1.1635 -0.6058 -0.9924
 4224TIP3    H234164   6.000   4.011   0.812 -0.2770  0.9501  3.3563
 4225TIP3   OH234165   0.279   2.412   5.764  0.3437 -0.5110  0.2068
 4225TIP3    H134166   0.252   2.371   5.846 -0.8902  1.6114  0.8850
 4225TIP3    H234167   0.323   2.342   5.716 -0.3705 -2.2167  1.9814
 4226TIP3   OH234168   6.484   6.217  13.966  0.1969  1.0531 -0.3468
 4226TIP3    H134169   6.431   6.194  14.042 -1.1779 -0.6967 -1.7813
 4226TIP3    H234170   6.476   6.312  13.959  1.0007  1.3204  2.1462
 4227TIP3   OH234171   2.457   0.119  15.202  0.3998  0.5013 -0.6292
 4227TIP3    H134172   2.471   0.143  15.111  0.5770  0.8750 -0.5083
 4227TIP3    H234173   2.372   0.075  15.204 -0.4894  2.1859 -0.6690
 4228TIP3   OH234174   2.283   5.804   3.886  0.2480  0.2258  0.5957
 4228TIP3    H134175   2.365   5.848   3.909 -0.5922  3.2065 -1.8062
 4228TIP3    H234176   2.296   5.775   3.796 -1.3624  0.9244  0.1125
 4229TIP3   OH234177   0.476   6.197  15.768  0.1649 -0.3394 -0.2141
 4229TIP3    H134178   0.556   6.151  15.743 -0.8878 -1.5576 -1.4871
 4229TIP3    H234179   0.406   6.142  15.733 -1.2841 -0.2749  2.5048
 4230TIP3   OH234180   4.224   2.824   3.378 -0.0573 -0.0635  0.0212
 4230TIP3    H134181   4.316   2.838   3.402 -0.1963 -1.7304  1.5970
 4230TIP3    H234182   4.180   2.904   3.406  0.7590  0.3383  0.1816
 4231TIP3   OH234183   5.373   5.807   6.363  0.0516 -0.3346  0.1507
 4231TIP3    H134184   5.454   5.800   6.313  0.0717 -2.2466  0.3890
 4231TIP3    H234185   5.344   5.897   6.351  2.6508  0.6143  0.7520
 4232TIP3   OH234186   2.753   5.686  16.065  0.1519 -0.0216  0.1813
 4232TIP3    H134187   2.678   5.730  16.106 -0.5621  0.2772 -1.4393
 4232TIP3    H234188   2.776   5.742  15.991  0.0342 -1.7022 -1.1446
 4233TIP3   OH234189   3.126   2.830   5.776 -0.1005  0.2097  0.2396
 4233TIP3    H134190   3.193   2.789   5.831 -1.5414 -0.4311  1.5382
 4233TIP3    H234191   3.067   2.873   5.837 -0.5528  1.3016 -0.9364
 4234TIP3   OH234192   4.585   2.378   4.840 -0.0321 -0.3780 -0.0306
 4234TIP3    H134193   4.619   2.411   4.757 -0.5714  0.7278  0.1795
 4234TIP3    H234194   4.512   2.321   4.816  2.2718 -3.2410 -0.5241
 4235TIP3   OH234195   4.185   4.734  13.878  0.1716  0.0968 -0.2347
 4235TIP3    H134196   4.263   4.759  13.928 -0.2262  0.3789  0.2438
 4235TIP3    H234197   4.170   4.809  13.819  1.0840 -0.5562 -1.3178
 4236TIP3   OH234198   2.453   0.955   2.186 -0.2594  0.2382  0.0583
 4236TIP3    H134199   2.379   0.984   2.133 -0.2168  1.2914  0.5792
 4236TIP3    H234200   2.435   0.862   2.204  0.0191 -0.2874 -2.2692
 4237TIP3   OH234201   6.066   5.397  14.999  0.2876 -0.0183  0.2092
 4237TIP3    H134202   6.042   5.304  14.993 -1.2778  0.4342 -0.9105
 4237TIP3    H234203   6.000   5.434  15.058  1.9988  0.0438  2.1302
 4238TIP3   OH234204   0.437   5.610  15.745  0.6381  0.0467  0.2127
 4238TIP3    H134205   0.451   5.621  15.839  1.0223  2.2678 -0.0771
 4238TIP3    H234206   0.523   5.627  15.706  0.4459 -0.6996 -0.5549
 4239TIP3   OH234207   0.967   2.077   4.752 -0.0567  0.2641 -0.3695
 4239TIP3    H134208   1.008   2.075   4.839  3.0745  0.2049 -1.7706
 4239TIP3    H234209   0.956   1.985   4.729  0.6704  0.2662 -0.7288
 4240TIP3   OH234210   5.574   2.854   4.936  0.4613  0.1943  0.0912
 4240TIP3    H134211   5.604   2.868   4.846 -1.4627  2.4412 -0.2699
 4240TIP3    H234212   5.489   2.900   4.940  0.0093 -0.7862  2.7380
 4241TIP3   OH234213   0.126   1.253   0.657 -0.1413 -0.3367 -0.1429
 4241TIP3    H134214   0.034   1.232   0.638 -0.2541  0.1067 -0.1081
 4241TIP3    H234215   0.140   1.222   0.746  0.2817 -2.0963 -0.8046
 4242TIP3   OH234216   4.319   2.087   4.277  0.4596  0.1331  0.4258
 4242TIP3    H134217   4.288   2.098   4.367  2.4188  1.1767  1.0202
 4242TIP3    H234218   4.415   2.091   4.285  0.6692 -0.5403 -1.6069
 4243TIP3   OH234219   5.273   3.946   4.120 -0.1617 -0.2401  0.4609
 4243TIP3    H134220   5.217   3.979   4.050  1.5389  2.4294  0.3052
 4243TIP3    H234221   5.297   3.857   4.092 -0.6837  0.2595 -1.6266
 4244TIP3   OH234222   6.341   0.251   3.635  0.4287 -0.1089 -0.2330
 4244TIP3    H134223   6.313   0.340   3.656  2.8810  0.8535 -0.7797
 4244TIP3    H234224   6.351   0.208   3.720 -0.0891  0.3572  0.0634
 4245TIP3   OH234225   3.032   5.010  13.652  0.8132  0.2311 -0.2254
 4245TIP3    H134226   2.971   5.080  13.628  0.6525  0.0111 -0.4708
 4245TIP3    H234227   2.976   4.934  13.667  1.1360 -0.3988 -2.0277
 4246TIP3   OH234228   2.107   3.354   2.508  0.5023 -0.4495  1.3200
 4246TIP3    H134229   2.153   3.433   2.538  0.4188  0.5965 -1.1081
 4246TIP3    H234230   2.177   3.290   2.494  0.5195 -1.0258  3.8136
 4247TIP3   OH234231   4.980   3.885  10.917  0.4039  0.0215  0.3762
 4247TIP3    H134232   4.950   3.797  10.894  1.9905 -0.3193 -0.4729
 4247TIP3    H234233   4.969   3.936  10.837  3.4716 -0.5007 -0.4335
 4248TIP3   OH234234   2.037   6.452   5.912 -0.5380  0.1792  0.4249
 4248TIP3    H134235   2.086   6.507   5.973  0.6103 -1.5580  1.0908
 4248TIP3    H234236   2.069   6.478   5.825 -0.2182  0.7430  0.7060
 4249TIP3   OH234237   4.999   2.329   0.051 -0.6254 -0.3926 -0.2042
 4249TIP3    H134238   5.069   2.374   0.098 -0.2697  0.3215 -1.4144
 4249TIP3    H234239   4.931   2.316   0.117 -0.5939  1.6256  0.2594
 4250TIP3   OH234240   5.042   0.892   1.139  0.0579  0.0374 -0.3202
 4250TIP3    H134241   4.991   0.815   1.114  1.6868 -1.8388  1.9505
 4250TIP3    H234242   4.977   0.962   1.144 -1.6841 -1.4486 -1.1328
 4251TIP3   OH234243   5.254   5.862   2.748 -0.5888 -0.1305 -0.1163
 4251TIP3    H134244   5.158   5.856   2.745 -0.5326 -0.9141 -0.3756
 4251TIP3    H234245   5.284   5.800   2.682  0.1402 -1.4984  1.4715
 4252TIP3   OH234246   5.330   1.227  13.480 -0.0001  0.3519  0.2011
 4252TIP3    H134247   5.403   1.282  13.510  0.0478  1.0670 -1.1374
 4252TIP3    H234248   5.259   1.244  13.542  0.0723  1.8200 -0.0880
 4253TIP3   OH234249   3.005   3.573  17.265  0.1335  0.2826  0.1726
 4253TIP3    H134250   3.074   3.562  17.330  2.6718  0.1683 -2.4647
 4253TIP3    H234251   3.020   3.659  17.226 -0.0591 -0.4867 -1.6837
 4254TIP3   OH234252   3.156   1.379  15.764  0.5047 -0.0103  0.7069
 4254TIP3    H134253   3.168   1.299  15.713  0.4495  1.2607 -1.3592
 4254TIP3    H234254   3.116   1.350  15.846 -0.6816 -1.9523 -0.5273
 4255TIP3   OH234255   4.635   1.547   2.388  0.2059 -0.3291  0.2123
 4255TIP3    H134256   4.637   1.629   2.437  0.1064  0.1088 -0.5129
 4255TIP3    H234257   4.593   1.485   2.447  0.1408  0.1786  0.7038
 4256TIP3   OH234258   3.617   4.111  14.495 -0.2253  0.3084 -0.2889
 4256TIP3    H134259   3.706   4.107  14.528 -0.8309 -0.0673  1.3566
 4256TIP3    H234260   3.616   4.050  14.421  0.6006 -0.5203  0.3665
 4257TIP3   OH234261   3.692   6.744   1.065  0.1447 -0.0119  0.4878
 4257TIP3    H134262   3.756   6.726   1.134  0.5919  2.6663  0.8500
 4257TIP3    H234263   3.622   6.793   1.109  0.2542  1.3945 -0.8637
 4258TIP3   OH234264   5.318   0.113   4.994  0.3236  0.6127 -0.2913
 4258TIP3    H134265   5.255   0.182   4.974  1.1905  1.5279  0.1392
 4258TIP3    H234266   5.310   0.099   5.089 -0.8356 -0.8601 -0.5728
 4259TIP3   OH234267   5.290   3.518   1.949  0.3495  0.0676  0.6137
 4259TIP3    H134268   5.246   3.578   1.889  1.1421  2.2890  2.2227
 4259TIP3    H234269   5.347   3.465   1.892 -0.4648  0.7244 -0.8309
 4260TIP3   OH234270   4.079   2.849   2.218  0.2121 -0.2443  0.5259
 4260TIP3    H134271   4.103   2.898   2.139  0.3619 -1.6177 -0.2963
 4260TIP3    H234272   4.051   2.764   2.186 -1.7972 -0.0982  1.8006
 4261TIP3   OH234273   4.314   4.669  12.326 -0.3222  0.3152 -0.2467
 4261TIP3    H134274   4.390   4.665  12.384 -1.7025 -0.8391  1.5218
 4261TIP3    H234275   4.263   4.743  12.358  1.0631  2.4155 -2.7494
 4262TIP3   OH234276   4.705   6.266  11.565 -0.2117  0.3002  0.0869
 4262TIP3    H134277   4.750   6.211  11.501  0.3158 -0.3049  0.9707
 4262TIP3    H234278   4.720   6.356  11.534 -1.6968 -0.0424 -1.7750
 4263TIP3   OH234279   2.620   5.633  13.361 -0.1862 -0.3403  0.5689
 4263TIP3    H134280   2.572   5.716  13.357 -0.6435 -0.5914  0.7645
 4263TIP3    H234281   2.709   5.656  13.336 -0.4350  0.1162  0.0758
 4264TIP3   OH234282   6.707   5.318   2.100  0.0348 -0.1406 -0.1236
 4264TIP3    H134283   6.664   5.401   2.078 -0.6513 -0.3450  0.4178
 4264TIP3    H234284   6.791   5.344   2.137 -0.1865  0.3215  0.0630
 4265TIP3   OH234285   6.580   2.399  12.680  0.3393 -0.7656  0.4338
 4265TIP3    H134286   6.614   2.440  12.601 -1.0879  1.3063  0.8444
 4265TIP3    H234287   6.585   2.305  12.663 -0.9653 -0.3333 -2.5448
 4266TIP3   OH234288   5.154   4.169   4.527  0.2108  0.2098  0.0762
 4266TIP3    H134289   5.217   4.119   4.475  0.6654 -0.2208  1.0280
 4266TIP3    H234290   5.178   4.261   4.511 -0.2768  0.1075 -1.2375
 4267TIP3   OH234291   0.294   2.877  13.673  0.2524  0.2346  0.2937
 4267TIP3    H134292   0.249   2.799  13.643 -0.5885  1.7283 -2.4488
 4267TIP3    H234293   0.343   2.908  13.597  0.8287  2.1884  1.4204
 4268TIP3   OH234294   3.323   0.719  15.655 -0.3066 -0.1802 -1.1584
 4268TIP3    H134295   3.256   0.751  15.594 -1.9238 -0.9617  0.1529
 4268TIP3    H234296   3.315   0.624  15.652  1.4181 -0.3069 -1.7070
 4269TIP3   OH234297   2.451   6.003   6.627 -0.2865  0.2498  0.0666
 4269TIP3    H134298   2.419   5.984   6.715  0.1087 -0.8524 -0.0179
 4269TIP3    H234299   2.468   6.097   6.627  0.6154  0.0968  1.4746
 4270TIP3   OH234300   2.474   0.511   2.281  0.2633 -0.3502 -0.0574
 4270TIP3    H134301   2.381   0.535   2.281 -0.3155 -2.4621 -1.4083
 4270TIP3    H234302   2.494   0.494   2.373 -1.0121 -1.0604  0.1099
 4271TIP3   OH234303   6.446   0.905   4.728  0.1632  1.1132 -0.6743
 4271TIP3    H134304   6.511   0.907   4.657 -0.5073 -1.7921 -1.4385
 4271TIP3    H234305   6.364   0.882   4.685 -0.5053  0.4998  0.8914
 4272TIP3   OH234306   4.861   1.707  16.005 -0.1335  0.1695 -0.5551
 4272TIP3    H134307   4.931   1.641  16.008 -0.6687 -0.5113 -2.2875
 4272TIP3    H234308   4.832   1.707  15.914 -1.6808  1.2027 -0.0824
 4273TIP3   OH234309   5.568   2.462  12.097 -0.0697 -0.2268 -0.0935
 4273TIP3    H134310   5.604   2.422  12.176 -0.6228 -0.5091  0.0232
 4273TIP3    H234311   5.561   2.555  12.119 -2.5870 -0.6441  1.1468
 4274TIP3   OH234312   0.727   1.726   6.361 -0.3861 -0.8449 -0.0918
 4274TIP3    H134313   0.658   1.773   6.406  0.4404  0.1008  0.2134
 4274TIP3    H234314   0.808   1.762   6.396  0.2687 -0.6406 -1.7603
 4275TIP3   OH234315   4.006   1.751  17.163  0.6193  0.3407  0.2847
 4275TIP3    H134316   3.938   1.684  17.157 -0.2682  1.3492 -1.4750
 4275TIP3    H234317   4.076   1.719  17.106  0.5873  0.4498  0.1827
 4276TIP3   OH234318   5.345   3.703   0.844  0.4422 -0.5400  0.1476
 4276TIP3    H134319   5.385   3.790   0.845  0.2062 -0.3992 -1.3749
 4276TIP3    H234320   5.381   3.662   0.766 -2.1567 -0.5045 -1.1211
 4277TIP3   OH234321   3.958   1.681  13.813  0.4109  0.4138 -0.1913
 4277TIP3    H134322   3.895   1.714  13.748 -1.6506  0.1185  1.6116
 4277TIP3    H234323   3.943   1.587  13.815  1.1850  0.2928 -0.0143
 4278TIP3   OH234324   4.426   1.605  13.910 -0.3340  0.3826  0.5583
 4278TIP3    H134325   4.367   1.680  13.899 -0.6170  0.0934  0.1350
 4278TIP3    H234326   4.405   1.547  13.837 -1.3645 -0.9665  1.9205
 4279TIP3   OH234327   4.653   1.476  13.669 -0.4580  0.0258  0.5427
 4279TIP3    H134328   4.662   1.571  13.657 -0.3029 -0.2052 -1.3767
 4279TIP3    H234329   4.561   1.463  13.691 -0.2841  0.6976  1.6982
 4280TIP3   OH234330   5.330   3.399   0.012 -0.0614 -0.3794  0.2009
 4280TIP3    H134331   5.413   3.416   0.057  0.2504 -1.1276 -0.0914
 4280TIP3    H234332   5.292   3.324   0.058  0.0251 -0.8346 -0.4611
 4281TIP3   OH234333   3.280   1.816  16.918  0.6668  0.1558 -0.4983
 4281TIP3    H134334   3.212   1.796  16.854 -0.2334 -0.7860  0.7305
 4281TIP3    H234335   3.361   1.781  16.879  0.1985 -0.0262 -1.3053
 4282TIP3   OH234336   6.598   0.894  16.438 -0.0293 -0.1770 -0.1434
 4282TIP3    H134337   6.633   0.854  16.517  2.4892  0.5786 -0.8465
 4282TIP3    H234338   6.549   0.824  16.395 -0.4590 -0.8910  1.4876
 4283TIP3   OH234339   2.792   2.575   6.734  0.0453  0.6738  0.4500
 4283TIP3    H134340   2.784   2.663   6.697 -1.7780  0.9007  1.3332
 4283TIP3    H234341   2.852   2.584   6.807  1.7138  0.7045 -0.8882
 4284TIP3   OH234342   2.168   2.073  13.312  0.2386  0.0359 -0.3668
 4284TIP3    H134343   2.105   2.139  13.338  0.0789  0.3102 -1.4074
 4284TIP3    H234344   2.143   1.995  13.360 -1.1087  0.0464 -1.0241
 4285TIP3   OH234345   5.191   3.646  14.967  0.5374 -0.2810  0.6041
 4285TIP3    H134346   5.140   3.643  14.885 -0.6242  1.3566  1.2409
 4285TIP3    H234347   5.263   3.586  14.952  0.3478 -0.0052 -1.6566
 4286TIP3   OH234348   3.304   1.913  12.311  0.0226 -0.2104 -0.4199
 4286TIP3    H134349   3.375   1.850  12.320 -0.4576 -0.7025 -0.0401
 4286TIP3    H234350   3.312   1.970  12.388  0.6949  0.4393 -0.9657
 4287TIP3   OH234351   3.437   2.337   2.537  0.2206  0.0558  0.8765
 4287TIP3    H134352   3.402   2.338   2.448  0.9583  1.9836  0.5833
 4287TIP3    H234353   3.359   2.335   2.593 -0.2890  0.8776  0.2102
 4288TIP3   OH234354   5.509   4.256  11.058  0.2506 -0.2464 -0.0494
 4288TIP3    H134355   5.421   4.287  11.038  0.6154  2.1832  1.9024
 4288TIP3    H234356   5.514   4.170  11.015 -3.4037 -0.8961  0.6083
 4289TIP3   OH234357   1.751   6.524   1.044  0.5527 -0.6677 -0.4326
 4289TIP3    H134358   1.728   6.492   0.957 -2.4711 -0.3437  0.1744
 4289TIP3    H234359   1.670   6.513   1.095  1.8479  0.4688  1.9383
 4290TIP3   OH234360   2.058   3.442  16.553  0.6867 -0.1915 -0.7236
 4290TIP3    H134361   1.983   3.392  16.585  0.7914  1.1256  1.7183
 4290TIP3    H234362   2.119   3.442  16.626  0.5309  3.7720 -0.5184
 4291TIP3   OH234363   1.630   0.350   2.628  0.2527 -0.1810 -0.6062
 4291TIP3    H134364   1.572   0.368   2.702  0.7740  0.4414 -0.3437
 4291TIP3    H234365   1.718   0.373   2.660  0.3900  0.7996 -1.6630
 4292TIP3   OH234366   1.465   2.075   5.533  0.1136  0.2725  0.2522
 4292TIP3    H134367   1.439   2.166   5.551 -0.4394  0.5968 -2.0848
 4292TIP3    H234368   1.559   2.073   5.553 -0.1034  1.0599  1.4129
 4293TIP3   OH234369   4.501   6.128  11.972 -0.4684  0.5147 -0.6264
 4293TIP3    H134370   4.475   6.058  12.033  1.0933  0.4010 -0.0693
 4293TIP3    H234371   4.587   6.156  12.003 -0.5771  1.9101 -1.5404
 4294TIP3   OH234372   5.692   0.797  16.767  0.3814  0.2337  0.3414
 4294TIP3    H134373   5.656   0.709  16.775 -0.6000  0.4013 -1.8458
 4294TIP3    H234374   5.780   0.790  16.804  0.2350 -1.6127  0.3982
 4295TIP3   OH234375   1.854   2.348   1.068  0.2292  0.4124  0.4527
 4295TIP3    H134376   1.838   2.410   1.139 -1.8541  0.1018  0.2904
 4295TIP3    H234377   1.783   2.364   1.005  0.2222 -1.4658 -0.0483
 4296TIP3   OH234378   0.504   6.357   5.368 -0.2859  0.5870  0.6763
 4296TIP3    H134379   0.448   6.402   5.432 -0.3924  1.2190  0.1392
 4296TIP3    H234380   0.508   6.416   5.293 -0.0744 -0.1085  0.1328
 4297TIP3   OH234381   1.252   5.679  15.738 -0.0691  0.1778 -0.9848
 4297TIP3    H134382   1.176   5.703  15.791  1.2648 -0.0096  1.0553
 4297TIP3    H234383   1.314   5.751  15.750  1.5632 -1.4110  0.4017
 4298TIP3   OH234384   5.061   0.285  12.384  0.0953 -0.3988 -0.2119
 4298TIP3    H134385   5.118   0.308  12.310 -1.9419  0.5944 -1.5061
 4298TIP3    H234386   5.102   0.327  12.459  0.7069  0.8954 -1.2398
 4299TIP3   OH234387   0.388   6.088   3.915  0.5700 -0.1648  0.0700
 4299TIP3    H134388   0.421   6.141   3.842  1.0003  0.2904  0.5851
 4299TIP3    H234389   0.369   6.002   3.876  3.2651 -0.7462 -0.0773
 4300TIP3   OH234390   5.702   3.006  13.027 -0.2823  0.0827  0.0256
 4300TIP3    H134391   5.760   2.985  13.100 -0.6103  1.5392  0.7221
 4300TIP3    H234392   5.621   2.959  13.048  0.3652 -1.3276 -0.5609
 4301TIP3   OH234393   6.673   0.785   5.591  0.4891 -0.1318  0.4760
 4301TIP3    H134394   6.739   0.732   5.635  0.1239 -1.1365 -0.1777
 4301TIP3    H234395   6.595   0.729   5.588 -0.3925  1.0314  1.2188
 4302TIP3   OH234396   5.781   1.025   1.653 -0.6617 -0.2805  0.4750
 4302TIP3    H134397   5.753   0.934   1.646 -3.1426  0.4470  0.5992
 4302TIP3    H234398   5.730   1.060   1.726  0.1021  1.2770  0.2722
 4303TIP3   OH234399   3.198   6.598   5.084  0.2579  0.6029 -0.1688
 4303TIP3    H134400   3.152   6.524   5.045  0.1565  0.0943  0.9017
 4303TIP3    H234401   3.285   6.564   5.104  0.9608  1.4299 -1.7564
 4304TIP3   OH234402   6.127   5.042   4.120 -0.5252  0.1614 -0.1966
 4304TIP3    H134403   6.153   5.066   4.209 -0.1704 -0.0363 -0.2473
 4304TIP3    H234404   6.072   5.115   4.090 -0.2912  0.4265  0.0267
 4305TIP3   OH234405   3.438   6.168  16.745 -0.2383  0.4440  0.3688
 4305TIP3    H134406   3.481   6.252  16.765 -1.2026  0.6756  1.5474
 4305TIP3    H234407   3.346   6.182  16.768 -0.7587 -0.3806 -1.1343
 4306TIP3   OH234408   3.103   5.603  10.656  0.1615  0.3186  0.0599
 4306TIP3    H134409   3.144   5.651  10.585  0.2610 -1.2628 -0.9790
 4306TIP3    H234410   3.016   5.641  10.664 -0.1072  0.0376 -1.4068
 4307TIP3   OH234411   0.717   0.523  14.347  0.3934 -0.1325 -0.4005
 4307TIP3    H134412   0.750   0.578  14.418  0.1083  0.0495 -0.4082
 4307TIP3    H234413   0.795   0.484  14.309  0.4514 -1.1746  0.7822
 4308TIP3   OH234414   5.640   5.909   2.222 -0.3657  1.0160 -0.0659
 4308TIP3    H134415   5.604   5.899   2.134 -1.2641 -1.7455  0.5384
 4308TIP3    H234416   5.690   5.828   2.237 -0.0876  1.5094  1.8776
 4309TIP3   OH234417   4.608   2.333   0.120  0.5097 -0.4859 -0.1676
 4309TIP3    H134418   4.626   2.248   0.080  2.6547 -1.3650  2.5114
 4309TIP3    H234419   4.634   2.323   0.211 -0.9588  2.5088  0.6594
 4310TIP3   OH234420   1.342   0.709  11.004 -0.4770  0.4176 -0.1302
 4310TIP3    H134421   1.421   0.664  10.975  0.2007  0.4001  1.6959
 4310TIP3    H234422   1.292   0.643  11.050 -0.3127  1.0591  0.9962
 4311TIP3   OH234423   5.630   6.587   0.079 -0.1983 -0.2594 -0.1361
 4311TIP3    H134424   5.566   6.532   0.034  1.1048 -0.9484 -1.1781
 4311TIP3    H234425   5.625   6.672   0.035 -0.1670 -0.4025 -0.4103
 4312TIP3   OH234426   6.559   1.512  13.538 -0.0744 -0.1340 -0.1880
 4312TIP3    H134427   6.571   1.479  13.449 -1.2341 -0.8669 -0.0829
 4312TIP3    H234428   6.469   1.488  13.560  0.9061 -1.8889  1.9815
 4313TIP3   OH234429   3.893   2.619   1.900 -1.2968  0.2084 -0.2288
 4313TIP3    H134430   3.931   2.587   1.983  1.2933 -1.6689 -2.0417
 4313TIP3    H234431   3.815   2.565   1.887  0.5961 -2.4793 -1.0236
 4314TIP3   OH234432   4.276   4.201   5.712  0.4829 -0.7235 -0.3062
 4314TIP3    H134433   4.265   4.258   5.787  0.0838 -2.1144  0.7181
 4314TIP3    H234434   4.260   4.257   5.636  1.2277  0.7776  0.6173
 4315TIP3   OH234435   4.639   0.451   2.119 -0.5319  0.0801  0.2310
 4315TIP3    H134436   4.599   0.487   2.197  2.8395 -1.0287  2.5974
 4315TIP3    H234437   4.707   0.515   2.095 -0.1958 -0.5660 -0.5943
 4316TIP3   OH234438   1.980   5.720   5.404  0.2451  0.2287 -0.1342
 4316TIP3    H134439   2.032   5.725   5.324  1.2916 -1.8007  0.3817
 4316TIP3    H234440   2.045   5.706   5.473 -0.7452  0.7828  0.9319
 4317TIP3   OH234441   6.734   1.606   5.209  0.2537 -0.0495 -0.2832
 4317TIP3    H134442   6.754   1.629   5.300 -0.3978  2.4224 -0.7190
 4317TIP3    H234443   6.642   1.580   5.210  0.1682  0.2490 -0.2715
 4318TIP3   OH234444   4.160   0.659   5.888  0.2589  0.2439  0.1794
 4318TIP3    H134445   4.204   0.602   5.825  2.1411 -0.1400  1.7886
 4318TIP3    H234446   4.069   0.660   5.859  0.5669 -2.0032 -1.0243
 4319TIP3   OH234447   4.844   3.478   0.590 -0.1012 -0.5493  0.1665
 4319TIP3    H134448   4.799   3.482   0.674 -0.1389  0.0067  0.1229
 4319TIP3    H234449   4.897   3.558   0.587 -0.6996 -0.1675 -0.6758
 4320TIP3   OH234450   5.759   5.983  12.053 -0.0952 -0.3251 -0.0856
 4320TIP3    H134451   5.835   6.031  12.018 -0.0057  0.6693  1.4222
 4320TIP3    H234452   5.797   5.905  12.093  0.4403  1.3177  2.7550
 4321TIP3   OH234453   3.066   3.763   0.369  0.4874 -0.0571 -0.2372
 4321TIP3    H134454   3.076   3.691   0.432 -0.8136 -0.3371 -0.3362
 4321TIP3    H234455   2.985   3.742   0.321  0.2172  1.3560 -0.4184
 4322TIP3   OH234456   5.322   5.564   1.184 -0.7288  0.3120  0.2874
 4322TIP3    H134457   5.297   5.654   1.163 -1.6373 -0.7503 -3.4339
 4322TIP3    H234458   5.418   5.565   1.185 -0.7341  1.5934  1.7095
 4323TIP3   OH234459   5.231   4.836  11.045  0.8936 -0.2914 -0.3138
 4323TIP3    H134460   5.168   4.829  10.973 -1.3979  1.3641  1.4719
 4323TIP3    H234461   5.296   4.899  11.013  0.5032 -0.4109 -1.3572
 4324TIP3   OH234462   4.694   1.700  13.186 -0.7578 -0.1853  0.2249
 4324TIP3    H134463   4.742   1.657  13.115  1.9433  1.4457  1.0020
 4324TIP3    H234464   4.635   1.633  13.219 -0.0748 -1.8070 -1.7494
 4325TIP3   OH234465   6.632   5.681  17.166  0.3674  0.2710  0.2113
 4325TIP3    H134466   6.678   5.644  17.241 -0.7433 -0.9923  0.2917
 4325TIP3    H234467   6.671   5.639  17.090 -0.5484 -0.7184  0.2718
 4326TIP3   OH234468   0.440   1.959  14.976  0.2974  0.4742 -0.2361
 4326TIP3    H134469   0.346   1.949  14.965  0.2745 -0.9447  0.9521
 4326TIP3    H234470   0.474   1.870  14.969  1.8955  1.2623 -3.3537
 4327TIP3   OH234471   5.098   3.636  12.746 -0.4445  0.2179  0.0933
 4327TIP3    H134472   5.158   3.566  12.774 -2.1933 -1.3579 -0.0155
 4327TIP3    H234473   5.020   3.623  12.800 -1.7963  0.4621 -1.7687
 4328TIP3   OH234474   1.160   0.738  14.132  0.0245  0.1393  0.2266
 4328TIP3    H134475   1.066   0.728  14.121  0.5918 -2.0648 -3.1412
 4328TIP3    H234476   1.175   0.833  14.127 -1.9715  0.4893  0.6162
 4329TIP3   OH234477   3.132   2.689  11.883  0.0429  0.1263  0.2088
 4329TIP3    H134478   3.110   2.601  11.912  2.4762 -0.3067  0.8185
 4329TIP3    H234479   3.102   2.746  11.954  1.4364 -0.5003  1.3080
 4330TIP3   OH234480   2.526   3.583  12.103  0.5918  0.1018 -0.2205
 4330TIP3    H134481   2.563   3.612  12.187 -0.0875  2.2235 -0.6071
 4330TIP3    H234482   2.598   3.593  12.041  0.5095  0.4807 -0.2576
 4331TIP3   OH234483   0.274   3.599   6.150 -0.0944  0.1592  0.3189
 4331TIP3    H134484   0.289   3.688   6.183  0.2727  0.2328 -0.0446
 4331TIP3    H234485   0.322   3.543   6.211 -0.6069  0.1851  0.7450
 4332TIP3   OH234486   0.041   2.272   2.876  0.1214  0.5460 -0.3514
 4332TIP3    H134487   0.091   2.250   2.954 -0.3145  1.7056  0.2697
 4332TIP3    H234488  -0.038   2.219   2.882  0.3900  0.1531 -0.3310
 4333TIP3   OH234489   1.826   1.011   2.178  0.4141 -0.3811  0.2146
 4333TIP3    H134490   1.745   0.977   2.141  0.2200  0.2061  0.1005
 4333TIP3    H234491   1.885   0.935   2.180  0.9381 -0.1054 -2.6597
 4334TIP3   OH234492   2.594   6.330  16.044  0.3902  0.1584  0.6161
 4334TIP3    H134493   2.604   6.416  16.004 -1.5444 -0.0366 -0.3559
 4334TIP3    H234494   2.620   6.268  15.976 -0.1846 -0.0930  0.6238
 4335TIP3   OH234495   6.238   1.312  17.260 -0.3168 -0.1159  0.2740
 4335TIP3    H134496   6.180   1.282  17.190 -0.5782  0.0170  0.4309
 4335TIP3    H234497   6.178   1.345  17.327 -0.0806 -0.6933  0.7647
 4336TIP3   OH234498   2.690   5.254  10.933  0.5774 -0.1058 -0.2402
 4336TIP3    H134499   2.676   5.349  10.937 -0.3568 -0.2478  0.0588
 4336TIP3    H234500   2.766   5.243  10.876  1.1064  0.8584  0.2719
 4337TIP3   OH234501   3.564   4.187  13.721  0.4003 -0.5807  0.4200
 4337TIP3    H134502   3.494   4.164  13.659  0.4994  0.4000 -0.0666
 4337TIP3    H234503   3.520   4.233  13.792  0.7690  1.8190 -0.8423
 4338TIP3   OH234504   5.790   2.249   4.378  0.0541  0.4797 -0.0733
 4338TIP3    H134505   5.770   2.291   4.294 -1.4549  0.9073  0.4990
 4338TIP3    H234506   5.714   2.266   4.433 -0.0357 -1.9168  0.5899
 4339TIP3   OH234507   5.716   1.020   6.240 -0.1072 -0.0938 -0.6829
 4339TIP3    H134508   5.738   1.088   6.176 -0.1561  0.6421  0.0682
 4339TIP3    H234509   5.621   1.023   6.246 -0.0437  0.4896  0.1145
 4340TIP3   OH234510   6.030   4.133  13.074  0.2975 -0.1631 -0.2984
 4340TIP3    H134511   5.993   4.081  13.145 -1.0246  1.2505  0.0619
 4340TIP3    H234512   6.015   4.081  12.995  0.6710 -1.1758  0.2957
 4341TIP3   OH234513   6.040   4.833  14.720 -0.5585 -0.3471  0.0483
 4341TIP3    H134514   6.022   4.904  14.783 -0.1271 -0.1738 -0.0196
 4341TIP3    H234515   5.987   4.855  14.644  2.5772  2.1221 -1.5554
 4342TIP3   OH234516   1.663   6.247  12.816 -0.5065 -0.2985  0.6945
 4342TIP3    H134517   1.613   6.165  12.810  0.3602 -0.7569 -0.6055
 4342TIP3    H234518   1.670   6.264  12.909 -0.6575 -1.7371  0.9788
 4343TIP3   OH234519   1.307   1.506  12.484  0.0026 -0.2191 -0.5489
 4343TIP3    H134520   1.279   1.423  12.523  1.9288 -1.5434 -1.9084
 4343TIP3    H234521   1.313   1.489  12.390 -1.6693  2.0998 -1.1495
 4344TIP3   OH234522   1.941   6.319  11.158 -0.5387  0.0156 -0.4469
 4344TIP3    H134523   1.944   6.223  11.157  0.5585  0.0367  0.4344
 4344TIP3    H234524   2.031   6.346  11.175 -1.2711  1.1538  1.7622
 4345TIP3   OH234525   3.708   4.367  11.099 -0.1190 -0.2999  0.2183
 4345TIP3    H134526   3.677   4.336  11.014  2.1829 -1.7412 -0.1178
 4345TIP3    H234527   3.631   4.363  11.156 -1.0000 -1.9672 -1.0774
 4346TIP3   OH234528   0.231   2.591   6.563 -0.0885 -0.3557 -0.5706
 4346TIP3    H134529   0.251   2.577   6.470  1.0594 -1.6965 -0.1548
 4346TIP3    H234530   0.277   2.672   6.586  2.8315 -1.9997 -0.2899
 4347TIP3   OH234531   3.231   2.876  11.566  0.0353  0.9064 -0.1109
 4347TIP3    H134532   3.249   2.938  11.495 -0.5235  0.3677 -0.7301
 4347TIP3    H234533   3.208   2.932  11.641  2.6385  1.5295  0.2440
 4348TIP3   OH234534   5.204   3.438  14.685  0.6134 -0.1917  0.2584
 4348TIP3    H134535   5.238   3.362  14.639 -0.8229  0.8419 -2.5967
 4348TIP3    H234536   5.109   3.424  14.688  0.6136  0.0606  2.4081
 4349TIP3   OH234537   1.308   0.661  16.516  0.5496 -0.0245 -0.4012
 4349TIP3    H134538   1.357   0.601  16.460 -0.6098 -0.1655 -1.2904
 4349TIP3    H234539   1.221   0.620  16.524  0.8030 -0.1960  1.8121
 4350TIP3   OH234540   0.280   3.929   0.393 -0.4853  0.9432 -0.4576
 4350TIP3    H134541   0.184   3.934   0.387 -0.4789  0.8949 -0.6019
 4350TIP3    H234542   0.304   3.995   0.458 -0.6412  0.7634 -0.2150
 4351TIP3   OH234543   3.938   3.971  14.249 -0.2217  0.7425  0.1507
 4351TIP3    H134544   3.843   3.957  14.251 -0.4428  2.2843  1.6409
 4351TIP3    H234545   3.972   3.918  14.321  0.2071 -0.7040 -1.0851
 4352TIP3   OH234546   0.113   0.186   4.339  0.0186 -0.4810  0.3171
 4352TIP3    H134547   0.021   0.188   4.363  0.5301 -1.8321  2.5248
 4352TIP3    H234548   0.129   0.095   4.312  0.6420 -0.1967 -0.2814
 4353TIP3   OH234549   1.278   3.616  11.830  0.0779 -0.7188 -0.0912
 4353TIP3    H134550   1.268   3.711  11.826 -0.7314 -0.7390  1.1355
 4353TIP3    H234551   1.195   3.581  11.797 -0.2439 -0.9688  0.9394
 4354TIP3   OH234552   4.141   0.966   5.037  0.2400 -0.3341  0.5885
 4354TIP3    H134553   4.068   1.015   4.999  0.5995 -1.8056 -2.1722
 4354TIP3    H234554   4.132   0.977   5.131 -2.9689  0.3110  0.2424
 4355TIP3   OH234555   3.684   4.684  11.786 -0.0170 -0.5260 -0.0832
 4355TIP3    H134556   3.677   4.730  11.870  0.9101  2.5017 -1.5718
 4355TIP3    H234557   3.604   4.632  11.780 -0.2409 -0.5286  2.5155
 4356TIP3   OH234558   0.117   2.755   2.285  0.2179  0.4911 -0.3505
 4356TIP3    H134559   0.127   2.759   2.380  1.3790  3.1296 -0.5208
 4356TIP3    H234560   0.193   2.705   2.255  0.8804  1.2756 -0.0042
 4357TIP3   OH234561   0.364   0.569  11.796 -0.1152  0.3433  0.5507
 4357TIP3    H134562   0.354   0.507  11.724 -1.3125 -0.7034  1.5854
 4357TIP3    H234563   0.429   0.632  11.765  0.7892 -1.1669 -0.6943
 4358TIP3   OH234564   1.293   5.410  15.994 -0.1002  0.3455 -0.1952
 4358TIP3    H134565   1.373   5.429  16.043  0.1849  0.7454 -0.8157
 4358TIP3    H234566   1.292   5.473  15.923 -0.3787 -0.4153 -0.8770
 4359TIP3   OH234567   2.571   1.897  13.629 -0.7894 -0.6357 -0.2565
 4359TIP3    H134568   2.535   1.971  13.579 -0.0711 -0.4428 -0.5030
 4359TIP3    H234569   2.618   1.939  13.702  1.0185 -0.7625 -1.3134
 4360TIP3   OH234570   1.724   6.633   1.710  0.4005 -0.1486  0.1570
 4360TIP3    H134571   1.648   6.618   1.654  0.4678  2.6431 -0.7673
 4360TIP3    H234572   1.691   6.620   1.799 -0.6936 -0.7349 -0.3237
 4361TIP3   OH234573   0.789   1.613   2.941 -0.6586  0.3676 -0.2060
 4361TIP3    H134574   0.783   1.528   2.897  1.5982  0.5112 -0.8569
 4361TIP3    H234575   0.699   1.645   2.943 -1.7162 -2.4825  0.9391
 4362TIP3   OH234576   4.136   0.032   3.639  0.1307  0.5416 -1.4159
 4362TIP3    H134577   4.209  -0.024   3.611  1.2591  0.4216  1.5317
 4362TIP3    H234578   4.178   0.100   3.692 -1.8928  0.4747  0.3234
 4363TIP3   OH234579   2.054   2.843  12.325  0.0202 -0.1113  0.0371
 4363TIP3    H134580   2.140   2.839  12.284  1.2512  1.3417  2.3700
 4363TIP3    H234581   2.008   2.914  12.280  0.5873  0.0819 -0.2314
 4364TIP3   OH234582   4.970   3.820   1.009  0.4270  0.0495  0.2906
 4364TIP3    H134583   4.952   3.813   1.103 -1.7624 -0.7935 -0.1760
 4364TIP3    H234584   4.905   3.882   0.977 -0.2037 -1.3216 -1.0631
 4365TIP3   OH234585   3.411   5.457  12.415 -0.8013 -0.1838  0.4830
 4365TIP3    H134586   3.324   5.442  12.453 -0.8906  0.1136  0.3992
 4365TIP3    H234587   3.393   5.504  12.334 -0.3555  2.9814  2.1588
 4366TIP3   OH234588   1.956   2.387   3.769 -0.0903 -0.4435 -0.3844
 4366TIP3    H134589   2.023   2.326   3.798 -0.1766 -1.6251 -2.5198
 4366TIP3    H234590   1.982   2.411   3.680 -0.9666  1.3352 -0.1897
 4367TIP3   OH234591   0.817   1.782  16.293 -0.1055  0.1358 -0.0569
 4367TIP3    H134592   0.795   1.765  16.201  0.8733  1.0505 -0.4719
 4367TIP3    H234593   0.742   1.829  16.328  0.2521  1.3145 -0.8651
 4368TIP3   OH234594   5.722   3.500   1.973 -0.1489  0.2997  0.1567
 4368TIP3    H134595   5.756   3.578   1.929 -1.0649  0.4072 -0.3781
 4368TIP3    H234596   5.648   3.531   2.025  0.4484  0.0409  1.1674
 4369TIP3   OH234597   0.510   5.841   1.492 -0.0382  0.3828  0.1305
 4369TIP3    H134598   0.513   5.754   1.531 -1.1140  0.5668  0.6284
 4369TIP3    H234599   0.531   5.900   1.564  0.2959  0.5650 -0.1138
 4370TIP3   OH234600   5.817   4.332   3.624 -0.0291 -0.2154 -0.6932
 4370TIP3    H134601   5.873   4.262   3.591  2.0606  0.5689  1.0031
 4370TIP3    H234602   5.743   4.335   3.564  0.3388 -3.1932 -1.3752
 4371TIP3   OH234603   0.935   6.817  14.307 -0.2895 -0.1301  0.2385
 4371TIP3    H134604   0.892   6.902  14.318 -0.8814 -0.4057  0.0681
 4371TIP3    H234605   0.880   6.756  14.357  0.6494 -0.2552  1.1453
 4372TIP3   OH234606   1.513   1.249   1.024  0.3165 -0.2439 -0.3494
 4372TIP3    H134607   1.487   1.161   1.049  0.3145 -0.1724 -0.0968
 4372TIP3    H234608   1.563   1.281   1.099  2.2646 -0.8697 -1.3564
 4373TIP3   OH234609   4.846   1.350   6.175 -0.2260  0.1327  0.3055
 4373TIP3    H134610   4.852   1.412   6.248 -2.0763  0.8348 -0.1153
 4373TIP3    H234611   4.775   1.291   6.200 -0.2659 -0.1693 -0.5176
 4374TIP3   OH234612   0.198   1.239  12.462 -0.2856 -0.4020 -0.1701
 4374TIP3    H134613   0.216   1.327  12.429  2.0130 -0.5747  0.4964
 4374TIP3    H234614   0.117   1.249  12.513 -0.5463  1.1175 -0.8418
 4375TIP3   OH234615   3.252   5.984   3.886  0.8765 -0.4593 -0.6172
 4375TIP3    H134616   3.178   5.946   3.840  0.0430 -2.5597  2.3558
 4375TIP3    H234617   3.296   6.038   3.819 -0.9903 -2.3260 -3.4681
 4376TIP3   OH234618   6.277   3.926  13.753 -0.0870 -0.2549  0.1718
 4376TIP3    H134619   6.365   3.891  13.734  0.4802  1.5359 -0.6163
 4376TIP3    H234620   6.225   3.849  13.775  1.5922 -1.3917  0.2713
 4377TIP3   OH234621   2.741   0.553  15.130 -0.0540  0.3888  0.5323
 4377TIP3    H134622   2.828   0.578  15.162 -0.2748  2.5799 -0.4437
 4377TIP3    H234623   2.687   0.544  15.209  0.6624  0.6075  1.0482
 4378TIP3   OH234624   5.331   5.242  11.044 -0.2664  0.8216 -0.2335
 4378TIP3    H134625   5.393   5.170  11.057 -0.5355  0.7497  0.7303
 4378TIP3    H234626   5.324   5.251  10.949  0.4901  0.2002 -0.3545
 4379TIP3   OH234627   1.587   4.591   1.800 -0.0430 -0.0166  0.4431
 4379TIP3    H134628   1.654   4.569   1.734 -0.1606 -0.0052  0.3207
 4379TIP3    H234629   1.560   4.680   1.778 -2.3914 -1.1438 -1.4619
 4380TIP3   OH234630   1.053   0.622   2.401  0.0269  0.6185  0.5627
 4380TIP3    H134631   1.054   0.708   2.359  2.0616 -0.3753 -1.5528
 4380TIP3    H234632   1.131   0.578   2.367 -1.6554 -2.5338  0.6052
 4381TIP3   OH234633   1.220   5.045   4.328  0.6293 -0.5441 -0.6113
 4381TIP3    H134634   1.132   5.036   4.364  0.9187  0.2751  0.3090
 4381TIP3    H234635   1.258   5.119   4.374  1.0329  0.5158 -2.5703
 4382TIP3   OH234636   5.135   5.058   0.648 -1.0655  0.3087  0.0257
 4382TIP3    H134637   5.124   5.106   0.730 -1.5341 -1.1315  0.8355
 4382TIP3    H234638   5.052   5.068   0.602 -2.1428 -1.8165  1.3733
 4383TIP3   OH234639   2.524   0.174   4.684  0.0103  0.4307 -0.2793
 4383TIP3    H134640   2.531   0.202   4.593  0.3265  0.5535 -0.2201
 4383TIP3    H234641   2.465   0.237   4.725  2.4653  2.3887  0.3929
 4384TIP3   OH234642   0.176   1.605  13.197 -0.4067  0.8806  0.5898
 4384TIP3    H134643   0.211   1.576  13.113 -0.5994 -2.6252  1.6522
 4384TIP3    H234644   0.111   1.539  13.220 -0.5451  1.9287  3.3975
 4385TIP3   OH234645   1.950   2.419  12.114 -0.3891  0.0305  0.1314
 4385TIP3    H134646   1.904   2.357  12.057 -0.1606 -0.3749  0.3852
 4385TIP3    H234647   2.043   2.404  12.095 -0.3050 -0.3178  0.8446
 4386TIP3   OH234648   1.888   1.376   3.096 -0.7031 -0.2956 -0.3509
 4386TIP3    H134649   1.829   1.409   3.028 -0.8893  1.4111  0.5970
 4386TIP3    H234650   1.975   1.383   3.058 -0.9691 -1.2736 -1.1567
 4387TIP3   OH234651   0.152   1.336  13.461 -0.0070  0.3459  0.0487
 4387TIP3    H134652   0.090   1.320  13.532  1.2959 -1.0010  0.9014
 4387TIP3    H234653   0.214   1.264  13.466  1.4205  1.4681 -1.0389
 4388TIP3   OH234654   2.723   5.462   3.259 -0.4465 -0.6380 -0.0234
 4388TIP3    H134655   2.633   5.478   3.289 -0.0501  0.6775  0.4970
 4388TIP3    H234656   2.744   5.538   3.206  0.3972 -0.9106 -0.0831
 4389TIP3   OH234657   2.588   1.466  16.954  0.1181  0.0958 -0.3424
 4389TIP3    H134658   2.671   1.434  16.917  0.4454  1.1715 -0.5717
 4389TIP3    H234659   2.593   1.561  16.942 -1.0081  0.1878 -0.0501
 4390TIP3   OH234660   6.336   4.550   4.245  0.2593 -0.0535 -0.6597
 4390TIP3    H134661   6.348   4.630   4.194  1.2747  1.2560  1.5890
 4390TIP3    H234662   6.400   4.489   4.209  1.0563  0.8988 -0.8852
 4391TIP3   OH234663   6.678   5.154  17.070 -0.2624 -0.1227  0.4824
 4391TIP3    H134664   6.695   5.222  17.005  0.2134  1.9682  2.7116
 4391TIP3    H234665   6.583   5.144  17.070 -0.2097 -0.8407 -1.1718
 4392TIP3   OH234666   0.777   5.217   0.307 -0.0117 -0.5332  0.1720
 4392TIP3    H134667   0.783   5.152   0.378 -0.6459 -0.6081  0.1625
 4392TIP3    H234668   0.729   5.290   0.346  0.0671 -0.3712 -0.0362
 4393TIP3   OH234669   2.395   1.498  16.067  0.7115 -0.2861 -0.4924
 4393TIP3    H134670   2.469   1.439  16.056  1.8567  1.2797 -1.3413
 4393TIP3    H234671   2.404   1.562  15.996 -0.1199  1.2863  0.7788
 4394TIP3   OH234672   0.857   1.631   3.254 -0.0009 -0.4016 -0.6243
 4394TIP3    H134673   0.915   1.707   3.264 -0.5973 -0.0304  0.0951
 4394TIP3    H234674   0.790   1.660   3.192 -0.3516 -0.2585 -0.1837
 4395TIP3   OH234675   5.495   3.201  13.581 -0.7002  0.2935 -0.6005
 4395TIP3    H134676   5.580   3.221  13.620 -0.8837 -0.3531  0.1414
 4395TIP3    H234677   5.492   3.254  13.501  0.5539  0.0180 -0.8303
 4396TIP3   OH234678   2.041   4.214   6.352  0.0112 -0.0544 -0.3686
 4396TIP3    H134679   2.121   4.169   6.324  0.9197  1.0860  0.3136
 4396TIP3    H234680   2.047   4.301   6.312 -0.3253  0.4290  0.6109
 4397TIP3   OH234681   4.849   1.570   4.981  0.3816 -0.0591  0.3771
 4397TIP3    H134682   4.841   1.477   5.003  0.4569  0.4010  2.4410
 4397TIP3    H234683   4.942   1.590   4.993 -0.2702  1.2171  4.0743
 4398TIP3   OH234684   3.831   6.373  15.660 -0.1744 -0.2519  0.0090
 4398TIP3    H134685   3.787   6.328  15.732  0.1364  0.1294  0.4329
 4398TIP3    H234686   3.911   6.322  15.645 -0.4744 -0.6096 -0.3841
 4399TIP3   OH234687   5.351   6.288   4.802  0.7952 -0.2906 -0.4858
 4399TIP3    H134688   5.393   6.363   4.758  0.5103  0.3892  0.3895
 4399TIP3    H234689   5.315   6.236   4.730 -1.7985  2.0777 -1.0202
 4400TIP3   OH234690   4.490   0.464   1.867 -0.2248 -0.5395  0.0947
 4400TIP3    H134691   4.533   0.443   1.950 -0.8459 -0.8598  0.3386
 4400TIP3    H234692   4.396   0.460   1.887 -0.3825 -1.2219 -0.7735
 4401TIP3   OH234693   2.312   6.429  13.337 -0.1427  0.5076  0.1732
 4401TIP3    H134694   2.264   6.403  13.415  0.1452 -0.5560  0.0046
 4401TIP3    H234695   2.288   6.363  13.271  1.6390 -0.1112  0.1266
 4402TIP3   OH234696   6.445   5.177  13.930 -0.0065 -0.5647 -0.0932
 4402TIP3    H134697   6.464   5.265  13.963 -0.8996 -0.7638  0.9922
 4402TIP3    H234698   6.531   5.140  13.909  0.4111  0.3935 -0.1078
 4403TIP3   OH234699   4.117   6.400  14.710 -0.4826 -0.1735  0.4692
 4403TIP3    H134700   4.135   6.494  14.712  3.0454 -0.7677  2.1980
 4403TIP3    H234701   4.128   6.375  14.619  0.0912  0.8548  0.2492
 4404TIP3   OH234702   2.737   5.927   0.046 -0.0604 -0.3916  0.4403
 4404TIP3    H134703   2.753   5.882  -0.037 -0.4242  0.5839 -0.1612
 4404TIP3    H234704   2.686   5.864   0.098 -0.3442 -0.7769 -0.3007
 4405TIP3   OH234705   1.684   2.147   1.192  0.0458  0.2532 -0.6749
 4405TIP3    H134706   1.674   2.181   1.103 -0.6619  1.3816 -0.1862
 4405TIP3    H234707   1.611   2.186   1.240  0.3455 -0.4519  0.3707
 4406TIP3   OH234708   0.178   1.103  15.098 -0.5390 -0.3052 -0.2203
 4406TIP3    H134709   0.260   1.066  15.067  0.1314 -0.3227  1.4969
 4406TIP3    H234710   0.168   1.067  15.187 -1.8371  0.5624  0.0001
 4407TIP3   OH234711   0.114   5.373  13.575 -0.2751  0.5725  0.2595
 4407TIP3    H134712   0.087   5.281  13.569  0.1128  0.4448  0.4042
 4407TIP3    H234713   0.138   5.384  13.667 -1.4320  1.1370  0.5001
 4408TIP3   OH234714   1.639   6.468   2.515  0.3716  0.0101 -0.0669
 4408TIP3    H134715   1.645   6.422   2.431  1.2932 -0.9516  0.5124
 4408TIP3    H234716   1.699   6.421   2.573  0.2046  1.0351  0.9669
 4409TIP3   OH234717   3.406   1.882  12.987  0.0377 -0.6132  0.3345
 4409TIP3    H134718   3.401   1.944  13.060 -0.3120 -1.3520  0.9470
 4409TIP3    H234719   3.339   1.816  13.007  0.4492 -1.2194 -0.2776
 4410TIP3   OH234720   1.285   3.513  15.279 -0.4978 -0.1965 -0.0420
 4410TIP3    H134721   1.347   3.452  15.240  0.6297  1.5694 -1.0554
 4410TIP3    H234722   1.295   3.501  15.374  0.8133 -0.4751 -0.2167
 4411TIP3   OH234723   3.273   3.081   5.725 -0.1041  0.0487  0.2492
 4411TIP3    H134724   3.323   3.083   5.806  0.5539  0.3588 -0.1671
 4411TIP3    H234725   3.237   2.992   5.721  1.9212 -0.7764 -0.3756
 4412TIP3   OH234726   5.515   0.081   1.712  0.4759  0.0968  0.4104
 4412TIP3    H134727   5.558   0.152   1.664 -0.5877  1.3284  1.2378
 4412TIP3    H234728   5.536   0.002   1.662 -0.4208  1.3138 -1.9914
 4413TIP3   OH234729   6.405   0.815  17.144 -0.5322  0.0814  0.0680
 4413TIP3    H134730   6.432   0.864  17.222 -0.1022 -1.1520  0.7215
 4413TIP3    H234731   6.449   0.859  17.071  0.5703  0.1238  0.7462
 4414TIP3   OH234732   2.935   5.071   2.988 -0.2049  0.2089 -0.1815
 4414TIP3    H134733   2.902   4.996   2.940  1.5041 -1.3767  1.0494
 4414TIP3    H234734   3.030   5.067   2.977 -0.1150  2.5804 -0.6483
 4415TIP3   OH234735   1.143   1.021   4.843  1.0352 -0.5081 -0.3729
 4415TIP3    H134736   1.122   1.037   4.935  0.2736 -0.6426 -0.5230
 4415TIP3    H234737   1.068   1.055   4.794  1.6975  0.0842 -0.9824
 4416TIP3   OH234738   5.029   5.588  12.900  0.5063 -0.4038  0.2095
 4416TIP3    H134739   4.957   5.581  12.837  0.7377 -0.9027 -0.0050
 4416TIP3    H234740   5.046   5.682  12.906  1.6147 -0.4326 -1.7823
 4417TIP3   OH234741   4.526   5.706   0.439  0.3517 -0.0031  0.0570
 4417TIP3    H134742   4.617   5.684   0.460  0.0832 -1.1615  0.0576
 4417TIP3    H234743   4.528   5.800   0.421  1.0542  0.5357  2.7404
 4418TIP3   OH234744   1.942   6.323   4.260  0.1908 -0.6184 -0.4176
 4418TIP3    H134745   1.886   6.357   4.331  1.8365  2.5592 -0.5566
 4418TIP3    H234746   2.014   6.281   4.306  0.7304  0.5369 -0.1915
 4419TIP3   OH234747   2.973   3.506   4.533  0.8439 -0.3183 -0.1422
 4419TIP3    H134748   2.972   3.482   4.626 -1.1339  1.7174  0.4132
 4419TIP3    H234749   2.919   3.440   4.491  0.0642 -0.0765  0.4757
 4420TIP3   OH234750   2.413   6.774  13.782 -0.3240 -1.1406  0.1927
 4420TIP3    H134751   2.496   6.782  13.828 -1.0206  1.1904  1.0978
 4420TIP3    H234752   2.418   6.839  13.712 -1.3800 -0.9883  0.2566
 4421TIP3   OH234753   3.047   4.739  11.770 -0.8568 -0.2237  0.0572
 4421TIP3    H134754   2.952   4.728  11.779 -0.6744 -1.9760  0.0430
 4421TIP3    H234755   3.064   4.828  11.800 -2.3786 -0.2647  1.0933
 4422TIP3   OH234756   6.017   3.218  15.996  0.0230  0.4326  0.2002
 4422TIP3    H134757   5.984   3.191  16.082 -0.2114 -2.1482 -0.6523
 4422TIP3    H234758   5.938   3.241  15.946 -0.0672 -0.5917 -0.1409
 4423TIP3   OH234759   1.335   1.706   2.146 -0.1782  0.3556  0.2974
 4423TIP3    H134760   1.370   1.750   2.069  0.1251  0.0551  0.2612
 4423TIP3    H234761   1.358   1.763   2.219  0.0508  0.3511  0.2299
 4424TIP3   OH234762   4.838   3.691   3.896 -0.0281 -0.1886 -0.5017
 4424TIP3    H134763   4.893   3.727   3.966 -2.1703 -0.2849  1.2649
 4424TIP3    H234764   4.894   3.694   3.818  2.4556 -0.2257  1.2249
 4425TIP3   OH234765   4.799   2.635   4.466  0.0148 -0.4646  0.0162
 4425TIP3    H134766   4.837   2.621   4.380 -0.9627 -0.1296 -0.4774
 4425TIP3    H234767   4.777   2.729   4.468 -0.6262 -0.6165  0.3488
 4426TIP3   OH234768   0.568   0.277  15.628  0.2831 -0.0490 -0.2238
 4426TIP3    H134769   0.590   0.246  15.540  0.6714  1.6293 -0.7525
 4426TIP3    H234770   0.596   0.369  15.628 -0.7636  0.2936  1.2682
 4427TIP3   OH234771   1.271   1.288   6.054 -1.2061  0.2426  0.3075
 4427TIP3    H134772   1.316   1.361   6.011 -0.9706 -0.0236  0.0950
 4427TIP3    H234773   1.226   1.328   6.128 -1.1487  0.6184  0.1448
 4428TIP3   OH234774   6.073   1.888   3.819  0.1552  0.1677 -0.1356
 4428TIP3    H134775   6.024   1.814   3.783 -0.7304  1.1161 -0.9175
 4428TIP3    H234776   6.061   1.882   3.913  0.1484 -0.7268 -0.1941
 4429TIP3   OH234777   0.982   4.864  11.880 -0.5699 -0.1444  0.2997
 4429TIP3    H134778   0.887   4.856  11.892 -0.7167  0.3058 -0.4635
 4429TIP3    H234779   1.001   4.956  11.900 -0.5043  0.0924 -0.8256
 4430TIP3   OH234780   5.613   5.678  14.248  0.0468  0.1195 -0.2034
 4430TIP3    H134781   5.598   5.609  14.313  0.1840  0.5892  0.3232
 4430TIP3    H234782   5.695   5.653  14.205  0.6699  0.5271  0.7296
 4431TIP3   OH234783   4.615   0.346  16.990  0.1413 -0.4209  0.4412
 4431TIP3    H134784   4.522   0.345  16.970  0.2168 -2.3554  0.0268
 4431TIP3    H234785   4.658   0.343  16.905  0.5734  0.1451  0.6363
 4432TIP3   OH234786   4.928   0.040   2.415  0.8362 -0.5171 -0.2200
 4432TIP3    H134787   4.877  -0.030   2.458 -0.0149 -0.3907 -1.0046
 4432TIP3    H234788   4.862   0.093   2.370  1.5568  0.3690 -0.2367
 4433TIP3   OH234789   5.598   5.001   0.608  0.5199  0.0661  0.1081
 4433TIP3    H134790   5.572   5.092   0.620 -0.2756 -0.2245  0.5807
 4433TIP3    H234791   5.516   4.952   0.604  0.9934 -0.8884  1.8517
 4434TIP3   OH234792   3.011   2.051   3.065  0.1121 -0.3972 -0.8747
 4434TIP3    H134793   3.069   1.982   3.097 -2.4775 -1.7156  1.2250
 4434TIP3    H234794   2.955   2.008   3.001 -1.6145 -0.3512  0.5533
 4435TIP3   OH234795   5.204   1.519  14.143 -0.0932  0.5801 -0.0167
 4435TIP3    H134796   5.227   1.574  14.068 -0.9273  1.7165  0.5409
 4435TIP3    H234797   5.109   1.512  14.138 -0.1226  0.4521  0.7917
 4436TIP3   OH234798   5.374   4.733  15.933 -0.2170 -0.1109 -0.1480
 4436TIP3    H134799   5.314   4.716  16.005  0.1640 -1.2551 -0.0885
 4436TIP3    H234800   5.317   4.756  15.859 -0.5846  1.5316  0.6184
 4437TIP3   OH234801   3.755   5.357  16.177 -0.0048 -0.4202  0.7500
 4437TIP3    H134802   3.752   5.367  16.082 -0.4653  0.9102  0.8963
 4437TIP3    H234803   3.779   5.266  16.191 -0.6707 -0.8153 -0.6462
 4438TIP3   OH234804   2.499   0.529   0.011 -0.3368  0.0304 -0.3383
 4438TIP3    H134805   2.429   0.475   0.050 -0.0966  0.2623  0.4125
 4438TIP3    H234806   2.490   0.513  -0.083 -2.5368  1.4142 -0.4051
 4439TIP3   OH234807   2.295   4.862  11.967 -0.3480  0.8772  0.0741
 4439TIP3    H134808   2.323   4.845  12.058 -2.7358  2.7571  1.1872
 4439TIP3    H234809   2.233   4.791  11.948  1.8336 -0.8412 -0.9424
 4440TIP3   OH234810   2.569   3.633  12.557  0.1604  0.0986 -0.0058
 4440TIP3    H134811   2.475   3.654  12.561  0.4733  1.9988 -1.6462
 4440TIP3    H234812   2.592   3.609  12.647 -2.1188 -1.4676  0.2101
 4441TIP3   OH234813   1.415   2.140   4.850  0.0579  0.1799 -0.4140
 4441TIP3    H134814   1.386   2.137   4.941  0.2257  1.2317 -0.3195
 4441TIP3    H234815   1.370   2.216   4.813  0.1501 -0.1204 -1.1532
 4442TIP3   OH234816   5.398   0.590   5.059 -0.2146  0.0342  0.1230
 4442TIP3    H134817   5.451   0.663   5.027  0.6039 -0.1885  0.9501
 4442TIP3    H234818   5.327   0.631   5.108  0.1680  0.2818  0.4694
 4443TIP3   OH234819   4.639   5.104  15.359 -0.2167 -0.4156 -0.4268
 4443TIP3    H134820   4.587   5.176  15.395 -0.2291 -0.0927 -1.0941
 4443TIP3    H234821   4.605   5.026  15.402 -0.1867 -0.0203  0.3205
 4444TIP3   OH234822   1.146   4.275   6.097 -0.1466 -0.5110 -0.0234
 4444TIP3    H134823   1.241   4.284   6.108 -0.4874  0.4293  2.3692
 4444TIP3    H234824   1.109   4.347   6.147 -2.1759 -1.7685  0.3461
 4445TIP3   OH234825   6.613   5.263   6.254  0.4870  0.1902  0.1343
 4445TIP3    H134826   6.554   5.252   6.328  1.8915 -2.3601  0.9055
 4445TIP3    H234827   6.556   5.289   6.181 -0.9101  2.6278  2.0312
 4446TIP3   OH234828   0.530   5.125   0.119 -0.0088  0.1461 -0.1372
 4446TIP3    H134829   0.437   5.144   0.125 -0.3082 -1.8124  2.0496
 4446TIP3    H234830   0.570   5.179   0.187 -0.1162 -2.1442  1.8250
 4447TIP3   OH234831   2.101   1.010  13.846 -0.2009  0.8192 -0.1418
 4447TIP3    H134832   2.151   0.956  13.783  0.0616  0.3469  0.4628
 4447TIP3    H234833   2.049   0.946  13.894 -2.0614  1.3978 -1.3573
 4448TIP3   OH234834   6.527   1.469  10.615 -0.0923  0.4460 -0.7186
 4448TIP3    H134835   6.448   1.487  10.565 -1.0003  0.8407  0.8326
 4448TIP3    H234836   6.505   1.395  10.671  0.3261  1.1276  0.3743
 4449TIP3   OH234837   6.640   2.000   3.801 -0.2189  0.0514  0.0667
 4449TIP3    H134838   6.598   1.964   3.879 -0.3343  0.3208  0.1304
 4449TIP3    H234839   6.631   2.095   3.810 -3.9390  0.0069 -2.2966
 4450TIP3   OH234840   1.707   1.458  13.323  0.1088 -0.1637  0.1013
 4450TIP3    H134841   1.671   1.501  13.245  0.1992 -0.8112 -0.3000
 4450TIP3    H234842   1.794   1.429  13.297 -0.5013 -1.8893 -0.1139
 4451TIP3   OH234843   2.449   3.823   6.384 -0.4032  0.0444 -0.1478
 4451TIP3    H134844   2.450   3.905   6.335  0.2185  0.0486 -0.1291
 4451TIP3    H234845   2.519   3.833   6.448 -1.7522  0.3711  1.3013
 4452TIP3   OH234846   3.429   4.754  13.735 -0.0255 -0.2188  0.2212
 4452TIP3    H134847   3.385   4.838  13.742  0.0597 -0.2654  1.5627
 4452TIP3    H234848   3.518   4.775  13.709 -0.2397  0.0444 -0.2902
 4453TIP3   OH234849   4.305   0.853   0.692 -0.1165  0.8226 -0.6789
 4453TIP3    H134850   4.298   0.949   0.694  0.4941  0.8665  2.1915
 4453TIP3    H234851   4.229   0.822   0.741  1.1080 -0.0413  0.7102
 4454TIP3   OH234852   3.696   3.808   1.287 -0.2104 -0.3175 -0.2851
 4454TIP3    H134853   3.721   3.898   1.311 -1.8063  0.1838 -0.4079
 4454TIP3    H234854   3.723   3.755   1.362  0.6842  0.2728 -0.1815
 4455TIP3   OH234855   4.376   5.726   2.129 -0.0605 -0.2455  0.0827
 4455TIP3    H134856   4.443   5.727   2.060 -0.6799  0.1883 -0.5296
 4455TIP3    H234857   4.297   5.758   2.085  0.3211  3.2797  1.7802
 4456TIP3   OH234858   4.196   6.584  14.024  0.0894  0.4751  0.2937
 4456TIP3    H134859   4.247   6.580  14.106  0.6474 -1.1524 -0.1167
 4456TIP3    H234860   4.199   6.677  14.000  2.0284  0.5897  0.8173
 4457TIP3   OH234861   1.100   3.052   1.934 -0.0426  0.3785 -0.2104
 4457TIP3    H134862   1.018   3.018   1.898  0.5379 -0.6040 -0.5920
 4457TIP3    H234863   1.077   3.141   1.963 -1.1974  0.1798 -0.4747
 4458TIP3   OH234864   1.943   5.286   1.136  0.1135 -0.5697  0.6048
 4458TIP3    H134865   1.958   5.194   1.158  2.0055 -0.2209  0.8005
 4458TIP3    H234866   1.978   5.335   1.210  0.6278  0.3749 -0.2548
 4459TIP3   OH234867   1.899   5.335   5.359 -0.4412 -0.3069  0.5907
 4459TIP3    H134868   1.887   5.334   5.264  1.0000  0.2618  0.3848
 4459TIP3    H234869   1.893   5.243   5.385  0.6446 -0.6370 -0.2701
 4460TIP3   OH234870   5.884   1.129   5.161 -0.4269  0.4026 -0.2260
 4460TIP3    H134871   5.881   1.091   5.249 -0.4735  0.4335 -0.2141
 4460TIP3    H234872   5.977   1.142   5.143 -0.5201  2.4248  0.6909
 4461TIP3   OH234873   0.922   5.269   4.755  0.0064 -0.4600 -0.0072
 4461TIP3    H134874   0.844   5.229   4.719 -0.2692  1.8063 -2.0531
 4461TIP3    H234875   0.928   5.354   4.711  2.6003  0.1661  1.4503
 4462TIP3   OH234876   0.565   1.222  13.239 -0.5312  0.0997  0.0592
 4462TIP3    H134877   0.487   1.185  13.280  0.1902 -0.5648  0.8517
 4462TIP3    H234878   0.556   1.198  13.147 -1.0795 -0.3003  0.2116
 4463TIP3   OH234879   1.153   6.101  12.584  0.1905  0.4604  0.2468
 4463TIP3    H134880   1.129   6.194  12.587 -0.3553  0.2754  2.7106
 4463TIP3    H234881   1.128   6.067  12.670  2.0262 -1.5604  0.0281
 4464TIP3   OH234882   0.348   6.406  16.627 -0.6946 -0.6754  0.1384
 4464TIP3    H134883   0.282   6.471  16.651 -2.9776 -2.3697 -1.2744
 4464TIP3    H234884   0.323   6.378  16.539  1.7668 -1.5851 -0.3103
 4465TIP3   OH234885   1.348   2.390   1.923 -0.0104 -0.5472  0.2716
 4465TIP3    H134886   1.403   2.468   1.918  0.2202 -0.5579  2.5357
 4465TIP3    H234887   1.304   2.397   2.008 -0.3329 -2.6627  0.2922
 4466TIP3   OH234888   6.571   5.248  12.077 -0.2507  0.1996 -0.0560
 4466TIP3    H134889   6.482   5.254  12.111 -0.9690  1.3853 -2.0572
 4466TIP3    H234890   6.606   5.168  12.116 -1.2784  1.0544  2.7602
 4467TIP3   OH234891   6.032   0.255  12.946 -0.1265  0.3918 -0.4047
 4467TIP3    H134892   6.007   0.298  13.028  0.1285 -0.4525  0.1219
 4467TIP3    H234893   5.958   0.198  12.925 -0.2017  0.6238 -0.7705
 4468TIP3   OH234894   4.664   1.807  13.693 -0.1366  0.1528 -0.3606
 4468TIP3    H134895   4.627   1.875  13.750 -2.2006 -0.9077 -0.3930
 4468TIP3    H234896   4.616   1.817  13.610 -1.2035 -1.9915 -0.0343
 4469TIP3   OH234897   1.482   1.535  13.456  0.1459  0.3978 -0.5322
 4469TIP3    H134898   1.567   1.500  13.431  1.1017  0.4643  2.3811
 4469TIP3    H234899   1.420   1.464  13.440  1.2906 -0.8516  0.5422
 4470TIP3   OH234900   0.188   3.697  12.704  0.1740  0.2060 -0.5414
 4470TIP3    H134901   0.278   3.729  12.703  0.6036 -0.9819 -0.4080
 4470TIP3    H234902   0.189   3.618  12.650 -0.6765 -0.0895 -0.1403
 4471TIP3   OH234903   5.600   3.291   2.961 -0.1451 -0.6415  0.0591
 4471TIP3    H134904   5.648   3.208   2.965 -0.4592 -0.7570  2.1374
 4471TIP3    H234905   5.668   3.358   2.963 -0.0021 -0.7998  3.0888
 4472TIP3   OH234906   2.115   0.224  12.654 -0.0945 -0.3120  0.3092
 4472TIP3    H134907   2.166   0.296  12.692  0.0879 -0.0330 -0.4517
 4472TIP3    H234908   2.024   0.253  12.663 -0.0498 -0.2207  0.4784
 4473TIP3   OH234909   0.690   4.433  17.287 -0.7328 -0.1292  0.0799
 4473TIP3    H134910   0.696   4.486  17.207  0.4759  0.0769  0.2932
 4473TIP3    H234911   0.720   4.346  17.260  0.3434  0.1135  0.4482
 4474TIP3   OH234912   3.103   6.365   4.984  0.0924 -0.6161  0.3425
 4474TIP3    H134913   3.117   6.302   5.054  0.3937 -2.6806 -1.5470
 4474TIP3    H234914   3.154   6.332   4.910 -0.7658  1.1494 -1.0849
 4475TIP3   OH234915   4.322   6.445   2.172  0.1868  0.2462  0.0870
 4475TIP3    H134916   4.363   6.409   2.093  0.0922  0.4029 -0.0333
 4475TIP3    H234917   4.271   6.372   2.208 -0.7763  0.5350 -0.6817
 4476TIP3   OH234918   0.303   3.589   5.882  1.0576  0.3247  0.2237
 4476TIP3    H134919   0.388   3.631   5.879  1.4724 -0.4637  0.8161
 4476TIP3    H234920   0.282   3.582   5.975  0.8829 -0.5395  0.1282
 4477TIP3   OH234921   3.994   2.257  13.278 -0.1216 -0.3870 -0.0796
 4477TIP3    H134922   3.922   2.204  13.312 -0.0106 -0.5175 -0.0446
 4477TIP3    H234923   4.071   2.226  13.327 -0.3201  0.8709  1.0449
 4478TIP3   OH234924   4.574   0.886   5.916 -0.4109  0.5313  0.1525
 4478TIP3    H134925   4.479   0.883   5.904 -0.2194 -0.1722 -1.2438
 4478TIP3    H234926   4.602   0.795   5.918  0.3782  0.7399 -0.7055
 4479TIP3   OH234927   0.287   6.400  15.446 -0.2760  0.6493  0.2013
 4479TIP3    H134928   0.348   6.460  15.490  0.5304 -1.8358  2.6025
 4479TIP3    H234929   0.212   6.394  15.506 -0.8022  0.0365 -0.5048
 4480TIP3   OH234930   0.269   0.661   5.166 -0.4989  0.1143 -0.1955
 4480TIP3    H134931   0.299   0.752   5.171  0.1231 -0.0920 -0.1456
 4480TIP3    H234932   0.330   0.619   5.105 -2.0050  0.2120 -1.8090
 4481TIP3   OH234933   3.773   1.003  15.548  0.2138 -0.2581 -0.3377
 4481TIP3    H134934   3.803   1.067  15.483 -0.1123  0.3433  0.1004
 4481TIP3    H234935   3.745   0.927  15.496  0.0896  0.1617 -0.8857
 4482TIP3   OH234936   1.802   3.320   2.140  0.4712  0.7848 -0.1791
 4482TIP3    H134937   1.886   3.326   2.093  1.1849 -1.8766  0.6674
 4482TIP3    H234938   1.826   3.292   2.228 -1.4062 -1.9585 -0.4573
 4483TIP3   OH234939   4.732   5.962   4.905 -0.7513 -0.5087 -0.1198
 4483TIP3    H134940   4.788   5.909   4.962  1.9347  1.7651 -0.5276
 4483TIP3    H234941   4.691   6.026   4.963  0.8434  0.8693 -0.4679
 4484TIP3   OH234942   2.544   0.503  16.395 -1.0622 -0.1998  0.0314
 4484TIP3    H134943   2.561   0.578  16.451  1.7379 -0.8340  0.0823
 4484TIP3    H234944   2.490   0.538  16.324 -1.4261  1.4148  1.0756
 4485TIP3   OH234945   2.068   1.550  13.364  0.0854  0.5458  0.4456
 4485TIP3    H134946   2.020   1.515  13.289  0.3243  0.6175  0.2593
 4485TIP3    H234947   2.157   1.519  13.352 -0.3305 -1.2356  1.8373
 4486TIP3   OH234948   2.378   5.027  11.681  0.2980  0.0263 -0.5010
 4486TIP3    H134949   2.374   5.071  11.766  0.6762 -0.6242 -0.1508
 4486TIP3    H234950   2.369   4.934  11.701 -0.9362 -0.0468 -1.2794
 4487TIP3   OH234951   4.939   0.531  15.391  0.3217 -0.4418 -0.1534
 4487TIP3    H134952   4.940   0.626  15.385  0.1481 -0.5289 -1.8746
 4487TIP3    H234953   5.025   0.508  15.427  0.7442  0.3202 -0.6655
 4488TIP3   OH234954   3.466   1.929   4.456 -0.4263 -0.2773  0.8518
 4488TIP3    H134955   3.535   1.864   4.461 -1.1133 -1.0429  0.4471
 4488TIP3    H234956   3.409   1.910   4.530  0.3639  1.0308  1.8272
 4489TIP3   OH234957   6.423   1.302   1.626  0.2437 -0.4955  0.6223
 4489TIP3    H134958   6.443   1.218   1.666  2.6210 -0.4236 -0.3425
 4489TIP3    H234959   6.480   1.364   1.671  0.5432  0.1240 -0.5756
 4490TIP3   OH234960   2.496   6.621   6.550 -0.1413 -0.0947  0.3585
 4490TIP3    H134961   2.585   6.624   6.587  0.2675 -1.5929 -0.4675
 4490TIP3    H234962   2.438   6.624   6.626  0.5790  1.8633  0.8709
 4491TIP3   OH234963   5.684   2.329  16.939  0.5438 -0.4297 -0.1865
 4491TIP3    H134964   5.760   2.299  16.989  0.6187  0.7694  0.4340
 4491TIP3    H234965   5.652   2.250  16.895  1.0664 -1.2981  0.9600
 4492TIP3   OH234966   0.349   3.676  13.765 -0.1166  0.6079 -0.1447
 4492TIP3    H134967   0.409   3.689  13.839  1.5159  1.3222 -1.5453
 4492TIP3    H234968   0.370   3.748  13.705 -1.8207  0.3818 -1.0310
 4493TIP3   OH234969   5.503   3.531   2.152 -0.0695  0.1440  0.0800
 4493TIP3    H134970   5.437   3.553   2.086 -1.8634 -3.6975  0.4919
 4493TIP3    H234971   5.478   3.583   2.228 -1.4373  0.2380 -0.4085
 4494TIP3   OH234972   2.721   4.788   2.681  0.4394  0.1150  0.1164
 4494TIP3    H134973   2.768   4.817   2.759  0.3654  4.7607 -1.3906
 4494TIP3    H234974   2.788   4.780   2.613  0.0432 -0.6194 -0.2011
 4495TIP3   OH234975   3.019   6.760   5.201  0.6607 -0.0582  0.3961
 4495TIP3    H134976   3.081   6.703   5.155 -0.4033  0.2465 -1.4615
 4495TIP3    H234977   3.065   6.844   5.209  1.8285 -0.8272  2.2158
 4496TIP3   OH234978   2.127   0.616  12.198  0.2046  0.4143  0.3686
 4496TIP3    H134979   2.086   0.535  12.166  0.2440  0.3402  0.5056
 4496TIP3    H234980   2.152   0.663  12.118 -0.0660  0.4192  0.2851
 4497TIP3   OH234981   0.805   2.349  11.912  0.0695  0.0054  0.8610
 4497TIP3    H134982   0.719   2.323  11.879 -0.5514  1.9845  0.8455
 4497TIP3    H234983   0.787   2.416  11.978  1.5046 -1.2169  2.5535
 4498TIP3   OH234984   4.603   6.230   2.212  0.5243  0.2726  0.3732
 4498TIP3    H134985   4.597   6.142   2.248  0.8018 -0.1829 -0.6793
 4498TIP3    H234986   4.514   6.265   2.220  0.2802 -0.3192  0.2345
 4499TIP3   OH234987   1.224   0.929   3.484 -0.2572 -0.1384  0.0109
 4499TIP3    H134988   1.308   0.960   3.517 -0.6126  0.7574  0.0627
 4499TIP3    H234989   1.168   1.006   3.484 -0.9039 -0.6068 -0.5991
 4500TIP3   OH234990   0.359   5.355  16.725 -0.1255  0.1874  0.1653
 4500TIP3    H134991   0.416   5.370  16.649 -1.8503 -0.0063 -1.2063
 4500TIP3    H234992   0.270   5.351  16.688 -0.8211 -1.7411  1.9674
 4501TIP3   OH234993   3.178   5.333  14.604  0.3544 -0.4176 -0.3607
 4501TIP3    H134994   3.220   5.310  14.522  2.5048  0.1824  0.5426
 4501TIP3    H234995   3.223   5.412  14.634 -0.6811 -0.3707  1.1834
 4502TIP3   OH234996   6.195   4.278  16.104 -0.5459  0.0907 -0.5842
 4502TIP3    H134997   6.146   4.217  16.159 -0.5725 -0.4940 -1.2416
 4502TIP3    H234998   6.285   4.246  16.106 -0.6284 -0.1971 -1.2288
 4503TIP3   OH234999   0.842   0.319  11.323  0.2208 -0.0939  1.0395
 4503TIP3    H135000   0.870   0.280  11.240  0.8812  1.6769  0.4119
 4503TIP3    H235001   0.921   0.326  11.375  0.5481  2.4728  0.2714
 4504TIP3   OH235002   6.309   3.459  13.583  0.5954 -0.0642 -0.1045
 4504TIP3    H135003   6.229   3.409  13.563  1.1265 -0.9016 -0.1536
 4504TIP3    H235004   6.299   3.540  13.532  0.4203 -0.7673 -1.2253
 4505TIP3   OH235005   6.045   6.701   0.533  0.4617  0.5046 -0.1008
 4505TIP3    H135006   6.008   6.779   0.574  1.0969  0.6819  0.1487
 4505TIP3    H235007   5.980   6.632   0.549  0.5373  0.6613  0.8812
 4506TIP3   OH235008   6.536   1.886   2.740 -0.1290  0.1286  0.4274
 4506TIP3    H135009   6.582   1.895   2.656 -2.8846  0.3793 -1.1212
 4506TIP3    H235010   6.539   1.974   2.778  1.5580 -0.0967  0.8287
 4507TIP3   OH235011   6.361   3.359  16.734  0.1859  0.0624 -0.0152
 4507TIP3    H135012   6.430   3.360  16.668  0.1470 -2.1063 -0.1093
 4507TIP3    H235013   6.300   3.292  16.705 -1.5041  1.2966  0.5655
 4508TIP3   OH235014   5.475   1.694   3.308 -0.0481  0.2923 -0.2827
 4508TIP3    H135015   5.510   1.648   3.231  0.2089  0.2531 -0.1403
 4508TIP3    H235016   5.523   1.776   3.311 -0.7171  0.7040 -0.7115
 4509TIP3   OH235017   6.059   1.722   6.692 -0.1055 -0.8549 -0.5569
 4509TIP3    H135018   5.982   1.737   6.638 -0.9394  0.0374  0.8472
 4509TIP3    H235019   6.088   1.634   6.668 -1.8386 -1.3924 -0.7585
 4510TIP3   OH235020   5.795   6.100  14.633  0.0270  0.2642 -0.3787
 4510TIP3    H135021   5.804   6.196  14.630  0.0974  0.3158  1.2923
 4510TIP3    H235022   5.861   6.072  14.696 -1.5630 -0.6724  0.8870
 4511TIP3   OH235023   1.991   6.743   1.086 -0.1542 -0.5473 -0.0018
 4511TIP3    H135024   1.910   6.742   1.137 -0.0971  0.6376  0.1339
 4511TIP3    H235025   1.972   6.687   1.011 -0.7145 -1.1882  0.6132
 4512TIP3   OH235026   2.818   0.220  16.903  0.5173 -0.0413 -0.5039
 4512TIP3    H135027   2.776   0.154  16.849  0.7557  0.7645 -1.7143
 4512TIP3    H235028   2.903   0.182  16.926  0.4200 -0.3851 -0.7142
 4513TIP3   OH235029   6.782   6.646   3.529  0.0714 -0.2379 -0.0583
 4513TIP3    H135030   6.830   6.701   3.467  0.0038 -0.1333 -0.0182
 4513TIP3    H235031   6.837   6.569   3.541 -0.4379 -0.7699 -1.0958
 4514TIP3   OH235032   0.819   6.556   0.032  0.8909  0.5255  0.3240
 4514TIP3    H135033   0.799   6.536  -0.059 -0.5392  0.1142  0.7155
 4514TIP3    H235034   0.912   6.580   0.032  1.1063 -0.2924 -1.0984
 4515TIP3   OH235035   5.442   5.168   0.373  0.0329 -0.0892 -0.5433
 4515TIP3    H135036   5.531   5.144   0.398  0.5672  1.0462 -1.2756
 4515TIP3    H235037   5.388   5.093   0.398  0.9065 -0.0183  1.6345
 4516TIP3   OH235038   3.291   2.327   0.125  0.6287  0.3180 -0.6555
 4516TIP3    H135039   3.353   2.254   0.124  0.6304  0.2621  1.7029
 4516TIP3    H235040   3.342   2.401   0.158  0.5015  1.3125 -2.5865
 4517TIP3   OH235041   5.270   4.917   2.144  0.1839  0.3029 -0.4219
 4517TIP3    H135042   5.349   4.971   2.145  0.2892  0.1522 -0.6778
 4517TIP3    H235043   5.207   4.967   2.092  0.5875 -0.2519 -1.4635
 4518TIP3   OH235044   5.505   1.202  14.496  0.1133  0.2853 -0.2095
 4518TIP3    H135045   5.548   1.156  14.424  0.4527  1.4626 -0.7607
 4518TIP3    H235046   5.456   1.273  14.454  0.1085  0.8303  0.7007
 4519TIP3   OH235047   2.391   0.248   2.854 -0.2645 -0.4458  0.1594
 4519TIP3    H135048   2.346   0.179   2.806 -1.7918  0.0353  0.8795
 4519TIP3    H235049   2.379   0.227   2.946 -1.8906  1.4536  0.4220
 4520TIP3   OH235050   1.252   6.247   1.181  0.2897 -0.2976  0.3166
 4520TIP3    H135051   1.286   6.322   1.230 -0.3065 -0.7191  1.4026
 4520TIP3    H235052   1.162   6.237   1.212  0.6367 -1.9951  0.8360
 4521TIP3   OH235053   1.586   3.527  15.081 -0.0737 -0.0776 -0.0007
 4521TIP3    H135054   1.638   3.466  15.134 -1.3543 -1.7992 -0.6930
 4521TIP3    H235055   1.582   3.607  15.134  0.1221 -1.1896  1.7318
 4522TIP3   OH235056   3.960   0.006  11.788 -0.3115  0.1717 -0.0527
 4522TIP3    H135057   4.046   0.046  11.787 -0.2680  0.0852  0.4027
 4522TIP3    H235058   3.934   0.003  11.695  0.3321 -0.1548 -0.2219
 4523TIP3   OH235059   4.320   2.817   1.550  0.0799  0.6924 -0.0285
 4523TIP3    H135060   4.378   2.754   1.509 -0.8421  0.1574 -0.5252
 4523TIP3    H235061   4.279   2.769   1.622 -1.2805  0.4553 -0.9534
 4524TIP3   OH235062   5.972   4.727   4.886  0.0942  0.3448 -0.4018
 4524TIP3    H135063   6.014   4.689   4.963  0.5648 -0.7092 -1.1756
 4524TIP3    H235064   6.043   4.738   4.822 -0.3417  0.9529 -0.7956
 4525TIP3   OH235065   3.341   2.010  15.723  0.2526  0.0402 -0.1712
 4525TIP3    H135066   3.372   2.094  15.692  0.8795 -0.0583  0.1901
 4525TIP3    H235067   3.277   1.982  15.657 -1.0235  1.4558  0.4296
 4526TIP3   OH235068   6.085   5.083  13.655 -0.3799 -0.0245 -0.3112
 4526TIP3    H135069   6.026   5.154  13.628  1.9119  0.7418 -3.6860
 4526TIP3    H235070   6.032   5.004  13.647 -1.3371  0.7615 -2.2100
 4527TIP3   OH235071   3.192   1.098  15.875 -0.4192 -0.4634 -0.8988
 4527TIP3    H135072   3.113   1.061  15.914 -0.1778  0.3440  0.4119
 4527TIP3    H235073   3.256   1.026  15.879 -0.6945 -0.7013 -0.7144
 4528TIP3   OH235074   2.612   2.130   1.919  0.0315 -0.8470  0.1832
 4528TIP3    H135075   2.537   2.185   1.896  0.0216 -1.1871 -0.6138
 4528TIP3    H235076   2.673   2.141   1.846  0.4797 -1.0761  0.5208
 4529TIP3   OH235077   0.401   6.711  13.119 -0.1080 -0.1467 -0.2773
 4529TIP3    H135078   0.400   6.803  13.146 -1.0464 -0.1955 -0.1249
 4529TIP3    H235079   0.480   6.675  13.159 -0.0171  0.4642  0.0954
 4530TIP3   OH235080   1.087   1.545  16.061  0.2252  0.0449  0.0716
 4530TIP3    H135081   1.113   1.453  16.066 -0.3787 -0.0764  1.2780
 4530TIP3    H235082   0.991   1.542  16.058  0.2038  0.6334  0.1842
 4531TIP3   OH235083   0.344   1.710   5.291 -0.2634  0.4825  0.5584
 4531TIP3    H135084   0.273   1.648   5.273  1.6325 -1.1298 -1.7689
 4531TIP3    H235085   0.347   1.716   5.386 -1.9019 -1.3676  0.7551
 4532TIP3   OH235086   1.055   1.800   3.289 -0.5561 -0.2653 -0.3949
 4532TIP3    H135087   1.089   1.835   3.371  0.1819  1.4439 -1.4052
 4532TIP3    H235088   1.097   1.852   3.221 -0.5227 -2.1856 -1.9092
 4533TIP3   OH235089   2.033   3.356  17.169  0.0731 -0.3750  0.4270
 4533TIP3    H135090   2.035   3.315  17.255 -1.2683  0.5763  0.9381
 4533TIP3    H235091   1.946   3.398  17.164  0.9321  1.3664 -0.5319
 4534TIP3   OH235092   0.941   2.591   1.695  0.0786  0.1144  0.1173
 4534TIP3    H135093   1.007   2.635   1.641 -0.0330 -0.0450 -0.1452
 4534TIP3    H235094   0.972   2.500   1.701 -0.3287 -0.0506 -0.3299
 4535TIP3   OH235095   6.416   3.023   4.913 -0.4165  0.0989  0.0686
 4535TIP3    H135096   6.438   3.073   4.834  0.3117  1.3007  1.0026
 4535TIP3    H235097   6.400   3.090   4.980  0.9025 -0.9184  1.4320
 4536TIP3   OH235098   4.589   1.534   2.683  0.2757 -0.2231 -0.0113
 4536TIP3    H135099   4.610   1.493   2.767 -0.2142  1.1759  0.8128
 4536TIP3    H235100   4.522   1.477   2.645  0.1476 -0.6075  0.7714
 4537TIP3   OH235101   4.347   0.184   4.849 -0.0752 -0.6558 -0.0001
 4537TIP3    H135102   4.256   0.211   4.858  0.2548  0.5301 -0.1705
 4537TIP3    H235103   4.343   0.090   4.831 -1.1776 -1.0047  1.9709
 4538TIP3   OH235104   0.843   6.093   0.084  0.0711 -0.4179 -0.3607
 4538TIP3    H135105   0.818   6.087  -0.008 -0.6386 -0.2374 -0.1814
 4538TIP3    H235106   0.761   6.090   0.132  0.3813  0.3405  0.2294
 4539TIP3   OH235107   1.317   3.899   3.116  0.5561 -0.2608  1.0313
 4539TIP3    H135108   1.268   3.889   3.034  0.1449  1.5990  1.0400
 4539TIP3    H235109   1.407   3.918   3.088  0.6975 -0.9445  1.0161
 4540TIP3   OH235110   1.838   6.494  10.911 -0.1173 -0.5410  0.1613
 4540TIP3    H135111   1.772   6.425  10.912  0.2763 -0.9150  0.8513
 4540TIP3    H235112   1.879   6.487  10.825  0.8916 -2.1059  0.7443
 4541TIP3   OH235113   1.917   3.912  15.232  0.2394  0.0583  0.1374
 4541TIP3    H135114   1.968   3.928  15.153  0.3184 -1.2461 -0.0867
 4541TIP3    H235115   1.930   3.991  15.285  1.0246  0.5009 -0.6948
 4542TIP3   OH235116   3.320   4.445  11.555  0.0344 -0.0107 -0.9903
 4542TIP3    H135117   3.360   4.499  11.487  0.9335 -2.7125 -2.7063
 4542TIP3    H235118   3.379   4.451  11.630  0.9891  0.0335 -1.7423
 4543TIP3   OH235119   3.851   1.265   4.401  0.2644 -0.0609 -0.2453
 4543TIP3    H135120   3.812   1.190   4.448 -0.1523  0.1969 -0.1761
 4543TIP3    H235121   3.907   1.225   4.335 -0.2185 -0.4427 -0.4289
 4544TIP3   OH235122   5.830   1.336  16.858  0.7721  0.0197 -0.2581
 4544TIP3    H135123   5.835   1.251  16.901  2.0661 -1.0159 -2.4019
 4544TIP3    H235124   5.811   1.398  16.930  5.0590 -1.3223  2.2198
 4545TIP3   OH235125   6.222   4.257  15.046  0.2149  0.7365 -0.5515
 4545TIP3    H135126   6.138   4.303  15.045  0.6023  1.4885  0.4153
 4545TIP3    H235127   6.253   4.267  15.136 -0.0398 -2.0712 -0.1098
 4546TIP3   OH235128   6.775   1.747   1.456  0.4194  0.6696  0.2900
 4546TIP3    H135129   6.786   1.836   1.424 -0.2122  0.2854 -1.0788
 4546TIP3    H235130   6.776   1.754   1.551 -1.5337  2.4008  0.2209
 4547TIP3   OH235131   5.838   6.164   0.356 -0.0374 -0.3671  0.2793
 4547TIP3    H135132   5.924   6.141   0.319 -0.0241  0.3846 -0.1580
 4547TIP3    H235133   5.811   6.242   0.308 -0.4664  0.0547  1.1954
 4548TIP3   OH235134   4.625   2.195  13.580  0.0259  0.6012  0.0863
 4548TIP3    H135135   4.560   2.263  13.596 -0.7787  0.1892 -1.3192
 4548TIP3    H235136   4.697   2.239  13.536 -0.0950  0.7112 -0.0001
 4549TIP3   OH235137   4.897   5.447   0.672  0.0853  0.2593 -0.1767
 4549TIP3    H135138   4.835   5.429   0.602 -0.1261  0.5598 -0.0704
 4549TIP3    H235139   4.914   5.362   0.712  0.1181  0.1047 -0.5190
 4550TIP3   OH235140   6.752   1.891  14.676 -0.4267  0.1689  0.1756
 4550TIP3    H135141   6.770   1.912  14.584  3.5038 -0.3425  0.7537
 4550TIP3    H235142   6.702   1.810  14.673 -0.1752  0.0583 -1.4889
 4551TIP3   OH235143   3.454   1.133  11.900 -0.2004 -0.3909  0.2083
 4551TIP3    H135144   3.482   1.177  11.819  1.8314 -0.5172  0.8312
 4551TIP3    H235145   3.360   1.119  11.887 -0.3434  1.5632 -1.2145
 4552TIP3   OH235146   4.369   4.352   6.255 -0.3162  0.3722  0.1097
 4552TIP3    H135147   4.461   4.348   6.281 -0.1223 -1.2487 -0.7695
 4552TIP3    H235148   4.321   4.323   6.333  0.1600 -2.6125 -0.6468
 4553TIP3   OH235149   2.181   5.356  11.118  0.1771  0.5799 -0.0859
 4553TIP3    H135150   2.166   5.276  11.168 -1.5879  0.4973 -0.6981
 4553TIP3    H235151   2.275   5.372  11.125 -0.0516  0.8353  3.6389
 4554TIP3   OH235152   6.218   0.566   6.284 -0.3364  0.4113  0.1209
 4554TIP3    H135153   6.299   0.515   6.287 -1.1121 -1.0517 -2.4150
 4554TIP3    H235154   6.246   0.657   6.288  1.5365 -0.0453 -2.1480
 4555TIP3   OH235155   5.456   5.491   0.486 -0.3351  0.0295  0.1338
 4555TIP3    H135156   5.378   5.510   0.434 -0.1630  0.8841  0.1839
 4555TIP3    H235157   5.495   5.577   0.504  1.5839 -0.4958 -1.3821
 4556TIP3   OH235158   4.276   6.467   1.353  0.4195 -0.0479 -0.5715
 4556TIP3    H135159   4.240   6.528   1.288 -0.8246 -0.9592 -0.7364
 4556TIP3    H235160   4.222   6.389   1.346  0.2325 -0.1357  1.6198
 4557TIP3   OH235161   6.320   3.941  14.043  0.2805 -0.2051  0.3568
 4557TIP3    H135162   6.258   3.977  14.107  0.0268  1.1712 -0.6445
 4557TIP3    H235163   6.283   3.963  13.958  2.1552  0.7131 -0.2658
 4558TIP3   OH235164   5.866   4.968  16.808 -0.6414  0.1187 -0.6950
 4558TIP3    H135165   5.788   5.017  16.836 -1.5116 -0.6163 -1.7752
 4558TIP3    H235166   5.859   4.884  16.854 -0.2074  0.2500 -0.3914
 4559TIP3   OH235167   4.727   2.657   4.987  0.5777  0.1480  0.3004
 4559TIP3    H135168   4.810   2.641   4.943  0.7279 -0.6544  0.8738
 4559TIP3    H235169   4.749   2.714   5.061  0.8608 -1.3101  1.3510
 4560TIP3   OH235170   0.434   0.339  13.039 -0.6283 -0.9544  0.6309
 4560TIP3    H135171   0.414   0.264  13.094 -0.2083 -2.7638 -1.6016
 4560TIP3    H235172   0.526   0.327  13.015  0.1903  1.6448  2.2706
 4561TIP3   OH235173   1.369   1.255  13.739 -0.5145  0.1348 -0.4868
 4561TIP3    H135174   1.360   1.300  13.823  0.2938 -2.6096  1.1047
 4561TIP3    H235175   1.463   1.258  13.720 -0.8237  1.7624 -1.9103
 4562TIP3   OH235176   5.808   0.511   0.105 -0.0109  0.2403  0.2021
 4562TIP3    H135177   5.787   0.591   0.153  0.1146  1.0460 -1.0624
 4562TIP3    H235178   5.758   0.443   0.150  0.3291  0.9164  1.6435
 4563TIP3   OH235179   1.890   3.237  13.406 -0.0977  0.6377  0.4465
 4563TIP3    H135180   1.979   3.204  13.398 -0.0090  0.3429  2.4559
 4563TIP3    H235181   1.880   3.297  13.332  1.5082  0.1125 -0.2195
 4564TIP3   OH235182   6.435   2.994  16.507  0.0632 -0.0990 -0.5668
 4564TIP3    H135183   6.416   2.919  16.564  1.1125  0.6623  0.8155
 4564TIP3    H235184   6.393   3.068  16.551  3.0461  0.9611  0.6120
 4565TIP3   OH235185   1.423   0.593   0.926 -0.5397 -0.3605  0.0962
 4565TIP3    H135186   1.332   0.579   0.950 -0.2882 -1.0312  0.6741
 4565TIP3    H235187   1.423   0.591   0.830 -0.9377 -1.7188  0.1047
 4566TIP3   OH235188   1.762   2.947  16.552 -0.2060 -0.0622 -0.1715
 4566TIP3    H135189   1.826   2.996  16.499  1.2504 -0.8525  0.8411
 4566TIP3    H235190   1.677   2.981  16.523  0.7020  1.8463 -0.7129
 4567TIP3   OH235191   5.048   4.986   2.570 -0.2796 -0.0169  0.4429
 4567TIP3    H135192   4.985   4.920   2.538  2.4876 -2.8839  0.6839
 4567TIP3    H235193   5.016   5.009   2.657 -1.1702 -1.2045  0.4508
 4568TIP3   OH235194   1.159   1.144   2.858 -0.2536 -0.6724 -0.3172
 4568TIP3    H135195   1.179   1.194   2.779  1.6755  0.3820  0.7907
 4568TIP3    H235196   1.064   1.147   2.865 -0.2697  1.5414 -1.1230
 4569TIP3   OH235197   0.201   1.382   1.758 -0.0059  0.1645 -0.3182
 4569TIP3    H135198   0.155   1.417   1.834 -0.2570 -0.5028 -0.1655
 4569TIP3    H235199   0.201   1.287   1.770 -1.3299 -0.0555 -1.8661
 4570TIP3   OH235200   3.240   4.902  14.340  0.4295  0.0274  0.2644
 4570TIP3    H135201   3.195   4.968  14.288 -0.9116 -0.5357  0.6915
 4570TIP3    H235202   3.317   4.947  14.375 -0.7075  1.4879  0.9383
 4571TIP3   OH235203   0.752   5.438  16.263  0.1396 -0.0854  0.5980
 4571TIP3    H135204   0.758   5.532  16.281 -1.2567 -0.1326  1.3698
 4571TIP3    H235205   0.802   5.397  16.333  1.8073  0.1043 -0.4274
 4572TIP3   OH235206   6.120   2.632  13.323  0.4479  0.1532 -0.3894
 4572TIP3    H135207   6.115   2.689  13.246  0.7113 -1.3093 -1.5107
 4572TIP3    H235208   6.209   2.642  13.355  0.3120  0.8350 -0.2191
 4573TIP3   OH235209   1.088   6.165   0.240  0.3333  0.2958  0.0759
 4573TIP3    H135210   1.057   6.079   0.270  0.6499 -1.2268 -3.7576
 4573TIP3    H235211   1.010   6.207   0.205  0.1502  1.6875  2.0976
 4574TIP3   OH235212   1.843   1.173  14.448 -0.3675  0.1473  0.2777
 4574TIP3    H135213   1.899   1.241  14.486 -0.6663  0.8225 -0.4634
 4574TIP3    H235214   1.840   1.104  14.514  0.1462  0.7482  0.9339
 4575TIP3   OH235215   0.766   6.772   2.643 -0.1048 -0.1758 -0.4220
 4575TIP3    H135216   0.792   6.825   2.568  0.5517 -0.3879 -0.3458
 4575TIP3    H235217   0.762   6.834   2.716  0.9070 -0.2703 -0.2811
 4576TIP3   OH235218   5.211   6.784   3.656  0.3784  0.1338  0.1065
 4576TIP3    H135219   5.173   6.709   3.700  0.6667 -0.1987 -0.2071
 4576TIP3    H235220   5.233   6.752   3.569  0.8057  0.4860  0.0814
 4577TIP3   OH235221   0.955   2.174   3.292 -0.4001  0.4772  0.4335
 4577TIP3    H135222   1.035   2.128   3.318 -0.3356  0.0182 -0.5584
 4577TIP3    H235223   0.890   2.105   3.280 -0.4258  0.6734 -0.6165
 4578TIP3   OH235224   0.362   2.579  14.019 -0.3201  0.8207 -0.0717
 4578TIP3    H135225   0.378   2.671  13.998  0.7183  0.3502 -1.3557
 4578TIP3    H235226   0.444   2.535  13.998 -1.5725 -0.7888 -1.7350
 4579TIP3   OH235227   2.535   5.856  11.838 -0.3355 -0.0982  0.3267
 4579TIP3    H135228   2.548   5.944  11.872 -1.4977 -0.3101  1.3877
 4579TIP3    H235229   2.582   5.800  11.899 -1.8392 -0.4231  1.2184
 4580TIP3   OH235230   1.693   4.686   5.522  0.2057  0.0574  0.2957
 4580TIP3    H135231   1.760   4.702   5.588 -1.5436  0.3555  2.0428
 4580TIP3    H235232   1.612   4.675   5.572 -0.8376 -1.5422 -1.6863
 4581TIP3   OH235233   0.755   1.507   2.240  0.1893  0.0888  0.0625
 4581TIP3    H135234   0.772   1.545   2.326  0.1406  1.7130 -0.6150
 4581TIP3    H235235   0.838   1.468   2.214  0.0972 -0.7647  1.0058
 4582TIP3   OH235236   6.747   0.493  14.715  0.0671 -0.3059 -0.4542
 4582TIP3    H135237   6.823   0.437  14.730 -1.1949 -1.4892  1.6648
 4582TIP3    H235238   6.737   0.542  14.796 -1.8257 -0.6219 -0.4803
 4583TIP3   OH235239   4.550   6.604   5.575  0.5875 -0.5908  0.3433
 4583TIP3    H135240   4.460   6.593   5.604  0.2726  0.0341 -0.3705
 4583TIP3    H235241   4.543   6.651   5.492  1.4596 -2.7758 -0.9935
 4584TIP3   OH235242   3.192   0.330   1.525 -0.1008 -0.0776 -0.0991
 4584TIP3    H135243   3.249   0.338   1.601  0.1155  1.2082 -0.3816
 4584TIP3    H235244   3.208   0.242   1.492 -0.5603 -0.8387  1.6277
 4585TIP3   OH235245   0.759   0.689   1.020  0.2695  0.6714  0.4250
 4585TIP3    H135246   0.744   0.650   1.106  0.7136  1.7231  0.9960
 4585TIP3    H235247   0.671   0.706   0.986  0.0516 -1.7942 -0.3083
 4586TIP3   OH235248   0.310   5.509   4.527 -0.3265  0.6654 -0.1955
 4586TIP3    H135249   0.340   5.471   4.444 -0.8495  1.2567 -0.6635
 4586TIP3    H235250   0.317   5.603   4.514  0.8851  0.7447  0.9313
 4587TIP3   OH235251   4.482   5.905   2.714 -0.8733  0.1526  0.2818
 4587TIP3    H135252   4.450   5.995   2.717  0.0496  0.4562  1.5469
 4587TIP3    H235253   4.451   5.866   2.796 -1.7299 -0.8445 -0.5042
 4588TIP3   OH235254   3.159   2.133   1.852  0.2816  0.4043  0.1705
 4588TIP3    H135255   3.099   2.205   1.873  1.2572  2.7906 -4.4831
 4588TIP3    H235256   3.230   2.175   1.803  0.8142 -3.7307 -2.8691
 4589TIP3   OH235257   6.437   1.035   1.691  0.3098  0.2808 -0.5289
 4589TIP3    H135258   6.436   1.003   1.781  1.0518 -0.0148 -0.6212
 4589TIP3    H235259   6.508   0.985   1.649 -1.4159 -1.1531 -1.8343
 4590TIP3   OH235260   3.751   6.020   4.754 -0.1253 -0.2429  0.3423
 4590TIP3    H135261   3.827   5.970   4.724  0.8547  1.8642 -0.8507
 4590TIP3    H235262   3.679   5.990   4.698  0.1796 -1.1730  0.4488
 4591TIP3   OH235263   2.729   4.007  16.421  0.5090  0.0284 -0.5315
 4591TIP3    H135264   2.800   3.962  16.466  0.8209  0.1401 -0.9158
 4591TIP3    H235265   2.706   3.949  16.348 -0.4050 -0.4496  0.1193
 4592TIP3   OH235266   4.978   3.976   5.022  0.0480 -0.7091 -0.2271
 4592TIP3    H135267   5.016   3.899   4.980  1.2200 -0.5087  0.4652
 4592TIP3    H235268   5.035   4.048   4.997  0.5401 -0.5216  1.3892
 4593TIP3   OH235269   2.121   4.461   1.720 -0.3926  0.6058  0.2738
 4593TIP3    H135270   2.188   4.517   1.759  0.9635  0.1678 -1.3366
 4593TIP3    H235271   2.145   4.456   1.627 -2.1405 -0.3115 -0.1622
 4594TIP3   OH235272   1.398   6.398   4.619 -0.2933 -0.5737  0.3371
 4594TIP3    H135273   1.421   6.423   4.530  0.1185 -1.2188  0.2614
 4594TIP3    H235274   1.481   6.394   4.666 -0.5906  0.6670  0.9872
 4595TIP3   OH235275   1.017   3.658  14.893  0.2527 -0.3115  0.2426
 4595TIP3    H135276   1.081   3.729  14.887 -1.4107  1.2327  0.1910
 4595TIP3    H235277   1.043   3.608  14.971  0.6695  1.1323  1.0430
 4596TIP3   OH235278   5.470   3.122   4.607  0.0468 -0.2855  0.2900
 4596TIP3    H135279   5.509   3.145   4.522 -1.8058  0.1789 -0.4633
 4596TIP3    H235280   5.379   3.152   4.600  0.0383  0.3602  2.6856
 4597TIP3   OH235281   1.940   5.746   4.294  0.5520 -0.0150  0.2967
 4597TIP3    H135282   1.899   5.826   4.262  0.9561  0.3144  0.5971
 4597TIP3    H235283   2.034   5.762   4.285  0.6464 -0.2604  0.8166
 4598TIP3   OH235284   4.453   4.104   0.001 -0.0391 -0.6063  0.1171
 4598TIP3    H135285   4.472   4.178   0.059 -1.2474 -0.8558  0.8444
 4598TIP3    H235286   4.358   4.092   0.007 -0.1820 -0.6823 -1.8722
 4599TIP3   OH235287   4.663   3.270  12.877  0.3363  0.3735 -0.3614
 4599TIP3    H135288   4.736   3.332  12.872  1.6056 -1.0063  0.5096
 4599TIP3    H235289   4.688   3.209  12.947 -1.1582 -0.7510 -0.7743
 4600TIP3   OH235290   5.562   0.815  16.025  0.1791 -0.6565 -0.1185
 4600TIP3    H135291   5.630   0.794  16.089 -1.2285  0.5111  1.8358
 4600TIP3    H235292   5.588   0.899  15.989 -0.0344 -0.3802  0.3673
 4601TIP3   OH235293   6.441   5.005  13.139 -0.5798  0.0003  0.5929
 4601TIP3    H135294   6.393   5.008  13.222 -1.3575  0.6643  0.1279
 4601TIP3    H235295   6.425   5.090  13.099  1.1511  0.3174  0.5051
 4602TIP3   OH235296   3.627   4.005  12.833  0.3976 -0.4627  0.4319
 4602TIP3    H135297   3.588   3.980  12.749  0.0303 -3.1943  1.3739
 4602TIP3    H235298   3.715   4.034  12.811 -0.7304  1.8080 -1.2419
 4603TIP3   OH235299   0.489   1.961  11.616  0.2378  0.5049  0.5019
 4603TIP3    H135300   0.571   1.921  11.588  0.9250  1.0441  1.7181
 4603TIP3    H235301   0.468   2.023  11.546  0.4584 -0.1869 -0.1841
 4604TIP3   OH235302   5.984   5.089  15.823  0.0229  0.1819 -0.1637
 4604TIP3    H135303   5.968   5.014  15.880  0.5695  0.3520  0.2088
 4604TIP3    H235304   6.040   5.147  15.874 -0.4585  0.8825 -0.4208
 4605TIP3   OH235305   2.425   0.569  13.435  0.3877 -0.2762  0.1097
 4605TIP3    H135306   2.457   0.639  13.377  0.4263 -0.8076 -0.5076
 4605TIP3    H235307   2.338   0.599  13.463  0.3441 -0.0478 -0.2669
 4606TIP3   OH235308   4.255   2.250  13.944 -0.0389 -0.1002 -0.0527
 4606TIP3    H135309   4.322   2.308  13.980 -1.2089  0.3603  1.4364
 4606TIP3    H235310   4.179   2.264  14.000 -0.1999 -3.4379  0.6722
 4607TIP3   OH235311   0.047   6.476  17.161  0.5012  0.2115 -0.3061
 4607TIP3    H135312   0.086   6.552  17.120  1.5406  0.5172  1.1987
 4607TIP3    H235313   0.113   6.407  17.154  0.6167  0.2107  0.6366
 4608TIP3   OH235314   0.364   0.946   5.185 -0.4770  0.0261 -0.2259
 4608TIP3    H135315   0.290   0.983   5.137 -0.2339 -0.1734 -0.7620
 4608TIP3    H235316   0.440   0.992   5.152 -0.4100  0.6136  0.7182
 4609TIP3   OH235317   4.990   1.957  12.932  0.3161 -0.2149  0.2860
 4609TIP3    H135318   5.042   1.965  13.012  0.6638 -0.3426  0.0749
 4609TIP3    H235319   5.046   1.909  12.871  0.5008  0.8931 -0.4210
 4610TIP3   OH235320   5.433   2.620  10.792  0.4557  0.1274  0.8876
 4610TIP3    H135321   5.484   2.574  10.726  2.2456 -0.6886  2.7600
 4610TIP3    H235322   5.462   2.711  10.786 -0.8075  0.4403 -0.7192
 4611TIP3   OH235323   4.421   4.962   2.917 -0.3387 -0.5318  0.0667
 4611TIP3    H135324   4.367   4.950   2.838 -1.1060  1.2772  0.2782
 4611TIP3    H235325   4.472   5.041   2.899 -1.4976  0.6643  1.8882
 4612TIP3   OH235326   6.803   3.335  12.657  0.4005 -0.0934 -0.8914
 4612TIP3    H135327   6.777   3.399  12.591  1.5713  0.3686 -0.9076
 4612TIP3    H235328   6.889   3.304  12.628  0.4291 -0.7038 -0.1714
 4613TIP3   OH235329   4.207   0.041  14.065 -0.4255  0.0443 -0.2115
 4613TIP3    H135330   4.202   0.004  14.154 -0.6912  2.9543  1.0518
 4613TIP3    H235331   4.151   0.119  14.069  0.6819  0.9838 -2.5529
 4614TIP3   OH235332   1.358   6.047   4.233 -0.1659  0.1700 -0.3171
 4614TIP3    H135333   1.273   6.008   4.254 -1.0156  1.7025 -0.7944
 4614TIP3    H235334   1.421   5.999   4.286 -1.5592  0.2011  1.4056
 4615TIP3   OH235335   0.032   6.109  11.973  0.5667  0.1538  0.0951
 4615TIP3    H135336   0.028   6.118  11.878 -1.9839  0.0552  0.1626
 4615TIP3    H235337   0.073   6.024  11.987 -1.0124 -0.8092 -0.9749
 4616TIP3   OH235338   6.799   3.595  15.628 -0.4161  0.1786 -0.2819
 4616TIP3    H135339   6.723   3.652  15.641 -0.9611 -0.6731  0.3436
 4616TIP3    H235340   6.786   3.524  15.691  1.1222  0.2467  0.1346
 4617TIP3   OH235341   0.713   0.251  13.500  0.0467 -0.0435 -0.3760
 4617TIP3    H135342   0.634   0.293  13.464  0.5654 -0.2990 -1.8567
 4617TIP3    H235343   0.785   0.301  13.462  0.6073  0.7351  1.6520
 4618TIP3   OH235344   5.670   0.242  13.300  0.3148 -0.0215  0.5188
 4618TIP3    H135345   5.756   0.212  13.329  0.2402 -1.4752 -0.6679
 4618TIP3    H235346   5.685   0.330  13.266  1.0278  0.3464  1.7520
 4619TIP3   OH235347   2.465   0.504   0.318  0.3877  0.2048 -0.0134
 4619TIP3    H135348   2.552   0.494   0.278  0.4801 -0.3969  0.3283
 4619TIP3    H235349   2.420   0.421   0.298  0.1911  0.1770  0.5354
 4620TIP3   OH235350   3.348   4.883  10.685  0.0586 -0.2513 -0.2144
 4620TIP3    H135351   3.255   4.894  10.664 -0.0097 -0.1475  0.1387
 4620TIP3    H235352   3.380   4.820  10.620 -1.3590 -4.0025  2.5427
 4621TIP3   OH235353   0.407   3.482  15.481  0.3998 -0.2052 -0.1625
 4621TIP3    H135354   0.343   3.411  15.486 -0.7303  0.7622 -0.4814
 4621TIP3    H235355   0.456   3.465  15.401  0.3335 -0.7896 -0.0787
 4622TIP3   OH235356   5.948   2.131  16.963 -0.0795 -0.1332 -0.1400
 4622TIP3    H135357   6.027   2.107  16.915  0.1735 -1.2331  0.8029
 4622TIP3    H235358   5.888   2.058  16.950 -0.4378  0.0901  0.2521
 4623TIP3   OH235359   1.145   6.101  13.415  0.0975  0.1780 -0.0191
 4623TIP3    H135360   1.064   6.074  13.373  1.1717  2.3221 -3.6138
 4623TIP3    H235361   1.117   6.155  13.489 -1.7661 -0.3730 -0.3006
 4624TIP3   OH235362   6.176   2.046  16.814  0.2099 -0.0464  0.5179
 4624TIP3    H135363   6.134   1.982  16.757 -0.4231  0.7834  0.0347
 4624TIP3    H235364   6.220   1.994  16.881 -1.2398 -0.9656  0.7944
 4625TIP3   OH235365   3.559   6.211   2.511  0.0089  0.6402  0.3216
 4625TIP3    H135366   3.566   6.261   2.429  1.1908  0.1089  0.0781
 4625TIP3    H235367   3.475   6.167   2.505  0.6362 -0.4214 -1.2317
 4626TIP3   OH235368   0.345   3.693  14.076 -0.2971  0.1676 -0.0375
 4626TIP3    H135369   0.379   3.663  14.160  0.5640  0.5134 -0.2572
 4626TIP3    H235370   0.252   3.710  14.092 -0.2680 -0.3441  0.6843
 4627TIP3   OH235371   1.974   0.936   1.843 -0.6744  0.3452  0.2270
 4627TIP3    H135372   1.911   0.874   1.804 -1.6986  2.9803 -2.5110
 4627TIP3    H235373   2.056   0.888   1.846 -1.8810 -1.8191  0.1087
 4628TIP3   OH235374   2.433   2.181   1.314 -0.0165  0.0838  0.1318
 4628TIP3    H135375   2.423   2.274   1.332 -1.2114  0.0001 -0.0754
 4628TIP3    H235376   2.458   2.178   1.221 -0.3568  0.1851  0.0348
 4629TIP3   OH235377   4.595   4.024   1.860  0.0882  0.2275 -0.0965
 4629TIP3    H135378   4.503   4.045   1.844 -0.0551 -1.1132 -1.0848
 4629TIP3    H235379   4.625   3.986   1.777  0.8763 -1.5728  0.9983
 4630TIP3   OH235380   1.300   1.974  13.714  0.1050 -0.4395  0.1479
 4630TIP3    H135381   1.374   1.914  13.715  0.0018 -0.5572  0.6251
 4630TIP3    H235382   1.259   1.961  13.629  1.2197  0.3433 -0.5230
 4631TIP3   OH235383   5.484   5.887   6.085  0.3617  0.2441  0.3718
 4631TIP3    H135384   5.541   5.844   6.148  1.5660  0.4407 -0.5706
 4631TIP3    H235385   5.479   5.978   6.115 -0.8770 -0.1606  1.4398
 4632TIP3   OH235386   1.713   4.877   1.087 -0.4067  0.0193 -0.4715
 4632TIP3    H135387   1.755   4.947   1.037 -0.2345 -0.4060 -0.9283
 4632TIP3    H235388   1.778   4.806   1.089 -0.9705 -0.5195 -0.9048
 4633TIP3   OH235389   6.229   1.011  13.255  0.3232  0.1919 -0.0994
 4633TIP3    H135390   6.308   1.019  13.201  0.3095 -0.1634 -0.1753
 4633TIP3    H235391   6.220   0.917  13.270  0.8321  0.3560  1.2751
 4634TIP3   OH235392   0.261   1.164   3.979 -0.3750 -0.0442 -0.0045
 4634TIP3    H135393   0.169   1.143   3.996 -0.6481  0.8396 -0.4013
 4634TIP3    H235394   0.306   1.140   4.060 -1.0322  0.0484  0.3887
 4635TIP3   OH235395   1.178   3.118   0.059 -0.2343 -0.6729  0.5900
 4635TIP3    H135396   1.142   3.180  -0.004  0.0292 -0.9230  0.1920
 4635TIP3    H235397   1.112   3.113   0.129 -1.0380 -1.2551 -0.2061
 4636TIP3   OH235398   6.435   5.778  11.278  0.2731 -0.0171  0.0393
 4636TIP3    H135399   6.382   5.802  11.201 -0.1873 -0.2846  0.2690
 4636TIP3    H235400   6.524   5.769  11.244  0.2084  0.6374 -0.3163
 4637TIP3   OH235401   1.071   4.688   4.893 -0.7915  0.1942 -0.1099
 4637TIP3    H135402   1.042   4.728   4.811 -0.3178 -0.6665 -0.7134
 4637TIP3    H235403   1.145   4.741   4.922  0.2625 -0.6071 -1.2549
 4638TIP3   OH235404   6.008   1.028  13.854  0.6361  0.5949 -0.4864
 4638TIP3    H135405   5.991   1.059  13.766 -0.2389  1.6714  0.0587
 4638TIP3    H235406   5.922   1.014  13.893  0.9635  2.1511  0.8920
 4639TIP3   OH235407   2.266   1.682   0.481  0.2519 -0.3638 -0.5306
 4639TIP3    H135408   2.294   1.645   0.397 -0.0271 -0.3740 -0.6186
 4639TIP3    H235409   2.282   1.611   0.544  1.6099  0.0691 -0.3775
 4640TIP3   OH235410   0.871   4.944  11.339  0.0919 -0.0082  0.1670
 4640TIP3    H135411   0.786   4.967  11.301  0.0992 -0.0483  0.1278
 4640TIP3    H235412   0.872   4.989  11.424 -0.4231 -0.8761  0.6426
 4641TIP3   OH235413   4.466   6.099  17.004 -0.2367 -0.0949 -0.1709
 4641TIP3    H135414   4.485   6.192  16.989  0.0890 -0.3450 -1.3147
 4641TIP3    H235415   4.409   6.074  16.932  1.0865 -1.2268 -0.8446
 4642TIP3   OH235416   1.135   5.621  12.310 -0.2908 -0.1073 -0.4596
 4642TIP3    H135417   1.109   5.547  12.364  1.4328 -2.5276 -2.8220
 4642TIP3    H235418   1.077   5.692  12.338 -3.1648 -2.7700  0.7387
 4643TIP3   OH235419   3.928   5.673  10.496  0.5558 -0.3419  0.7062
 4643TIP3    H135420   3.873   5.595  10.485  1.0505 -0.6222  0.2106
 4643TIP3    H235421   3.877   5.743  10.455  0.1320 -0.4092  1.1092
 4644TIP3   OH235422   0.801   5.162  12.827 -0.3674  0.0038  0.2148
 4644TIP3    H135423   0.773   5.094  12.888  1.0173 -1.6418 -0.9368
 4644TIP3    H235424   0.886   5.191  12.861 -0.8258  0.9393  0.5443
 4645TIP3   OH235425   1.435   4.553  11.690  0.1878  0.2381  0.2882
 4645TIP3    H135426   1.358   4.593  11.731 -1.4912  0.0717 -2.5651
 4645TIP3    H235427   1.408   4.464  11.669  1.1293  0.1823 -0.7657
 4646TIP3   OH235428   0.740   1.718  11.934 -0.6915  0.2757 -0.2005
 4646TIP3    H135429   0.822   1.738  11.979 -0.8627 -0.5416  0.5000
 4646TIP3    H235430   0.672   1.756  11.989 -0.7316  1.8967 -1.3415
 4647TIP3   OH235431   6.530   1.549  16.337  0.7043  0.3027 -0.5526
 4647TIP3    H135432   6.597   1.585  16.395 -0.0188 -0.5798  0.8553
 4647TIP3    H235433   6.527   1.610  16.263  2.7262  0.5909 -0.4170
 4648TIP3   OH235434   6.780   0.703   6.164 -0.1268  0.2522  0.3058
 4648TIP3    H135435   6.862   0.672   6.125  0.6445  0.3958  1.7686
 4648TIP3    H235436   6.808   0.761   6.235 -1.4480 -1.0311  1.9054
 4649TIP3   OH235437   2.792   4.319   1.949 -0.2049 -0.0985  0.2220
 4649TIP3    H135438   2.857   4.328   2.018  0.8157  0.0501 -0.7342
 4649TIP3    H235439   2.721   4.378   1.974  0.7619  0.9761  0.4636
 4650TIP3   OH235440   0.723   1.349   5.053  0.1623 -1.2044 -0.3429
 4650TIP3    H135441   0.750   1.362   4.962  3.1210  1.4288  0.8175
 4650TIP3    H235442   0.679   1.430   5.077 -2.9218 -2.8727 -0.1188
 4651TIP3   OH235443   3.088   5.680  15.631  0.2371 -0.2514 -0.0712
 4651TIP3    H135444   3.046   5.692  15.546  0.2807  2.1980  0.2425
 4651TIP3    H235445   3.114   5.587  15.631 -1.1839 -0.6935 -2.0569
 4652TIP3   OH235446   5.693   6.642   6.260  0.3230 -0.6300  0.1032
 4652TIP3    H135447   5.665   6.640   6.168 -2.5804  2.7276  0.8141
 4652TIP3    H235448   5.660   6.561   6.297  0.0632 -1.2352 -1.4036
 4653TIP3   OH235449   5.494   6.692   0.729  0.4651 -0.6600 -0.3261
 4653TIP3    H135450   5.562   6.626   0.745  0.9314 -0.2749 -0.6766
 4653TIP3    H235451   5.538   6.776   0.748  0.2694 -0.3716 -1.1546
 4654TIP3   OH235452   2.712   4.135  17.206 -0.1184 -0.1335 -0.4398
 4654TIP3    H135453   2.727   4.071  17.275 -0.8514  0.7784  0.5875
 4654TIP3    H235454   2.675   4.085  17.134  1.0617 -1.1711 -0.3418
 4655TIP3   OH235455   5.688   2.341  15.461  0.2935  0.0725  0.2652
 4655TIP3    H135456   5.763   2.308  15.411  1.8201  0.0881  2.4922
 4655TIP3    H235457   5.690   2.436  15.450 -0.1920 -0.0278 -0.7436
 4656TIP3   OH235458   3.216   1.185   1.113  0.0230 -0.1537 -0.3435
 4656TIP3    H135459   3.280   1.118   1.089 -0.0432 -0.5039  0.4602
 4656TIP3    H235460   3.217   1.246   1.039  0.4781 -0.7463 -0.8320
 4657TIP3   OH235461   1.944   3.585  16.337 -0.4496 -1.2404 -0.3917
 4657TIP3    H135462   1.908   3.510  16.290  0.4791 -0.5681 -2.2026
 4657TIP3    H235463   2.003   3.546  16.401 -0.6120 -2.0940 -0.7470
 4658TIP3   OH235464   4.457   1.711   2.092  0.7039 -0.1088  0.3863
 4658TIP3    H135465   4.552   1.715   2.099  0.7179  0.7440 -0.3033
 4658TIP3    H235466   4.440   1.650   2.020  0.7477  0.3676 -0.0321
 4659TIP3   OH235467   2.187   3.799  14.096  0.4022  0.2583  0.1199
 4659TIP3    H135468   2.173   3.752  14.178 -0.0373  1.3405  0.6888
 4659TIP3    H235469   2.123   3.763  14.035 -0.1979  0.4040  0.6660
 4660TIP3   OH235470   6.646   1.301  14.937 -0.0830  0.0962 -0.6013
 4660TIP3    H135471   6.689   1.387  14.933  1.6463 -0.7069  0.1874
 4660TIP3    H235472   6.565   1.318  14.985  0.2683  1.2790 -0.3997
 4661TIP3   OH235473   3.833   0.854   1.816  0.2381 -0.4142 -0.0589
 4661TIP3    H135474   3.763   0.851   1.752  1.2478 -1.7570 -1.1295
 4661TIP3    H235475   3.834   0.944   1.847 -1.4825 -0.2184 -0.5542
 4662TIP3   OH235476   4.768   0.810  13.461  0.1604 -0.4411 -0.1913
 4662TIP3    H135477   4.717   0.843  13.387  1.4000 -2.0835 -1.8044
 4662TIP3    H235478   4.707   0.755  13.510  0.2295 -2.0956 -1.9057
 4663TIP3   OH235479   5.784   5.745   5.758  0.5184 -0.0581  0.9493
 4663TIP3    H135480   5.846   5.763   5.828 -1.3301  1.5899  2.1891
 4663TIP3    H235481   5.729   5.674   5.791  1.6302 -1.4840 -0.1333
 4664TIP3   OH235482   0.243   1.914  15.697  0.2978 -0.0737  0.0247
 4664TIP3    H135483   0.272   1.839  15.646 -2.5372 -0.6161 -0.9060
 4664TIP3    H235484   0.219   1.980  15.631 -1.4908 -0.0400  0.6759
 4665TIP3   OH235485   0.278   2.881  11.157  0.2681 -0.1832  0.2555
 4665TIP3    H135486   0.252   2.973  11.168 -1.9575 -0.8466  0.9234
 4665TIP3    H235487   0.262   2.863  11.065 -0.4033 -0.1984  0.3673
 4666TIP3   OH235488   2.235   0.062  16.179 -0.0215 -0.2135  0.4805
 4666TIP3    H135489   2.309   0.119  16.196  0.7879 -1.1798  0.2868
 4666TIP3    H235490   2.274  -0.018  16.142 -1.1940 -0.5455 -0.0892
 4667TIP3   OH235491   0.546   1.034  10.753  0.2496 -0.2005 -0.2563
 4667TIP3    H135492   0.517   1.072  10.670 -2.0182 -2.6412 -0.6380
 4667TIP3    H235493   0.624   0.983  10.731  0.4228  0.2248 -0.6279
 4668TIP3   OH235494   3.817   5.609  17.180 -0.4453 -0.6333  0.7680
 4668TIP3    H135495   3.768   5.685  17.212  0.1857  0.4874 -0.8315
 4668TIP3    H235496   3.750   5.544  17.159 -1.3397  1.1187 -2.0240
 4669TIP3   OH235497   2.256   1.829  11.951 -0.1339  0.0407  0.0500
 4669TIP3    H135498   2.192   1.887  11.910 -1.3092 -2.1496 -1.2851
 4669TIP3    H235499   2.287   1.878  12.028 -1.5202  2.1651 -0.6984
 4670TIP3   OH235500   2.595   1.487  10.966  0.9824 -0.0815  0.1284
 4670TIP3    H135501   2.634   1.400  10.955  1.3723 -0.0217  0.9903
 4670TIP3    H235502   2.637   1.540  10.899  0.6744 -0.5828 -0.4651
 4671TIP3   OH235503   4.440   5.591   5.109  0.1162  0.2262  0.3788
 4671TIP3    H135504   4.378   5.577   5.038 -0.8757  0.7755  1.1169
 4671TIP3    H235505   4.441   5.686   5.122  1.0112  0.2062  0.4559
 4672TIP3   OH235506   0.428   1.841  11.845  0.1729 -0.2966  0.2661
 4672TIP3    H135507   0.383   1.891  11.777 -1.3370  1.7972  2.7256
 4672TIP3    H235508   0.519   1.872  11.842  0.1827 -0.4270 -0.9505
 4673TIP3   OH235509   3.634   1.249   0.243 -0.0461  0.2502  0.5555
 4673TIP3    H135510   3.604   1.264   0.154  0.1657 -2.3958  0.0034
 4673TIP3    H235511   3.729   1.259   0.238 -0.0462  0.2210  0.4929
 4674TIP3   OH235512   6.293   3.355   0.792  0.3332 -0.2958 -0.3585
 4674TIP3    H135513   6.309   3.395   0.706  1.0814  0.6670  0.2218
 4674TIP3    H235514   6.279   3.429   0.850  0.8383 -0.9200  0.5586
 4675TIP3   OH235515   6.132   4.492  12.703  0.2417  0.3829 -0.0799
 4675TIP3    H135516   6.189   4.424  12.670  1.5278  1.5093 -0.2326
 4675TIP3    H235517   6.190   4.550  12.753 -1.3467 -0.2915  2.6482
 4676TIP3   OH235518   2.056   5.123  13.637  0.3532  0.4422 -0.4818
 4676TIP3    H135519   2.088   5.137  13.548 -1.4052 -0.2270 -1.2403
 4676TIP3    H235520   2.062   5.029  13.651  0.5906  0.5383  0.1106
 4677TIP3   OH235521   5.107   5.110  17.223  0.7499 -0.3031  0.0842
 4677TIP3    H135522   5.048   5.154  17.162  0.9443 -0.1984 -0.0297
 4677TIP3    H235523   5.142   5.180  17.278 -0.8704 -0.6289  1.5757
 4678TIP3   OH235524   5.831   5.516  16.876 -0.0164  0.4359  0.6917
 4678TIP3    H135525   5.829   5.603  16.915 -1.6219  1.9056 -2.4684
 4678TIP3    H235526   5.923   5.490  16.880  0.5882  2.5205  1.1427
 4679TIP3   OH235527   5.051   4.416   0.578  0.5986 -0.0797 -0.2943
 4679TIP3    H135528   5.119   4.394   0.641 -0.0866  0.6462  0.7270
 4679TIP3    H235529   5.097   4.461   0.507  1.0013  1.8853  1.1594
 4680TIP3   OH235530   0.391   5.167  11.867  0.2840 -0.4599 -0.5169
 4680TIP3    H135531   0.341   5.226  11.810 -0.3952 -0.4152  0.1163
 4680TIP3    H235532   0.466   5.219  11.895 -0.2203  0.0517 -0.1016
 4681TIP3   OH235533   5.535   3.047  11.490 -0.1215  0.3373  0.0632
 4681TIP3    H135534   5.585   3.123  11.461 -2.3070  1.7947  0.0451
 4681TIP3    H235535   5.561   3.034  11.581  0.0530  1.2783  0.1492
 4682TIP3   OH235536   1.658   3.339  12.850 -0.6270  0.1544 -0.4243
 4682TIP3    H135537   1.608   3.295  12.782 -0.9197  2.7440 -1.9879
 4682TIP3    H235538   1.593   3.368  12.913 -0.6540 -0.0482 -0.3613
 4683TIP3   OH235539   6.488   3.272   5.989  0.7504  0.3732 -0.2399
 4683TIP3    H135540   6.400   3.252   5.958  0.0858  1.0386  1.1533
 4683TIP3    H235541   6.504   3.210   6.060  1.7565 -0.3229 -1.0573
 4684TIP3   OH235542   5.631   0.167  10.951 -0.3967  0.1177  0.0461
 4684TIP3    H135543   5.715   0.213  10.949 -0.8293  0.9279  0.0763
 4684TIP3    H235544   5.650   0.081  10.915  0.2079  0.7047 -1.0688
 4685TIP3   OH235545   6.056   2.054   4.966 -0.1492 -0.0190 -0.0477
 4685TIP3    H135546   6.065   2.149   4.980 -1.7581  0.2156 -0.4452
 4685TIP3    H235547   6.028   2.046   4.875  1.7996 -1.0140 -0.5924
 4686TIP3   OH235548   6.021   3.632   2.217  0.0547 -0.3841  0.7699
 4686TIP3    H135549   6.066   3.661   2.296  0.8054 -1.1448  0.6204
 4686TIP3    H235550   6.084   3.576   2.172 -0.0497  0.7154 -0.8058
 4687TIP3   OH235551   5.276   0.300  11.306 -0.4593 -1.0336  0.8710
 4687TIP3    H135552   5.278   0.376  11.248  2.0352 -1.1227  0.7718
 4687TIP3    H235553   5.221   0.237  11.260  2.7398 -1.7130 -2.3208
 4688TIP3   OH235554   2.525   4.160   0.950  0.4125 -0.5793 -0.2945
 4688TIP3    H135555   2.500   4.075   0.986 -3.2546  0.2617 -0.6819
 4688TIP3    H235556   2.568   4.139   0.867 -1.2657 -2.0649 -0.8168
 4689TIP3   OH235557   0.803   6.303  15.989  0.5436 -0.0412 -0.0419
 4689TIP3    H135558   0.726   6.349  15.954 -0.1370 -1.8833 -1.0320
 4689TIP3    H235559   0.808   6.332  16.080 -1.1139  0.3900 -0.0631
 4690TIP3   OH235560   3.424   5.369  16.308 -0.8528 -0.1651 -0.0382
 4690TIP3    H135561   3.459   5.340  16.393 -1.4974 -1.5886 -0.2365
 4690TIP3    H235562   3.452   5.460  16.301  0.4596 -0.4510  1.0488
 4691TIP3   OH235563   3.528   6.544   5.315 -0.3054  0.3758  0.0538
 4691TIP3    H135564   3.439   6.518   5.342 -0.8284  1.3618 -0.7108
 4691TIP3    H235565   3.562   6.592   5.390 -1.0601  1.4810 -0.3013
 4692TIP3   OH235566   2.817   3.353   4.199  0.5639 -0.9261  0.1940
 4692TIP3    H135567   2.824   3.349   4.294  1.6819 -1.6754  0.0942
 4692TIP3    H235568   2.774   3.271   4.175  0.1168 -0.6553  0.0676
 4693TIP3   OH235569   3.807   3.253  14.585 -0.0611  0.0717 -0.5849
 4693TIP3    H135570   3.895   3.274  14.553  0.0816 -2.2761 -1.8404
 4693TIP3    H235571   3.788   3.321  14.650  2.7121  0.5416 -0.2209
 4694TIP3   OH235572   1.213   1.988   5.541  0.3175  0.1101  0.0167
 4694TIP3    H135573   1.151   2.058   5.564  0.4166  0.1948  0.0272
 4694TIP3    H235574   1.296   2.034   5.526 -0.1057  0.2664 -2.1162
 4695TIP3   OH235575   6.414   2.754   0.849 -0.1912 -0.2395  0.0323
 4695TIP3    H135576   6.372   2.736   0.933 -0.5108 -1.4753 -0.3800
 4695TIP3    H235577   6.485   2.815   0.870 -2.0744  1.7374  0.7551
 4696TIP3   OH235578   0.957   5.764   2.569 -0.5559 -0.4284 -0.0733
 4696TIP3    H135579   0.959   5.832   2.637 -5.3012 -2.2901  2.1801
 4696TIP3    H235580   1.020   5.698   2.599  1.1218  1.0973 -0.1867
 4697TIP3   OH235581   1.668   0.693   3.565 -0.2173  0.2672  0.6551
 4697TIP3    H135582   1.707   0.767   3.518 -2.2581  1.1802  0.3330
 4697TIP3    H235583   1.574   0.703   3.552 -0.5305 -2.5871  0.3478
 4698TIP3   OH235584   3.627   4.401   2.513  0.4158  0.1855 -0.0151
 4698TIP3    H135585   3.661   4.315   2.539 -0.8008  0.0520  1.2130
 4698TIP3    H235586   3.532   4.389   2.507 -0.1611  2.2089  3.4728
 4699TIP3   OH235587   1.223   5.851   5.613 -0.3319 -0.0535 -0.1464
 4699TIP3    H135588   1.150   5.901   5.649 -0.5041 -1.1322  1.0692
 4699TIP3    H235589   1.294   5.914   5.602 -1.1682  0.8246 -0.4961
 4700TIP3   OH235590   1.344   5.463   5.585 -0.1602  0.5487 -0.0357
 4700TIP3    H135591   1.429   5.507   5.574 -0.3141  0.3752 -2.0739
 4700TIP3    H235592   1.365   5.369   5.579 -0.6596  0.5423 -1.8677
 4701TIP3   OH235593   0.667   0.059  11.635 -0.2848 -0.3936 -0.0001
 4701TIP3    H135594   0.628   0.080  11.719 -1.3007  1.9194 -1.0099
 4701TIP3    H235595   0.761   0.062  11.651 -0.4261  2.0115  0.6539
 4702TIP3   OH235596   1.634   1.308  14.243  0.3223  0.4138 -0.2292
 4702TIP3    H135597   1.695   1.237  14.265 -0.3340 -0.5022 -1.3175
 4702TIP3    H235598   1.555   1.264  14.214 -0.4862  1.6063  0.1173
 4703TIP3   OH235599   0.653   6.585   1.835  0.1014  0.2231 -0.3918
 4703TIP3    H135600   0.666   6.621   1.922 -0.2874  1.2648 -0.7528
 4703TIP3    H235601   0.736   6.603   1.789  0.4630 -0.7076 -0.1103
 4704TIP3   OH235602   5.566   0.005   3.682  0.1141 -0.5459 -0.2516
 4704TIP3    H135603   5.535   0.043   3.600 -2.0436 -1.6283  0.0214
 4704TIP3    H235604   5.615  -0.073   3.655 -1.2959 -1.3673 -0.5043
 4705TIP3   OH235605   5.964   0.289   4.183  0.0780  0.0647  0.3897
 4705TIP3    H135606   5.919   0.276   4.267 -1.0927  0.9389 -0.0800
 4705TIP3    H235607   5.966   0.202   4.144  0.3179 -0.2889  1.1731
 4706TIP3   OH235608   3.784   6.114  12.751 -0.2355  0.2377  0.1195
 4706TIP3    H135609   3.836   6.034  12.741  1.8058  1.7272 -1.3348
 4706TIP3    H235610   3.775   6.125  12.846 -1.0388 -1.9965  0.3359
 4707TIP3   OH235611   0.719   3.645   5.556  0.3807 -0.4166 -0.4548
 4707TIP3    H135612   0.787   3.651   5.623 -0.5178  1.3147  0.3212
 4707TIP3    H235613   0.737   3.563   5.510  0.6680 -1.9136  2.2792
 4708TIP3   OH235614   3.177   6.603   4.686 -0.6262 -0.3914  0.2527
 4708TIP3    H135615   3.221   6.687   4.683 -0.8009 -0.2436  1.7641
 4708TIP3    H235616   3.092   6.621   4.726 -1.0925 -1.1043 -0.3909
 4709TIP3   OH235617   0.800   2.778  16.791 -0.1734  0.8009 -0.0686
 4709TIP3    H135618   0.847   2.695  16.790  0.6849  1.2749  0.6262
 4709TIP3    H235619   0.745   2.774  16.869  0.7550  1.3689  0.6219
 4710TIP3   OH235620   4.197   2.885  14.400 -0.1939 -0.9478  0.5469
 4710TIP3    H135621   4.268   2.842  14.447 -1.0416 -0.7119  2.0832
 4710TIP3    H235622   4.226   2.887  14.309  1.4179 -1.5417  1.0313
 4711TIP3   OH235623   6.140   4.914   0.393  0.5914 -0.2287  0.3615
 4711TIP3    H135624   6.174   4.960   0.316 -0.9362 -0.2756 -0.3484
 4711TIP3    H235625   6.097   4.983   0.444  0.5290 -0.4182  0.5618
 4712TIP3   OH235626   5.796   6.647  12.710  0.4488 -0.0771  0.6116
 4712TIP3    H135627   5.860   6.577  12.727 -0.0923 -0.4405  1.1598
 4712TIP3    H235628   5.760   6.668  12.796  1.1201  1.3895  0.5632
 4713TIP3   OH235629   3.070   0.968  14.489  0.4895  0.3256 -0.1389
 4713TIP3    H135630   3.143   1.009  14.535  1.5955 -1.2263 -0.4656
 4713TIP3    H235631   3.101   0.960  14.398  1.4038 -3.7043  0.4591
 4714TIP3   OH235632   2.117   2.273   4.013  0.7093  0.4170 -0.1927
 4714TIP3    H135633   2.210   2.260   3.992  0.7741  1.5617 -0.6214
 4714TIP3    H235634   2.107   2.368   4.021 -0.7918  0.4266 -1.8294
 4715TIP3   OH235635   3.651   2.947  17.076 -0.4880 -0.0558  0.0385
 4715TIP3    H135636   3.727   2.978  17.125 -0.4000  1.4569 -1.0057
 4715TIP3    H235637   3.667   2.977  16.986  0.1087 -4.0838 -1.2890
 4716TIP3   OH235638   2.896   1.495  12.269 -0.3308  0.0439 -0.1711
 4716TIP3    H135639   2.915   1.465  12.180  1.0808  0.5749 -0.0677
 4716TIP3    H235640   2.919   1.588  12.269 -0.9041  0.1929  0.5771
 4717TIP3   OH235641   0.977   2.836  17.085  0.5810  0.0337  0.1534
 4717TIP3    H135642   0.998   2.744  17.098  1.4958  0.1731 -0.3146
 4717TIP3    H235643   1.051   2.871  17.036  0.0397  0.9212 -0.0408
 4718TIP3   OH235644   3.980   3.747   6.042 -0.9538  0.3175  0.3099
 4718TIP3    H135645   4.051   3.763   6.103 -0.9508  0.6228  0.2274
 4718TIP3    H235646   3.957   3.833   6.008 -0.2722  0.0389 -0.8808
 4719TIP3   OH235647   6.211   3.190  16.574 -0.0036 -0.1260 -0.3902
 4719TIP3    H135648   6.132   3.135  16.574 -1.4242  1.8595 -0.7828
 4719TIP3    H235649   6.197   3.252  16.503  1.1560  1.3127  0.6050
 4720TIP3   OH235650   4.707   1.093   6.257 -0.4256 -0.3888 -0.0684
 4720TIP3    H135651   4.654   1.167   6.287 -1.1896 -1.1240  0.4125
 4720TIP3    H235652   4.796   1.115   6.285 -0.3777  1.0664 -1.2763
 4721TIP3   OH235653   0.082   5.871  16.234  0.2342 -0.0376  0.0676
 4721TIP3    H135654   0.124   5.942  16.186  0.8787 -1.6998 -1.8900
 4721TIP3    H235655  -0.006   5.864  16.196  0.7409 -1.3571 -0.8759
 4722TIP3   OH235656   1.779   0.497  11.232  0.2539 -0.1867  0.2102
 4722TIP3    H135657   1.821   0.582  11.247  0.4891  0.3828 -3.3336
 4722TIP3    H235658   1.711   0.493  11.299  1.8550  1.6698  2.0216
 4723TIP3   OH235659   2.160   6.805   1.313  0.6132  0.6350  0.0355
 4723TIP3    H135660   2.090   6.769   1.258 -0.7791 -1.2090  2.8649
 4723TIP3    H235661   2.114   6.860   1.376  1.9258  0.8809  0.7813
 4724TIP3   OH235662   5.183   2.384  11.008  0.0698  0.4325 -0.4953
 4724TIP3    H135663   5.203   2.470  10.971 -3.0164  1.2593 -0.3292
 4724TIP3    H235664   5.135   2.403  11.089  0.6495 -1.4503  0.3179
 4725TIP3   OH235665   0.646   2.143  13.286  0.0833 -0.1956 -0.0104
 4725TIP3    H135666   0.565   2.098  13.309 -0.3957 -0.0172 -1.2871
 4725TIP3    H235667   0.635   2.231  13.322 -0.1897 -0.2407  0.0224
 4726TIP3   OH235668   0.050   5.530   0.606  0.2365  0.1474  0.0461
 4726TIP3    H135669   0.077   5.505   0.695  0.7799  0.6196  0.0109
 4726TIP3    H235670  -0.024   5.472   0.588  1.1196 -1.0614  0.1924
 4727TIP3   OH235671   5.345   2.464   4.777  0.5188  0.4455 -0.2720
 4727TIP3    H135672   5.288   2.488   4.850  0.7605  0.3761 -0.0585
 4727TIP3    H235673   5.290   2.471   4.700  0.3750  0.9271 -0.1273
 4728TIP3   OH235674   5.492   2.352   2.798  0.1035  0.2457  0.8057
 4728TIP3    H135675   5.479   2.277   2.739 -0.4792  1.2388 -0.3656
 4728TIP3    H235676   5.471   2.318   2.885 -2.0391 -0.4781  0.0515
 4729TIP3   OH235677   5.041   6.643   5.328 -0.5859 -0.4036 -0.7151
 4729TIP3    H135678   5.039   6.619   5.421 -1.6203  2.2186 -0.0283
 4729TIP3    H235679   4.955   6.618   5.294 -0.8455  0.2404 -0.5383
 4730TIP3   OH235680   5.913   1.755   0.226 -0.4255 -0.5169  0.1447
 4730TIP3    H135681   5.923   1.850   0.237 -0.8770  0.0159 -3.4509
 4730TIP3    H235682   6.002   1.722   0.227 -0.3747 -0.5115  4.3705
 4731TIP3   OH235683   4.397   0.653   3.083 -0.2977  0.1386  0.3165
 4731TIP3    H135684   4.490   0.659   3.106 -0.5551 -1.5622  1.8491
 4731TIP3    H235685   4.372   0.744   3.063  2.0490  0.4153 -1.6748
 4732TIP3   OH235686   1.278   5.646   0.475 -0.1959 -0.3521  0.0002
 4732TIP3    H135687   1.295   5.614   0.387 -0.4606  0.4438 -0.3430
 4732TIP3    H235688   1.311   5.736   0.475 -1.4139  0.1091  0.3053
 4733TIP3   OH235689   0.615   2.795  16.600  0.3337  0.4423  0.2711
 4733TIP3    H135690   0.672   2.802  16.677 -0.3695  1.8533  0.6775
 4733TIP3    H235691   0.595   2.702  16.593  1.2906  0.1632  1.1429
 4734TIP3   OH235692   0.952   1.061   0.865  0.3548  0.3456 -0.5266
 4734TIP3    H135693   0.972   1.057   0.771 -0.7545  0.7683 -0.7977
 4734TIP3    H235694   0.929   1.153   0.880  0.6567  0.3045  0.1903
 4735TIP3   OH235695   0.917   3.490  16.753  0.0750  0.1583  0.1863
 4735TIP3    H135696   0.943   3.442  16.831 -2.4559  1.6296  2.0236
 4735TIP3    H235697   0.843   3.441  16.718  0.0961  0.4525 -0.2737
 4736TIP3   OH235698   1.128   5.619  11.155 -0.1376  0.0580 -0.0675
 4736TIP3    H135699   1.045   5.651  11.191  0.8958  3.3012 -0.3869
 4736TIP3    H235700   1.112   5.607  11.062 -0.4050  0.2142 -0.0421
 4737TIP3   OH235701   5.253   4.425   4.498  0.0118 -0.7787 -0.1077
 4737TIP3    H135702   5.224   4.460   4.582  1.2114  2.0271 -0.7869
 4737TIP3    H235703   5.347   4.414   4.507 -0.0845 -2.0021 -0.5626
 4738TIP3   OH235704   6.180   6.322   6.086 -0.1780 -0.5187 -0.3271
 4738TIP3    H135705   6.212   6.336   5.997  1.4072  0.6571  0.3962
 4738TIP3    H235706   6.256   6.341   6.142 -1.1498 -1.2305  1.2764
 4739TIP3   OH235707   4.989   5.470   3.317 -0.4317 -0.2041  0.4089
 4739TIP3    H135708   5.027   5.522   3.387 -1.1454  0.0961  0.5830
 4739TIP3    H235709   4.937   5.403   3.363  0.6503 -1.2113  0.1936
 4740TIP3   OH235710   1.855   5.989  11.412 -0.3766  0.4444  0.0551
 4740TIP3    H135711   1.847   5.897  11.388  0.7357 -0.0865  1.6044
 4740TIP3    H235712   1.840   5.990  11.507  0.2132  1.7745  0.1425
 4741TIP3   OH235713   6.243   6.113  14.176  0.0399  0.4362 -0.1724
 4741TIP3    H135714   6.183   6.160  14.119  1.4484  3.5309  0.7854
 4741TIP3    H235715   6.204   6.120  14.263 -0.4923 -1.5269 -0.2251
 4742TIP3   OH235716   6.513   4.417   5.443  0.2077  0.3089  0.4164
 4742TIP3    H135717   6.597   4.376   5.463  0.3789  1.0449  1.2519
 4742TIP3    H235718   6.523   4.507   5.474 -0.3201  0.8631 -0.9737
 4743TIP3   OH235719   1.294   3.096   1.731  0.6546  0.3886 -0.2454
 4743TIP3    H135720   1.203   3.067   1.728  0.6478  0.4061 -0.1968
 4743TIP3    H235721   1.314   3.106   1.824  0.8570 -0.0902 -0.2360
 4744TIP3   OH235722   3.839   3.883   0.874 -0.2909 -0.9285 -0.8280
 4744TIP3    H135723   3.761   3.900   0.927  1.0811  0.3756  0.8545
 4744TIP3    H235724   3.859   3.967   0.833  1.3074 -0.7284  0.2962
 4745TIP3   OH235725   3.277   0.181  14.072  0.2728 -0.3930 -0.6530
 4745TIP3    H135726   3.249   0.272  14.061 -0.2407 -0.4361  0.2240
 4745TIP3    H235727   3.372   0.185  14.067  0.2913  0.2917  0.0572
 4746TIP3   OH235728   6.728   6.198  15.746 -0.7681 -0.3908  0.0754
 4746TIP3    H135729   6.736   6.283  15.703 -2.8249 -0.3613 -0.2611
 4746TIP3    H235730   6.767   6.136  15.684  1.3446  0.3644  0.6050
 4747TIP3   OH235731   0.812   3.152   2.082 -0.5162  0.1403  0.0415
 4747TIP3    H135732   0.859   3.169   2.163 -0.6714  2.0512 -0.2580
 4747TIP3    H235733   0.721   3.138   2.109 -0.4809  0.3046  0.2462
 4748TIP3   OH235734   3.095   2.401  13.826  0.1412 -0.2057  0.0714
 4748TIP3    H135735   3.029   2.350  13.873 -0.3213 -0.5890 -0.9988
 4748TIP3    H235736   3.091   2.488  13.867  0.1717 -0.7007  1.1547
 4749TIP3   OH235737   4.645   5.770   4.643  0.1963 -0.6765 -0.0405
 4749TIP3    H135738   4.738   5.794   4.640  0.5343 -1.9380 -0.0828
 4749TIP3    H235739   4.599   5.850   4.621  1.2691  0.0431  0.2732
 4750TIP3   OH235740   0.397   3.008  13.061  0.0324  0.2171  0.1692
 4750TIP3    H135741   0.432   2.925  13.094 -1.1736  0.0580  1.0767
 4750TIP3    H235742   0.309   2.987  13.031  0.5579  0.6932 -1.7610
 4751TIP3   OH235743   5.906   2.323   1.589 -0.1177  0.1250  0.4257
 4751TIP3    H135744   5.943   2.378   1.657  1.2990 -1.2788  0.8163
 4751TIP3    H235745   5.847   2.381   1.541  0.2869  1.6061  1.6757
 4752TIP3   OH235746   3.163   6.628  13.802  0.1564 -0.2501  0.7018
 4752TIP3    H135747   3.100   6.580  13.748  0.3162  0.5487 -0.2069
 4752TIP3    H235748   3.231   6.564  13.823  0.6119 -0.3080 -0.8990
 4753TIP3   OH235749   3.305   2.238   5.712  0.2530 -0.7263  0.0489
 4753TIP3    H135750   3.259   2.279   5.639  0.1339  0.5206  0.8195
 4753TIP3    H235751   3.247   2.166   5.739  0.0962 -0.9194 -0.7951
 4754TIP3   OH235752   0.953   4.677  11.333 -0.2599 -0.0406 -0.0705
 4754TIP3    H135753   0.916   4.760  11.364  0.2285 -0.6005  2.0468
 4754TIP3    H235754   0.879   4.630  11.295 -0.3777  1.7330 -2.1776
 4755TIP3   OH235755   1.000   3.964  16.489 -0.1823  0.5992 -0.8486
 4755TIP3    H135756   0.947   4.024  16.542 -0.0034 -0.7381  0.9030
 4755TIP3    H235757   0.945   3.944  16.413 -1.0381  1.4339 -0.4635
 4756TIP3   OH235758   0.425   2.155  15.201  0.2154  0.1519  0.5051
 4756TIP3    H135759   0.333   2.173  15.180  0.1056  0.3105  1.1032
 4756TIP3    H235760   0.459   2.111  15.123 -0.7238 -1.1337  0.8009
 4757TIP3   OH235761   4.989   6.687  11.566 -0.1733 -0.0063 -0.2228
 4757TIP3    H135762   4.984   6.777  11.534 -1.5795 -0.7019 -2.0118
 4757TIP3    H235763   5.073   6.654  11.532  0.3614  0.6063  0.4656
 4758TIP3   OH235764   3.528   1.574   0.520  0.7699 -0.2322  0.0098
 4758TIP3    H135765   3.483   1.655   0.546  1.7269  0.5689 -0.7724
 4758TIP3    H235766   3.462   1.525   0.470  0.6124  0.7179 -0.7265
 4759TIP3   OH235767   2.515   5.927   3.961 -0.6973 -0.3923  0.6091
 4759TIP3    H135768   2.541   5.906   4.051  1.0111 -1.1851 -0.0540
 4759TIP3    H235769   2.597   5.950   3.917 -1.4667 -0.3753 -0.8561
 4760TIP3   OH235770   5.223   5.703   3.742  0.1819  0.4186  0.6552
 4760TIP3    H135771   5.181   5.628   3.698  0.3852  1.8695 -2.1355
 4760TIP3    H235772   5.155   5.739   3.798 -0.0717 -1.5339  1.6604
 4761TIP3   OH235773   2.825   5.840  14.928  0.1167  0.3478 -0.7189
 4761TIP3    H135774   2.870   5.905  14.873  0.6679  1.5621  1.1294
 4761TIP3    H235775   2.810   5.885  15.011 -0.7920 -1.4318  0.0986
 4762TIP3   OH235776   2.432   3.527   3.062  0.2612  0.3884 -0.2637
 4762TIP3    H135777   2.487   3.498   3.135  0.0736 -1.5122 -0.8557
 4762TIP3    H235778   2.489   3.521   2.985  0.0882  1.2080 -0.4618
 4763TIP3   OH235779   4.452   4.853  12.022  0.3451  0.3334  0.9069
 4763TIP3    H135780   4.462   4.877  12.114 -1.0220  0.5274  1.0163
 4763TIP3    H235781   4.509   4.913  11.974  1.3734 -0.0451  1.6696
 4764TIP3   OH235782   0.682   5.686   2.845  0.3640 -0.2711 -0.2280
 4764TIP3    H135783   0.687   5.668   2.751  0.2060 -1.0819 -0.0804
 4764TIP3    H235784   0.771   5.671   2.877  0.7286  1.2816 -0.4702
 4765TIP3   OH235785   1.173   1.950  17.262  0.4862 -0.1521 -0.1717
 4765TIP3    H135786   1.262   1.972  17.234 -0.2624  1.0469 -1.7253
 4765TIP3    H235787   1.139   2.030  17.302  0.3973 -0.8702  1.2359
 4766TIP3   OH235788   4.186   6.807  15.065  0.0297  0.0325  0.4240
 4766TIP3    H135789   4.190   6.851  15.150 -0.4611  0.0278  0.4496
 4766TIP3    H235790   4.270   6.761  15.059  0.1876  0.2649  0.7776
 4767TIP3   OH235791   6.177   3.133  15.561 -0.2088 -0.5197  0.2451
 4767TIP3    H135792   6.108   3.098  15.617  1.0618 -0.3908  1.9389
 4767TIP3    H235793   6.158   3.227  15.555 -1.1120 -0.7615 -0.6536
 4768TIP3   OH235794   1.653   3.399  12.396  0.2998 -0.6571  0.5109
 4768TIP3    H135795   1.609   3.353  12.467 -2.9565  2.6286  0.7162
 4768TIP3    H235796   1.583   3.432  12.340  2.6810 -0.0765 -2.2901
 4769TIP3   OH235797   2.962   4.197   1.307  0.2548 -0.0502 -0.0397
 4769TIP3    H135798   2.971   4.125   1.369  1.6356  1.3705  1.4322
 4769TIP3    H235799   2.870   4.224   1.316  0.3367 -0.1221  1.0783
 4770TIP3   OH235800   4.874   3.348   2.416  0.1470  0.4580  0.1757
 4770TIP3    H135801   4.790   3.333   2.460 -0.8584  3.3301 -0.6818
 4770TIP3    H235802   4.856   3.326   2.324  0.8460 -0.6454  0.2946
 4771TIP3   OH235803   0.687   2.286  11.482  1.1274 -0.4687  0.2157
 4771TIP3    H135804   0.729   2.244  11.557  1.2253 -0.2840  0.2665
 4771TIP3    H235805   0.641   2.215  11.437 -0.8974 -0.1847  1.7701
 4772TIP3   OH235806   6.583   5.823   3.029  0.8871  0.0698 -0.0321
 4772TIP3    H135807   6.586   5.913   2.998 -0.4278 -0.3752 -1.5413
 4772TIP3    H235808   6.655   5.779   2.983  0.1970 -0.1205 -0.9593
 4773TIP3   OH235809   1.976   4.492  11.816  0.9682  0.1317 -0.3429
 4773TIP3    H135810   1.897   4.541  11.791  0.4060 -0.1608  0.8317
 4773TIP3    H235811   2.031   4.557  11.859  1.0229  0.1451 -0.4321
 4774TIP3   OH235812   2.130   6.305   1.471 -0.1649 -0.2947  0.2545
 4774TIP3    H135813   2.056   6.250   1.498  0.4455 -1.6115 -0.6794
 4774TIP3    H235814   2.207   6.251   1.489  0.4253  0.1547 -0.9121
 4775TIP3   OH235815   6.591   3.288   3.502 -0.2817  0.3346  0.1208
 4775TIP3    H135816   6.611   3.381   3.495 -2.3637  0.6895 -1.2946
 4775TIP3    H235817   6.510   3.284   3.553 -0.4658 -0.6861 -0.2364
 4776TIP3   OH235818   0.118   6.534  14.359 -0.4390 -0.2136  0.1036
 4776TIP3    H135819   0.169   6.605  14.397 -1.5359 -0.2600  1.7026
 4776TIP3    H235820   0.122   6.464  14.424 -0.4220 -1.1610 -0.8940
 4777TIP3   OH235821   6.037   0.444  17.175  0.4430  0.3976 -0.2039
 4777TIP3    H135822   6.063   0.533  17.200  0.9525 -0.0441  0.8293
 4777TIP3    H235823   6.079   0.430  17.091  2.7484  0.0588  0.9853
 4778TIP3   OH235824   4.217   3.835  16.238  0.1710 -0.1830 -0.0709
 4778TIP3    H135825   4.200   3.743  16.254 -0.3070  0.0070  0.5447
 4778TIP3    H235826   4.132   3.872  16.215  0.3933  0.0664 -0.5075
 4779TIP3   OH235827   4.954   0.385   2.015  0.1653 -0.1220  0.3521
 4779TIP3    H135828   4.933   0.471   2.049 -1.0905 -0.6203  0.8525
 4779TIP3    H235829   4.942   0.326   2.089 -1.2298 -1.0257 -0.5679
 4780TIP3   OH235830   2.203   1.099   3.607 -0.2241  0.2636  0.3759
 4780TIP3    H135831   2.245   1.099   3.521 -1.5563  1.2636 -0.3071
 4780TIP3    H235832   2.173   1.009   3.618  3.1152 -0.7850  1.4402
 4781TIP3   OH235833   0.371   2.763  14.893  0.1992  0.6853 -0.1329
 4781TIP3    H135834   0.299   2.788  14.950 -0.0500 -0.6040  0.1282
 4781TIP3    H235835   0.329   2.721  14.818  0.6466  0.4071 -0.2295
 4782TIP3   OH235836   3.682   4.284   4.452 -0.5188  0.1674 -0.3844
 4782TIP3    H135837   3.733   4.203   4.465 -2.4581 -1.4915 -2.6902
 4782TIP3    H235838   3.735   4.337   4.394  0.3788  0.1882  0.4421
 4783TIP3   OH235839   1.705   0.139  11.381  0.1029 -0.0060  0.7445
 4783TIP3    H135840   1.738   0.177  11.300  0.0047  0.3412  0.8624
 4783TIP3    H235841   1.616   0.111  11.359 -0.8162  2.2827  1.3583
 4784TIP3   OH235842   2.339   3.994  14.706  0.2153  0.5596  0.2681
 4784TIP3    H135843   2.372   4.058  14.769 -4.1132  2.0131  1.2330
 4784TIP3    H235844   2.324   3.915  14.759 -0.9064  0.9380  0.5220
 4785TIP3   OH235845   4.972   0.992  16.149  0.0360  0.7793  0.7950
 4785TIP3    H135846   4.943   1.080  16.123 -0.2533  0.4467 -0.0230
 4785TIP3    H235847   5.061   0.986  16.116  0.7738  1.4801  2.5556
 4786TIP3   OH235848   6.109   5.345   9.996 -0.1800 -0.1654 -0.0126
 4786TIP3    H135849   6.134   5.254   9.979  1.7485 -0.0059  1.7116
 4786TIP3    H235850   6.087   5.347  10.090  1.2719  1.4220  0.3287
 4787TIP3   OH235851   2.682   6.600   0.992 -0.4533 -0.3121  0.1878
 4787TIP3    H135852   2.692   6.656   1.069  1.9636 -2.1511  1.2967
 4787TIP3    H235853   2.642   6.520   1.026 -0.2277 -0.7765 -0.6298
 4788TIP3   OH235854   3.175   3.825   5.616  0.1476 -0.7020  0.0850
 4788TIP3    H135855   3.189   3.735   5.588  1.2709 -0.6230  0.3604
 4788TIP3    H235856   3.080   3.834   5.620 -0.0013 -1.3490 -1.6028
 4789TIP3   OH235857   1.817   6.716  12.749  0.3886 -0.5048  0.5847
 4789TIP3    H135858   1.755   6.643  12.747  0.4139 -0.5122 -0.0400
 4789TIP3    H235859   1.834   6.731  12.842 -1.4623  0.2577  0.8233
 4790TIP3   OH235860   2.294   2.666   2.718  0.1809 -0.3510 -0.4387
 4790TIP3    H135861   2.209   2.650   2.758  0.4800  1.5740  1.0262
 4790TIP3    H235862   2.331   2.579   2.703 -1.0602 -1.1459  1.0426
 4791TIP3   OH235863   2.961   6.785   2.727 -0.2341  0.4032  0.6667
 4791TIP3    H135864   2.999   6.873   2.726 -1.5371  1.0079 -1.7703
 4791TIP3    H235865   2.878   6.794   2.679 -1.0429 -1.8783  1.5479
 4792TIP3   OH235866   1.140   0.196  15.603  0.5314 -0.1353  0.2045
 4792TIP3    H135867   1.228   0.198  15.567 -0.0222  0.6088 -1.1534
 4792TIP3    H235868   1.134   0.111  15.647  2.1762  0.1532  1.0147
 4793TIP3   OH235869   3.981   3.541  15.168 -0.6557 -0.3780  0.2490
 4793TIP3    H135870   3.978   3.634  15.148  0.0981 -0.6047 -0.9753
 4793TIP3    H235871   4.069   3.527  15.203 -0.2398 -0.9123 -1.0106
 4794TIP3   OH235872   6.414   2.014   3.296 -0.3733  0.3959 -0.0902
 4794TIP3    H135873   6.435   1.993   3.387 -1.8831 -1.6178 -0.1825
 4794TIP3    H235874   6.341   2.075   3.302 -1.4602 -0.8986  0.0395
 4795TIP3   OH235875   4.598   5.857  14.403  0.5257 -0.4910  0.7612
 4795TIP3    H135876   4.684   5.885  14.436  0.4690 -1.9530  2.1672
 4795TIP3    H235877   4.615   5.771  14.364 -0.1493 -0.4094  0.2847
 4796TIP3   OH235878   5.565   2.837  14.598  0.0821  0.0065 -0.3377
 4796TIP3    H135879   5.641   2.841  14.657 -0.8135 -0.6461  0.9081
 4796TIP3    H235880   5.578   2.757  14.548 -0.2291 -0.6198  0.5500
 4797TIP3   OH235881   1.975   6.559   2.285  0.0218 -0.4180 -0.2036
 4797TIP3    H135882   1.880   6.552   2.282 -0.0661  0.8719 -0.4197
 4797TIP3    H235883   1.996   6.579   2.376  0.0595 -0.3449 -0.2278
 4798TIP3   OH235884   6.188   1.628  10.856 -0.0162  0.9861  0.2569
 4798TIP3    H135885   6.113   1.576  10.885 -0.7388  1.0556 -1.4045
 4798TIP3    H235886   6.260   1.600  10.911 -0.8418 -0.4260  0.6308
 4799TIP3   OH235887   2.827   3.999   2.987  0.0864  0.5924 -0.3167
 4799TIP3    H135888   2.778   4.081   2.982  0.0225  0.5339 -0.6354
 4799TIP3    H235889   2.761   3.932   3.003 -0.0589  0.3799 -1.7432
 4800TIP3   OH235890   6.372   6.694   3.472 -0.1513 -0.0484 -0.2660
 4800TIP3    H135891   6.407   6.605   3.469 -0.3500 -0.1209 -0.5380
 4800TIP3    H235892   6.447   6.749   3.491  0.1376 -0.1831 -1.0047
 4801TIP3   OH235893   3.854   4.148  15.339  0.1343  0.5203 -0.0794
 4801TIP3    H135894   3.804   4.087  15.285  1.9251  0.1442 -1.3632
 4801TIP3    H235895   3.788   4.191  15.394 -1.5591 -0.1614 -1.5153
 4802TIP3   OH235896   2.919   4.710  14.123 -0.1021 -0.4619 -0.0778
 4802TIP3    H135897   2.829   4.696  14.094 -0.9409  1.6353  1.4107
 4802TIP3    H235898   2.955   4.773  14.060  0.2737 -1.1533 -0.5602
 4803TIP3   OH235899   3.478   1.313   0.936 -0.5197 -0.6406  0.3300
 4803TIP3    H135900   3.562   1.272   0.920 -0.0344  0.1650  0.7940
 4803TIP3    H235901   3.426   1.292   0.858  0.3162 -0.6070 -0.2432
 4804TIP3   OH235902   2.960   1.121   1.215  0.2168  0.0953 -0.1074
 4804TIP3    H135903   2.942   1.189   1.280  0.3212  0.3916 -0.3863
 4804TIP3    H235904   3.045   1.145   1.178 -0.9657  1.3305 -2.1183
 4805TIP3   OH235905   1.180   3.553  16.259 -0.0313 -0.2180  0.1535
 4805TIP3    H135906   1.258   3.508  16.290 -0.3212 -0.1160  1.0447
 4805TIP3    H235907   1.124   3.483  16.225  0.0896 -0.3820  0.2893
 4806TIP3   OH235908   1.986   5.467  16.497  0.2259  0.3064 -0.4220
 4806TIP3    H135909   1.936   5.387  16.483 -0.2717  0.6559 -0.6577
 4806TIP3    H235910   1.939   5.534  16.448  0.2217  0.8956  0.3703
 4807TIP3   OH235911   6.192   5.230   2.959 -0.2547  0.0800 -0.6231
 4807TIP3    H135912   6.148   5.151   2.992 -0.2883  0.5597  0.5277
 4807TIP3    H235913   6.239   5.264   3.035  0.4702  0.6916 -1.3377
 4808TIP3   OH235914   6.040   0.159  13.398 -0.3771 -0.7664 -0.3252
 4808TIP3    H135915   6.131   0.180  13.416 -0.1560 -0.2442 -2.0016
 4808TIP3    H235916   6.041   0.067  13.372 -0.2364 -0.6025 -0.9128
 4809TIP3   OH235917   3.791   6.019   5.834  0.2312  0.3746 -0.2278
 4809TIP3    H135918   3.782   6.000   5.927 -1.5149  2.8073  0.1645
 4809TIP3    H235919   3.721   5.969   5.792 -0.7311  1.4011  0.1188
 4810TIP3   OH235920   5.928   2.020  15.066  0.0556  0.4223  0.1275
 4810TIP3    H135921   5.928   1.934  15.108 -0.0656 -0.0307 -0.7863
 4810TIP3    H235922   5.988   2.073  15.119 -0.9050  0.1724  1.4875
 4811TIP3   OH235923   0.097   4.576  14.783  0.8227 -0.2137  0.2354
 4811TIP3    H135924   0.091   4.519  14.706 -0.8395 -1.8673  1.5283
 4811TIP3    H235925   0.007   4.580  14.816  0.7579  3.8093 -0.2368
 4812TIP3   OH235926   2.020   0.129  13.909 -0.5259  0.2784  0.1341
 4812TIP3    H135927   1.993   0.081  13.831  0.2696  0.8322 -0.4885
 4812TIP3    H235928   1.963   0.205  13.911  0.4235  1.0339 -0.7410
 4813TIP3   OH235929   4.139   1.831   2.855 -0.3729  0.1419 -0.6070
 4813TIP3    H135930   4.132   1.736   2.861 -0.1153  0.1641  0.0495
 4813TIP3    H235931   4.156   1.848   2.762  1.7177 -0.5856 -0.3730
 4814TIP3   OH235932   4.629   0.491  15.646  0.5987 -0.0970  0.0187
 4814TIP3    H135933   4.580   0.410  15.659  0.4943 -0.3180 -1.6101
 4814TIP3    H235934   4.721   0.465  15.655  0.4916 -0.0073  1.4291
 4815TIP3   OH235935   6.658   3.993  11.349 -0.0903 -0.3882 -0.4405
 4815TIP3    H135936   6.676   3.989  11.255  0.4801  1.4866 -0.4282
 4815TIP3    H235937   6.704   3.917  11.386  1.1992 -0.1030 -1.4459
 4816TIP3   OH235938   4.129   4.241   5.075  0.3439 -0.1322 -0.1366
 4816TIP3    H135939   4.121   4.206   4.987 -0.8160 -0.0468 -0.0631
 4816TIP3    H235940   4.151   4.164   5.129 -0.4561 -0.4408 -0.2526
 4817TIP3   OH235941   3.241   3.442  13.416  0.6084  0.7261 -0.2109
 4817TIP3    H135942   3.210   3.429  13.505  0.4234  0.7016 -0.2778
 4817TIP3    H235943   3.194   3.520  13.385 -0.2013  0.0661 -0.6813
 4818TIP3   OH235944   6.409   1.325  12.676 -0.6607 -0.5396  0.2108
 4818TIP3    H135945   6.323   1.367  12.662 -0.1834  0.3241 -0.2026
 4818TIP3    H235946   6.451   1.329  12.590 -0.5407 -1.7398  0.2099
 4819TIP3   OH235947   1.727   2.613   4.114 -0.2810  0.6666  0.0793
 4819TIP3    H135948   1.813   2.576   4.092 -1.0759 -2.1622  1.5509
 4819TIP3    H235949   1.738   2.707   4.101  2.7251  0.2507 -0.8098
 4820TIP3   OH235950   5.676   0.436   3.542 -0.2280 -0.0341  0.0912
 4820TIP3    H135951   5.727   0.436   3.461  0.7148 -1.7983  0.6492
 4820TIP3    H235952   5.611   0.367   3.528 -1.8677  1.5626 -0.2417
 4821TIP3   OH235953   4.730   0.888   0.461  0.2530  0.4455  0.2948
 4821TIP3    H135954   4.676   0.951   0.508  1.1842  0.7144  1.0237
 4821TIP3    H235955   4.733   0.812   0.518  0.3192  0.2890  0.0806
 4822TIP3   OH235956   0.174   4.832  17.278  0.6379  0.4048  0.6770
 4822TIP3    H135957   0.121   4.897  17.324 -1.3037 -0.7591  0.1643
 4822TIP3    H235958   0.153   4.844  17.186  2.9077  1.3172  0.2328
 4823TIP3   OH235959   4.793   5.466  13.362 -0.0936  0.4289  0.4236
 4823TIP3    H135960   4.877   5.438  13.397  1.5174  1.1262 -2.6930
 4823TIP3    H235961   4.786   5.559  13.386  0.3396  0.5383  0.1256
 4824TIP3   OH235962   4.310   3.546   3.331  0.4050 -0.4020 -0.2539
 4824TIP3    H135963   4.303   3.583   3.418 -0.8245  0.9532 -0.9022
 4824TIP3    H235964   4.370   3.604   3.284 -0.1367 -0.2364 -0.7535
 4825TIP3   OH235965   1.457   1.350   2.686  0.1872 -0.1010 -0.6017
 4825TIP3    H135966   1.468   1.408   2.611 -0.0547  1.0041  0.2138
 4825TIP3    H235967   1.364   1.327   2.686 -1.0148  4.1926  2.4474
 4826TIP3   OH235968   0.731   4.233   2.966  0.2652 -0.2191  0.4023
 4826TIP3    H135969   0.691   4.304   3.017  0.2896 -0.5915  0.9494
 4826TIP3    H235970   0.814   4.217   3.011  0.7287  0.1020 -0.3355
 4827TIP3   OH235971   2.789   2.578   3.377  0.3039  0.1464  0.3262
 4827TIP3    H135972   2.757   2.615   3.459  0.2371 -0.3730  0.5413
 4827TIP3    H235973   2.806   2.653   3.321 -0.8164  0.4494  0.3854
 4828TIP3   OH235974   4.341   6.011  16.736  0.2927  0.8173  0.4685
 4828TIP3    H135975   4.264   5.955  16.745  0.0453  1.1796  0.5814
 4828TIP3    H235976   4.312   6.085  16.683  0.5456  0.9805  0.5533
 4829TIP3   OH235977   1.252   4.249  15.677 -0.1582  0.1510  0.0132
 4829TIP3    H135978   1.317   4.191  15.636 -1.1215  0.2631 -1.7361
 4829TIP3    H235979   1.290   4.272  15.762  1.5671 -0.6906 -0.5086
 4830TIP3   OH235980   1.880   4.655  13.243 -0.2860 -0.1417 -0.0180
 4830TIP3    H135981   1.867   4.699  13.159 -0.5264 -0.3878 -0.1108
 4830TIP3    H235982   1.841   4.715  13.307 -0.4347 -0.1237 -0.1230
 4831TIP3   OH235983   3.145   6.388   1.445 -0.2724 -0.2029  0.8101
 4831TIP3    H135984   3.185   6.472   1.422  0.0526 -0.8333 -0.9797
 4831TIP3    H235985   3.082   6.410   1.514  0.6921  1.3183  1.2161
 4832TIP3   OH235986   2.176   2.035   0.926  0.1763 -0.5423 -0.2139
 4832TIP3    H135987   2.171   1.958   0.869  2.4057 -2.0457  1.5326
 4832TIP3    H235988   2.095   2.083   0.909  0.1339 -1.7111 -3.5334
 4833TIP3   OH235989   0.782   6.784  16.731  0.2947  0.4041 -0.1062
 4833TIP3    H135990   0.741   6.723  16.671 -0.3000  0.1332  0.5727
 4833TIP3    H235991   0.876   6.771  16.717  0.1974 -1.4916  0.8455
 4834TIP3   OH235992   3.033   1.874  14.804  0.1472  0.4507  0.3968
 4834TIP3    H135993   3.063   1.926  14.729  0.2757  3.0946  2.2213
 4834TIP3    H235994   3.003   1.938  14.868 -0.1315 -1.7551  2.5755
 4835TIP3   OH235995   1.697   1.174   3.052 -0.3382 -0.1697 -0.6136
 4835TIP3    H135996   1.755   1.249   3.041 -0.4300  0.1168  0.7789
 4835TIP3    H235997   1.644   1.195   3.129  0.6004 -2.2720  0.6348
 4836TIP3   OH235998   5.673   6.403  12.968  0.0678  0.4202 -0.0533
 4836TIP3    H135999   5.696   6.345  12.896  0.5038 -0.5985  0.9008
 4836TIP3    H236000   5.757   6.436  12.999 -0.1598  1.3570 -0.4088
 4837TIP3   OH236001   3.657   3.469   6.059 -0.5665 -0.0362  0.0526
 4837TIP3    H136002   3.640   3.560   6.086 -0.9174 -0.2310  0.4765
 4837TIP3    H236003   3.742   3.474   6.014  0.7917  0.0391  2.5373
 4838TIP3   OH236004   1.300   4.622  15.485 -0.0159 -0.0764  0.0461
 4838TIP3    H136005   1.265   4.711  15.484  0.0817 -0.0378 -0.0949
 4838TIP3    H236006   1.352   4.617  15.405 -1.1282 -0.7004 -0.6450
 4839TIP3   OH236007   2.826   0.443   2.464  0.2870 -0.0674 -0.1752
 4839TIP3    H136008   2.879   0.369   2.436  2.7159  1.1426  1.0140
 4839TIP3    H236009   2.878   0.520   2.441  0.4339  1.0883  3.5827
 4840TIP3   OH236010   4.636   1.009  14.003 -0.1378  0.3044  0.5089
 4840TIP3    H136011   4.684   0.979  13.926  1.3007 -1.0260  1.8711
 4840TIP3    H236012   4.601   1.094  13.978 -0.8863 -0.7205 -2.0807
 4841TIP3   OH236013   2.598   3.806  15.110 -0.0744 -0.4448  0.2148
 4841TIP3    H136014   2.571   3.859  15.034 -1.6025 -0.7409  0.5403
 4841TIP3    H236015   2.693   3.796  15.099  0.0037  1.0503 -0.6837
 4842TIP3   OH236016   3.881   0.572  12.376 -0.0649  0.1630  0.6867
 4842TIP3    H136017   3.957   0.568  12.435  0.6303  2.5646  0.0039
 4842TIP3    H236018   3.864   0.665  12.365 -0.0715 -0.2265 -3.0964
 4843TIP3   OH236019   1.958   6.558   1.467  0.0215  0.2256  0.3558
 4843TIP3    H136020   1.903   6.508   1.528  0.5532  0.0211  0.6713
 4843TIP3    H236021   2.047   6.527   1.484  0.1380 -0.1105 -0.7858
 4844TIP3   OH236022   4.382   5.651   5.698 -0.1799  0.4798  0.5226
 4844TIP3    H136023   4.383   5.743   5.725 -2.4845  0.3372  1.1807
 4844TIP3    H236024   4.304   5.642   5.643  0.4921 -0.9055 -0.2553
 4845TIP3   OH236025   3.376   3.485   0.090 -0.3467  0.6151 -0.5490
 4845TIP3    H136026   3.428   3.484   0.170 -0.7777  3.6262 -0.1828
 4845TIP3    H236027   3.310   3.416   0.103  0.4812  0.1078  1.0552
 4846TIP3   OH236028   2.532   0.503   3.894  0.4629  0.2814 -0.2189
 4846TIP3    H136029   2.495   0.500   3.982  0.1116 -0.4699 -0.3893
 4846TIP3    H236030   2.492   0.580   3.854 -2.5803 -1.7120 -1.1278
 4847TIP3   OH236031   4.524   3.627  12.285 -0.2044 -0.2337  0.0960
 4847TIP3    H136032   4.538   3.532  12.293  0.0331 -0.1774  0.3720
 4847TIP3    H236033   4.428   3.637  12.289 -0.1958 -0.3933  0.9314
 4848TIP3   OH236034   3.910   0.427  16.935  0.2103  0.5851 -0.1214
 4848TIP3    H136035   3.821   0.454  16.916 -0.8837 -0.2754  3.3858
 4848TIP3    H236036   3.919   0.340  16.896 -1.5118 -0.6055  2.0790
 4849TIP3   OH236037   5.428   3.683   3.964 -0.1906  0.1464 -0.2032
 4849TIP3    H136038   5.368   3.736   3.910  1.2381  1.6885 -0.3371
 4849TIP3    H236039   5.515   3.717   3.942  0.5794 -0.7299  1.4282
 4850TIP3   OH236040   2.821   5.776  15.810  0.3519  0.4277 -0.4149
 4850TIP3    H136041   2.877   5.852  15.796 -0.0017  0.2678 -3.0136
 4850TIP3    H236042   2.877   5.701  15.793  0.1241  0.1647 -0.0330
 4851TIP3   OH236043   3.819   2.363   0.024 -0.3940  0.2160  0.3470
 4851TIP3    H136044   3.824   2.274   0.061  1.4016  0.0568 -0.1971
 4851TIP3    H236045   3.875   2.415   0.081 -2.4734  1.3111  1.4318
 4852TIP3   OH236046   1.379   5.795   6.715  0.1978 -0.1057 -0.4069
 4852TIP3    H136047   1.367   5.789   6.621  1.3683  1.0661 -0.6594
 4852TIP3    H236048   1.346   5.882   6.738 -2.6537 -1.4261  0.7163
 4853TIP3   OH236049   2.090   6.382  12.796  0.2549 -0.1843  0.0687
 4853TIP3    H136050   2.183   6.397  12.777  0.4584 -1.2994  0.1497
 4853TIP3    H236051   2.076   6.290  12.775 -0.3910 -0.4945  1.7736
 4854TIP3   OH236052   0.529   0.832   1.206  0.7733 -0.2976  0.1446
 4854TIP3    H136053   0.584   0.899   1.165  1.2701 -1.1598 -0.5887
 4854TIP3    H236054   0.527   0.760   1.143  1.2283 -1.4748  1.4563
 4855TIP3   OH236055   2.565   0.332   1.048 -0.2808 -0.1156  0.1443
 4855TIP3    H136056   2.608   0.301   1.127  1.9346  2.0865 -0.1074
 4855TIP3    H236057   2.619   0.298   0.976 -0.5579  0.3561 -0.2925
 4856TIP3   OH236058   5.844   6.096   4.320 -0.8784  0.1632  0.0372
 4856TIP3    H136059   5.897   6.175   4.308  0.5409 -0.8355 -0.4947
 4856TIP3    H236060   5.768   6.125   4.370 -0.4537  1.8929 -0.2850
 4857TIP3   OH236061   0.512   1.209   3.272 -0.4166 -0.0720  0.7640
 4857TIP3    H136062   0.568   1.155   3.328 -0.2222 -1.1257 -0.4428
 4857TIP3    H236063   0.486   1.151   3.201 -0.0392  1.4776 -0.6605
 4858TIP3   OH236064   5.774   4.609  14.061  0.7896  0.2173  0.3466
 4858TIP3    H136065   5.811   4.599  13.973 -1.5242  0.5819 -0.6981
 4858TIP3    H236066   5.822   4.546  14.114  0.4089 -1.8951 -1.7300
 4859TIP3   OH236067   4.409   1.023   3.384  0.8619  0.4400  0.9081
 4859TIP3    H136068   4.500   1.021   3.355  0.3872  0.9607 -0.6690
 4859TIP3    H236069   4.370   1.095   3.335 -1.0614 -1.4674 -0.4590
 4860TIP3   OH236070   5.216   2.015   5.699  0.4810  0.1282  0.1414
 4860TIP3    H136071   5.245   1.966   5.776  1.1277  0.0857 -0.1219
 4860TIP3    H236072   5.251   2.103   5.712 -1.4696  0.7947  1.0668
 4861TIP3   OH236073   3.888   1.107   1.623  0.0165  0.2241 -0.3767
 4861TIP3    H136074   3.922   1.070   1.541 -0.5696 -0.1900 -0.4302
 4861TIP3    H236075   3.954   1.172   1.648 -0.8500  1.8670 -2.2822
 4862TIP3   OH236076   1.506   6.605  14.690  0.2436 -0.2893 -0.2795
 4862TIP3    H136077   1.468   6.687  14.659  0.3150 -0.2613 -0.2930
 4862TIP3    H236078   1.444   6.573  14.755  0.1195 -0.3240 -0.4172
 4863TIP3   OH236079   5.273   0.964   0.848 -0.5687  0.1343 -0.2418
 4863TIP3    H136080   5.290   0.898   0.780 -0.1555  0.5581 -0.5492
 4863TIP3    H236081   5.237   1.039   0.800  0.5796  0.7801 -0.1160
 4864TIP3   OH236082   2.292   4.652  15.311  0.8554  0.0367 -0.2022
 4864TIP3    H136083   2.237   4.705  15.369  1.4509 -0.1310  0.5145
 4864TIP3    H236084   2.318   4.577  15.365  1.2425 -0.2258 -0.7511
 4865TIP3   OH236085   5.431   3.594  11.741  0.5305  0.2059  0.1502
 4865TIP3    H136086   5.468   3.613  11.827  1.3175  0.7749 -0.3036
 4865TIP3    H236087   5.391   3.508  11.750  1.3252 -0.0958  0.8577
 4866TIP3   OH236088   6.577   4.165   0.501 -0.3277 -0.0653 -0.4115
 4866TIP3    H136089   6.666   4.197   0.519 -0.0222 -0.6246 -0.8921
 4866TIP3    H236090   6.524   4.201   0.572  0.1749  0.7509 -0.4425
 4867TIP3   OH236091   6.131   6.458   4.659  0.1552  0.5034 -0.1344
 4867TIP3    H136092   6.050   6.472   4.708  0.1865 -0.9740  0.3860
 4867TIP3    H236093   6.169   6.545   4.648 -0.7670  1.0422  0.8961
 4868TIP3   OH236094   2.294   3.226   6.055 -0.0549 -0.2810 -0.8897
 4868TIP3    H136095   2.341   3.169   6.116  1.1082  0.8756 -0.6744
 4868TIP3    H236096   2.217   3.175   6.028  0.3731 -1.4986  0.1498
 4869TIP3   OH236097   0.398   4.778  12.596  0.3365 -0.4110 -0.2754
 4869TIP3    H136098   0.360   4.705  12.646 -0.0815 -1.9582 -2.7906
 4869TIP3    H236099   0.456   4.736  12.532  2.7045  1.6728  0.4237
 4870TIP3   OH236100   4.789   4.083  11.773  0.5500 -0.7501  0.1097
 4870TIP3    H136101   4.700   4.051  11.788 -0.8545  2.0604 -1.7928
 4870TIP3    H236102   4.832   4.076  11.859 -1.2213 -2.8875  0.8623
 4871TIP3   OH236103   0.945   3.709   0.930  0.1896  0.9035 -0.2529
 4871TIP3    H136104   1.024   3.699   0.984 -0.7618 -0.3913  0.9543
 4871TIP3    H236105   0.977   3.719   0.841  1.7672  1.8624  0.4025
 4872TIP3   OH236106   5.832   1.398   3.824  0.3734 -0.0203  0.7349
 4872TIP3    H136107   5.852   1.483   3.783  2.9107 -1.6569 -1.6119
 4872TIP3    H236108   5.750   1.371   3.783  0.7156  0.3078 -0.1892
 4873TIP3   OH236109   5.300   1.483  15.537 -0.0825 -0.3979 -0.0342
 4873TIP3    H136110   5.362   1.425  15.581  0.3654  0.4072  0.4247
 4873TIP3    H236111   5.356   1.544  15.488 -0.5829 -1.4432 -1.9186
 4874TIP3   OH236112   1.585   4.381   5.748  0.5292 -0.2880 -0.4376
 4874TIP3    H136113   1.499   4.338   5.741  1.0109 -1.5873  1.4852
 4874TIP3    H236114   1.647   4.316   5.718  1.1662 -0.6143  1.5214
 4875TIP3   OH236115   2.026   3.631  12.187 -0.1893  0.0089 -0.4028
 4875TIP3    H136116   1.984   3.545  12.193 -0.0631  0.0221  0.7321
 4875TIP3    H236117   1.969   3.689  12.238 -0.9725  0.8804 -2.2186
 4876TIP3   OH236118   5.980   0.929  17.081  0.2224 -0.3663 -0.3499
 4876TIP3    H136119   6.032   0.959  17.155  0.2819  0.5807 -0.7797
 4876TIP3    H236120   5.900   0.981  17.084 -0.0572 -0.7738 -0.5759
 4877TIP3   OH236121   1.062   0.505   4.854  0.2451 -0.0577  1.0587
 4877TIP3    H136122   1.028   0.485   4.766 -2.1140 -1.5662  2.2433
 4877TIP3    H236123   1.053   0.599   4.863 -0.6837 -0.0462  0.1180
 4878TIP3   OH236124   5.228   2.147   5.108 -0.4365 -0.3130  0.0562
 4878TIP3    H136125   5.272   2.062   5.103  0.6929  0.3433 -1.5892
 4878TIP3    H236126   5.139   2.126   5.134 -1.0103 -2.3248 -3.1535
 4879TIP3   OH236127   2.034   3.363   1.961 -0.0407  0.4420 -0.1601
 4879TIP3    H136128   2.011   3.299   1.893  0.5093  1.5938 -1.4714
 4879TIP3    H236129   2.119   3.399   1.932 -0.1313  1.4412  0.7803
 4880TIP3   OH236130   4.807   6.628  12.474  0.6972  0.1469 -0.0581
 4880TIP3    H136131   4.724   6.668  12.449  0.0241 -0.5605  1.0013
 4880TIP3    H236132   4.784   6.542  12.507  1.8167  0.0900  0.6179
 4881TIP3   OH236133   4.403   5.830   0.002  0.1426  0.1105 -0.2924
 4881TIP3    H136134   4.488   5.871  -0.010  0.1710  0.2869  0.4438
 4881TIP3    H236135   4.401   5.759  -0.062  0.9817 -0.1056 -0.0864
 4882TIP3   OH236136   3.051   2.485   1.568  0.4875  0.0334  0.0343
 4882TIP3    H136137   2.984   2.417   1.569 -0.0432  0.5551  0.9621
 4882TIP3    H236138   3.009   2.561   1.610  1.6576  0.3577  0.6620
 4883TIP3   OH236139   1.125   1.362  13.644  0.2202  0.4772 -0.1234
 4883TIP3    H136140   1.085   1.391  13.726 -0.5476 -2.2527  0.5207
 4883TIP3    H236141   1.216   1.341  13.667  0.8243  2.4094 -0.6249
 4884TIP3   OH236142   3.725   6.319  14.377  0.1001  0.0158  0.1740
 4884TIP3    H136143   3.792   6.257  14.350  0.5075  0.7008 -0.3987
 4884TIP3    H236144   3.657   6.311  14.310 -0.5747 -0.9535  0.9602
 4885TIP3   OH236145   3.580   5.667   5.555  0.3595  0.7245 -0.2760
 4885TIP3    H136146   3.493   5.646   5.586  0.3679 -2.3539 -2.1708
 4885TIP3    H236147   3.567   5.700   5.466  1.1500 -0.1585 -0.7287
 4886TIP3   OH236148   1.623   5.486  15.355 -0.0682 -0.8012  0.5203
 4886TIP3    H136149   1.668   5.452  15.433 -3.8706 -0.2981  3.0950
 4886TIP3    H236150   1.546   5.429  15.345 -0.3612 -0.0001 -2.0387
 4887TIP3   OH236151   5.756   4.750  13.107 -0.1106  0.2715 -0.0718
 4887TIP3    H136152   5.844   4.713  13.103  0.7426  2.1942  0.2159
 4887TIP3    H236153   5.718   4.731  13.021  0.4796 -0.8025 -0.1022
 4888TIP3   OH236154   4.268   4.362   2.230 -0.5031 -0.0771 -0.0814
 4888TIP3    H136155   4.324   4.438   2.216 -0.0862  0.0792  2.1416
 4888TIP3    H236156   4.291   4.302   2.160  1.1361  0.7480 -0.2843
 4889TIP3   OH236157   5.721   1.529  12.818 -0.1306 -0.7677 -0.3570
 4889TIP3    H136158   5.704   1.465  12.888 -1.5494  0.6224  0.6125
 4889TIP3    H236159   5.766   1.601  12.862 -1.5151  0.3550 -0.7386
 4890TIP3   OH236160   5.194   3.211   4.019 -0.0421 -0.0480  0.2330
 4890TIP3    H136161   5.274   3.168   3.988 -0.0505 -0.3299  0.5930
 4890TIP3    H236162   5.220   3.255   4.100  0.4297  2.2697 -1.1314
 4891TIP3   OH236163   0.485   4.422  14.969  0.0411 -0.6104 -0.5418
 4891TIP3    H136164   0.567   4.470  14.977 -0.1969 -0.1922 -0.6035
 4891TIP3    H236165   0.480   4.370  15.049 -0.3388  0.4646  0.1498
 4892TIP3   OH236166   4.697   5.622  14.279 -0.3013 -0.1144  0.0224
 4892TIP3    H136167   4.684   5.535  14.317 -1.6994 -0.6142 -1.5097
 4892TIP3    H236168   4.678   5.610  14.186 -2.8272  2.2887  0.1435
 4893TIP3   OH236169   4.199   4.496  16.794 -0.1517 -0.8052  0.8807
 4893TIP3    H136170   4.248   4.418  16.766 -2.4467 -2.1424  0.4580
 4893TIP3    H236171   4.130   4.462  16.851 -1.7349  0.8165 -0.0193
 4894TIP3   OH236172   4.807   2.535   3.813  1.1256  0.2068 -0.0809
 4894TIP3    H136173   4.862   2.590   3.758  1.5060  0.4963  0.5888
 4894TIP3    H236174   4.788   2.588   3.890  1.3395 -0.5230  0.4842
 4895TIP3   OH236175   5.305   1.605  16.255  0.0970  0.8229  0.4108
 4895TIP3    H136176   5.335   1.516  16.241  0.9144  1.1563 -0.0238
 4895TIP3    H236177   5.347   1.632  16.337 -0.9620  0.4588  1.0726
 4896TIP3   OH236178   5.040   4.955   5.150 -0.0069  0.2624 -0.2082
 4896TIP3    H136179   4.990   4.926   5.074 -0.3852  0.1729  0.0675
 4896TIP3    H236180   5.020   4.889   5.217  1.7029 -0.6253 -0.5591
 4897TIP3   OH236181   0.633   1.536   1.818  0.0476  0.1459  0.2590
 4897TIP3    H136182   0.633   1.479   1.895  0.9489  0.7717  0.7292
 4897TIP3    H236183   0.591   1.484   1.750 -0.9170 -0.3412  1.2249
 4898TIP3   OH236184   3.601   0.155   4.654  0.4647 -0.1001 -0.0312
 4898TIP3    H136185   3.529   0.112   4.608  0.9735  0.5435 -1.4551
 4898TIP3    H236186   3.670   0.088   4.659  0.4444 -0.1450 -0.3143
 4899TIP3   OH236187   0.491   1.001   2.792  0.4066 -0.9418 -0.0515
 4899TIP3    H136188   0.465   1.078   2.742  0.9648 -0.2671  0.6878
 4899TIP3    H236189   0.537   0.945   2.729 -1.2123 -1.3051 -0.9202
 4900TIP3   OH236190   0.346   3.823   1.949 -0.0601 -0.0924 -0.3970
 4900TIP3    H136191   0.344   3.734   1.913 -0.8909 -0.9164  1.5760
 4900TIP3    H236192   0.398   3.815   2.029 -1.6027  0.7996  0.7321
 4901TIP3   OH236193   3.398   0.207  11.731 -0.0449  0.0875  0.3727
 4901TIP3    H136194   3.392   0.199  11.826  1.7015 -1.5709  0.3718
 4901TIP3    H236195   3.482   0.166  11.709 -0.5857  0.1613 -1.9238
 4902TIP3   OH236196   5.726   5.863  16.649 -0.0759 -0.3106  0.1309
 4902TIP3    H136197   5.742   5.775  16.615  0.1042 -0.0901 -0.3581
 4902TIP3    H236198   5.787   5.919  16.600  0.8645 -0.1306  1.4905
 4903TIP3   OH236199   0.873   2.389  12.589 -0.5615 -0.3602 -0.0355
 4903TIP3    H136200   0.859   2.467  12.643  0.3312  0.0172 -0.3330
 4903TIP3    H236201   0.871   2.316  12.652  2.0152  0.2108  0.7756
 4904TIP3   OH236202   6.149   3.981   5.003  0.0130  0.1410  0.3055
 4904TIP3    H136203   6.180   4.025   5.082 -1.0114  0.8123  0.3491
 4904TIP3    H236204   6.107   3.901   5.036 -2.4486  1.5363  0.6704
 4905TIP3   OH236205   3.655   0.110   0.334  0.4224 -0.2311  0.1421
 4905TIP3    H136206   3.572   0.068   0.354  0.6536 -0.5341  0.4845
 4905TIP3    H236207   3.716   0.038   0.321  0.4651 -0.0183 -0.8516
 4906TIP3   OH236208   5.562   6.398  17.009 -0.0374 -0.0295 -0.1430
 4906TIP3    H136209   5.646   6.418  16.968  0.2135  0.8567  0.7845
 4906TIP3    H236210   5.500   6.456  16.965  0.1124  0.4287  0.2417
 4907TIP3   OH236211   5.557   1.600  15.153 -0.0759  0.4068 -0.1040
 4907TIP3    H136212   5.595   1.687  15.145  0.5591 -0.0346 -2.0421
 4907TIP3    H236213   5.624   1.541  15.120 -1.4698 -0.6027 -1.1803
 4908TIP3   OH236214   5.837   0.689   2.921 -0.0522 -0.3301  0.1348
 4908TIP3    H136215   5.794   0.641   2.850 -0.6667 -0.3873  0.5435
 4908TIP3    H236216   5.828   0.631   2.997 -1.5554  0.7922  0.8333
 4909TIP3   OH236217   6.254   0.522   3.649 -0.0375 -0.0469  0.5736
 4909TIP3    H136218   6.348   0.537   3.640  0.2927 -1.7937  0.8542
 4909TIP3    H236219   6.216   0.609   3.657  1.7865  0.5801  2.8131
 4910TIP3   OH236220   5.391   6.754  14.043 -0.0051  0.0611  0.7361
 4910TIP3    H136221   5.407   6.787  13.954  1.2445  0.4360  1.0889
 4910TIP3    H236222   5.335   6.821  14.083 -0.6663 -0.1640  0.1986
 4911TIP3   OH236223   1.225   3.304   2.309  0.2884  0.1600  0.4930
 4911TIP3    H136224   1.282   3.367   2.265  1.1260 -0.4451  0.6893
 4911TIP3    H236225   1.144   3.307   2.259  0.7363  0.5266 -0.2315
 4912TIP3   OH236226   4.026   6.523   0.466 -0.0798 -0.4752 -0.5064
 4912TIP3    H136227   4.091   6.588   0.441  0.5125  0.1206  2.4400
 4912TIP3    H236228   3.950   6.542   0.411  1.1193  0.8357 -1.7339
 4913TIP3   OH236229   1.105   3.187  15.545 -0.0184  0.3431  0.8156
 4913TIP3    H136230   1.017   3.214  15.571 -0.0012  1.5323 -0.2653
 4913TIP3    H236231   1.158   3.267  15.556  0.4637  0.2278 -0.5731
 4914TIP3   OH236232   1.415   4.004   3.343  0.0571  0.4192 -0.3195
 4914TIP3    H136233   1.405   4.099   3.344 -0.0781  0.4237 -1.6512
 4914TIP3    H236234   1.347   3.973   3.284 -0.2567 -0.5592  0.5332
 4915TIP3   OH236235   4.101   0.398  14.402 -0.3561  0.3993 -0.2567
 4915TIP3    H136236   4.187   0.440  14.414 -0.2600  0.0601  0.2634
 4915TIP3    H236237   4.038   0.467  14.424 -0.2634  1.3032 -2.7220
 4916TIP3   OH236238   4.093   2.248  15.070  0.8180  0.0827  0.3427
 4916TIP3    H136239   4.071   2.169  15.119  0.7227 -0.3306 -0.3718
 4916TIP3    H236240   4.172   2.225  15.022  0.1000  0.0257 -0.8190
 4917TIP3   OH236241   5.790   3.128  15.574  0.7114  0.1167 -0.0678
 4917TIP3    H136242   5.866   3.077  15.602  1.4186  0.5683 -1.1304
 4917TIP3    H236243   5.764   3.089  15.491  0.5413  0.7409 -0.3139
 4918TIP3   OH236244   1.095   3.105  16.933  0.3124 -0.2655 -0.0062
 4918TIP3    H136245   1.155   3.041  16.972 -1.7424 -1.9984  0.4138
 4918TIP3    H236246   1.045   3.055  16.868 -2.4568  0.4660  1.4630
 4919TIP3   OH236247   3.301   1.819   1.601  0.6167  0.5776  0.3579
 4919TIP3    H136248   3.213   1.858   1.596  0.9139  1.4452  1.5391
 4919TIP3    H236249   3.351   1.865   1.534  0.0947 -0.1376 -0.5305
 4920TIP3   OH236250   0.320   2.323   2.252  0.0959  0.3735  0.3464
 4920TIP3    H136251   0.269   2.321   2.172 -0.3767  0.3172  0.6503
 4920TIP3    H236252   0.257   2.307   2.322  0.8113 -1.5352  0.5786
 4921TIP3   OH236253   0.057   1.846   3.526 -0.1457 -1.1421  0.1466
 4921TIP3    H136254   0.074   1.858   3.619  1.2748 -1.6709 -0.0354
 4921TIP3    H236255   0.028   1.756   3.518 -0.6287 -0.9860  0.1239
 4922TIP3   OH236256   4.876   6.734   6.034  0.5563 -0.1125  0.2687
 4922TIP3    H136257   4.812   6.805   6.043  2.0857  1.3716 -0.4132
 4922TIP3    H236258   4.917   6.729   6.121  0.6666  0.0563  0.2276
 4923TIP3   OH236259   6.355   4.640   3.227  0.0350 -0.1719 -0.4049
 4923TIP3    H136260   6.399   4.720   3.257 -1.3634  0.5685 -0.2325
 4923TIP3    H236261   6.412   4.569   3.253 -0.2697  0.5698  2.4422
 4924TIP3   OH236262   6.311   0.634   1.587 -0.1685 -0.2496  0.4446
 4924TIP3    H136263   6.287   0.723   1.560  2.1401  0.5166  0.8097
 4924TIP3    H236264   6.259   0.618   1.666 -0.8010  0.6760  0.2197
 4925TIP3   OH236265   1.337   2.028  15.750  0.4717  0.2962  0.1153
 4925TIP3    H136266   1.364   1.982  15.671 -0.5557  0.5577 -0.4076
 4925TIP3    H236267   1.372   2.117  15.739 -1.0661  0.8164 -0.8565
 4926TIP3   OH236268   3.616   5.702   1.157 -0.3901 -0.0597  0.3323
 4926TIP3    H136269   3.670   5.730   1.083 -0.1318 -0.6350  0.3020
 4926TIP3    H236270   3.538   5.757   1.152 -0.3428 -0.0498 -0.3269
 4927TIP3   OH236271   0.219   3.208  16.337 -0.5861  0.0205  0.5131
 4927TIP3    H136272   0.311   3.234  16.337 -0.6533  0.2993  1.9963
 4927TIP3    H236273   0.193   3.214  16.246  0.8635 -0.0339  0.0724
 4928TIP3   OH236274   2.080   0.872   4.614  0.2000 -0.5340  0.0714
 4928TIP3    H136275   2.040   0.836   4.535  0.7309  0.2274 -0.5447
 4928TIP3    H236276   2.144   0.935   4.582 -1.1409  1.4259  1.1451
 4929TIP3   OH236277   3.381   5.196   0.818 -0.1138  0.0075  0.6698
 4929TIP3    H136278   3.453   5.147   0.780 -2.3961 -2.5699 -0.5237
 4929TIP3    H236279   3.347   5.248   0.745 -0.7636 -0.3898  0.6862
 4930TIP3   OH236280   5.225   5.737  11.119  0.0733 -0.1339  0.3073
 4930TIP3    H136281   5.280   5.660  11.138 -1.6172 -0.9389  2.1370
 4930TIP3    H236282   5.205   5.774  11.205 -0.6959  1.2539 -0.4549
 4931TIP3   OH236283   4.792   6.602  17.156  0.0692  0.3501  0.1613
 4931TIP3    H136284   4.797   6.584  17.062 -1.8891 -1.1546  0.3104
 4931TIP3    H236285   4.759   6.692  17.161 -2.3224 -0.4463 -0.6148
 4932TIP3   OH236286   3.875   2.969   0.703  0.3193  0.0622 -0.4351
 4932TIP3    H136287   3.783   2.993   0.716  0.7895  0.9630  1.4586
 4932TIP3    H236288   3.917   3.049   0.674  0.5953 -0.2146 -0.7972
 4933TIP3   OH236289   3.095   6.501   4.203 -0.1674  0.0180  0.1618
 4933TIP3    H136290   3.095   6.488   4.298  0.8152 -0.0698  0.1503
 4933TIP3    H236291   3.038   6.577   4.189 -0.6150 -0.1966  0.7839
 4934TIP3   OH236292   4.159   2.832  17.108 -0.2255 -0.2622  0.6375
 4934TIP3    H136293   4.220   2.775  17.060  0.9890  0.1587  1.6685
 4934TIP3    H236294   4.192   2.921  17.092 -2.2925  0.2319 -1.2333
 4935TIP3   OH236295   4.610   3.605   1.032 -0.5309 -0.2091 -0.4918
 4935TIP3    H136296   4.550   3.539   1.067 -0.0588 -1.4114 -1.8854
 4935TIP3    H236297   4.554   3.664   0.981 -0.5932 -1.1201 -1.4925
 4936TIP3   OH236298   3.649   2.346   1.359 -0.3252  0.0199  0.2258
 4936TIP3    H136299   3.685   2.302   1.436  0.3296  0.5220  0.2158
 4936TIP3    H236300   3.641   2.277   1.294  1.6383  0.0712 -0.1184
 4937TIP3   OH236301   0.154   1.507   2.264  0.1388  0.3974  0.0299
 4937TIP3    H136302   0.104   1.429   2.289 -1.7285  1.9629  1.3093
 4937TIP3    H236303   0.223   1.473   2.206 -0.9469 -2.1196  0.1251
 4938TIP3   OH236304   4.425   2.088  16.954 -0.6920 -0.1703  0.3488
 4938TIP3    H136305   4.481   2.035  16.898  2.1795  1.2131  1.7489
 4938TIP3    H236306   4.360   2.125  16.896  0.1617 -1.4533 -1.4562
 4939TIP3   OH236307   4.103   3.445   5.229 -0.4729 -0.0025  0.2755
 4939TIP3    H136308   4.055   3.373   5.270  1.7131 -0.8374  1.4718
 4939TIP3    H236309   4.176   3.462   5.289  0.7258  1.2216 -1.4784
 4940TIP3   OH236310   1.939   5.299  10.833 -0.2210 -0.1188  0.0122
 4940TIP3    H136311   1.956   5.378  10.883 -3.2042  0.6111 -0.0313
 4940TIP3    H236312   1.923   5.329  10.744 -0.6924 -0.8299 -0.1526
 4941TIP3   OH236313   4.360   0.518  14.438  0.7578 -0.0148 -0.6495
 4941TIP3    H136314   4.380   0.575  14.363  0.3060  1.1841  0.1339
 4941TIP3    H236315   4.445   0.485  14.466  1.0348  0.3133 -1.0849
 4942TIP3   OH236316   3.129   2.943   1.659 -0.1731 -0.3122  0.2156
 4942TIP3    H136317   3.140   2.948   1.564  1.1994 -3.0767  0.1802
 4942TIP3    H236318   3.216   2.960   1.694 -0.3265 -0.9540  0.9036
 4943TIP3   OH236319   5.986   2.790   1.308  0.5217  0.3675 -0.3451
 4943TIP3    H136320   6.081   2.798   1.302  0.3725  1.2341 -1.8452
 4943TIP3    H236321   5.954   2.816   1.222 -0.9767 -1.7866 -0.4748
 4944TIP3   OH236322   4.816   1.875  15.762  0.6575  0.7854 -0.4524
 4944TIP3    H136323   4.855   1.887  15.675  1.1364 -0.2369 -0.3901
 4944TIP3    H236324   4.889   1.886  15.823  1.3415 -3.0567 -0.4299
 4945TIP3   OH236325   2.429   0.258  16.268  0.3313 -0.3498  0.1567
 4945TIP3    H136326   2.480   0.251  16.188 -1.7570  1.7236 -1.4555
 4945TIP3    H236327   2.469   0.331  16.316 -0.4976  0.6825 -0.6805
 4946TIP3   OH236328   0.585   4.180  11.797 -0.2112  0.4772  0.1538
 4946TIP3    H136329   0.591   4.184  11.702 -0.7448 -1.5336  0.0332
 4946TIP3    H236330   0.494   4.202  11.817  0.5299  3.6470  0.4066
 4947TIP3   OH236331   1.748   0.578  16.985  0.3769 -0.2658 -0.0436
 4947TIP3    H136332   1.791   0.647  17.036 -1.1243 -0.0067  0.8855
 4947TIP3    H236333   1.687   0.537  17.046 -0.8050 -0.5401 -1.3936
 4948TIP3   OH236334   0.542   1.194   5.396 -0.5492 -0.8877 -0.5601
 4948TIP3    H136335   0.574   1.160   5.313 -0.8410  3.1024 -2.3991
 4948TIP3    H236336   0.448   1.205   5.384 -0.6274 -0.4622  0.3506
 4949TIP3   OH236337   5.468   2.163  16.327  0.3210 -0.2685 -0.1825
 4949TIP3    H136338   5.476   2.240  16.271  0.7922  1.6572  2.4421
 4949TIP3    H236339   5.533   2.177  16.397 -1.9337 -1.3584  2.2211
 4950TIP3   OH236340   1.002   4.013   5.271 -0.2207  0.0234  0.0969
 4950TIP3    H136341   0.967   4.016   5.182 -1.7802  0.6360  0.7019
 4950TIP3    H236342   0.957   3.939   5.313  2.2113 -1.7303 -0.2786
 4951TIP3   OH236343   3.331   5.837   0.206  0.0727 -0.4191 -0.5095
 4951TIP3    H136344   3.282   5.792   0.274 -1.0949  0.3329 -0.8310
 4951TIP3    H236345   3.422   5.833   0.235  0.2052 -4.1768 -1.2121
 4952TIP3   OH236346   3.951   4.368   3.548  0.2811 -0.1758  0.4920
 4952TIP3    H136347   3.965   4.280   3.582  2.3987  0.1005  0.3809
 4952TIP3    H236348   4.018   4.378   3.480 -0.3212  1.3049  0.1007
 4953TIP3   OH236349   4.359   6.136   1.155  0.2121 -0.1791  0.0312
 4953TIP3    H136350   4.358   6.091   1.070  0.8743  1.2080 -0.7430
 4953TIP3    H236351   4.268   6.166   1.166  0.0770 -0.5359 -0.1001
 4954TIP3   OH236352   4.828   5.164   0.897 -0.6285 -0.3827  0.0479
 4954TIP3    H136353   4.806   5.085   0.848  0.0910 -0.2940 -0.4135
 4954TIP3    H236354   4.754   5.222   0.883 -1.1504 -0.9636  0.3685
 4955TIP3   OH236355   3.865   6.764   2.353  0.6435  0.3083  0.1638
 4955TIP3    H136356   3.948   6.742   2.395 -0.6698 -2.3459  1.4676
 4955TIP3    H236357   3.853   6.696   2.286 -1.0875 -0.0827  0.8541
 4956TIP3   OH236358   3.025   2.527   2.818 -0.5440 -0.0996  0.1158
 4956TIP3    H136359   3.016   2.470   2.895 -1.0856  0.2128  0.2921
 4956TIP3    H236360   2.935   2.537   2.786 -0.4460  0.5983  0.0474
 4957TIP3   OH236361   3.575   5.878   2.779 -0.6103  0.5926 -0.3722
 4957TIP3    H136362   3.638   5.946   2.800 -1.8351  1.4011  0.7314
 4957TIP3    H236363   3.592   5.809   2.843 -1.2205  1.0629  0.3084
 4958TIP3   OH236364   1.329   5.374  12.807  0.3460 -0.8042 -0.1861
 4958TIP3    H136365   1.423   5.361  12.792  0.2911 -1.2632 -0.1102
 4958TIP3    H236366   1.296   5.409  12.724  0.5452 -0.8348 -0.2776
 4959TIP3   OH236367   0.176   6.053  14.319 -0.2286 -0.4401 -0.2404
 4959TIP3    H136368   0.215   6.077  14.403 -0.9489  0.9759 -0.2980
 4959TIP3    H236369   0.193   5.959  14.311 -0.1843 -0.6003  1.5099
 4960TIP3   OH236370   5.072   5.913   3.832  0.4590 -0.2535  0.4569
 4960TIP3    H136371   4.981   5.942   3.825 -0.3759 -2.8581 -0.1721
 4960TIP3    H236372   5.096   5.928   3.923 -0.4820  0.7758  0.5374
 4961TIP3   OH236373   0.746   0.959  15.747  0.0165 -1.1388  0.3970
 4961TIP3    H136374   0.806   0.887  15.726  1.4767 -0.2138  1.2986
 4961TIP3    H236375   0.784   1.035  15.702 -1.0867 -0.7562  0.0936
 4962TIP3   OH236376   2.548   2.667   2.894  0.0691  0.2348 -0.4236
 4962TIP3    H136377   2.462   2.700   2.870  0.0115  0.1722 -0.3012
 4962TIP3    H236378   2.548   2.664   2.989  0.5893  1.2448 -0.3902
 4963TIP3   OH236379   5.846   2.789  13.990 -0.0478 -0.5803 -0.0970
 4963TIP3    H136380   5.890   2.769  13.908  2.3870 -0.4835  1.1489
 4963TIP3    H236381   5.821   2.881  13.982  1.8809 -0.0307  0.0003
 4964TIP3   OH236382   2.249   0.026   2.771 -0.0391  0.1342  0.5335
 4964TIP3    H136383   2.202  -0.048   2.808 -1.0370  1.0926  1.2300
 4964TIP3    H236384   2.257   0.005   2.678 -2.4416  0.2007  0.2582
 4965TIP3   OH236385   4.351   5.505  13.515  0.2265  0.3135  0.2295
 4965TIP3    H136386   4.401   5.438  13.468  0.4163  1.1016 -0.6819
 4965TIP3    H236387   4.388   5.588  13.487  1.5709  0.7735  3.1265
 4966TIP3   OH236388   5.272   4.398  13.915 -0.5875 -0.3642 -0.0558
 4966TIP3    H136389   5.289   4.428  14.004  0.9046 -1.1512 -0.0547
 4966TIP3    H236390   5.274   4.478  13.862 -4.3487  0.5126  0.9461
 4967TIP3   OH236391   3.237   3.552  15.021 -0.3842  0.1978  0.2569
 4967TIP3    H136392   3.299   3.566  15.093 -0.7311 -1.5594  0.9089
 4967TIP3    H236393   3.284   3.498  14.958 -1.2217 -1.0966  0.7292
 4968TIP3   OH236394   2.565   6.096  15.879  0.4114  0.4185  0.2101
 4968TIP3    H136395   2.562   6.085  15.784 -0.8147  0.1098  0.2814
 4968TIP3    H236396   2.640   6.042  15.906  0.9197  0.6944 -0.5905
 4969TIP3   OH236397   5.119   0.452   1.632 -0.1103 -0.0881 -0.2522
 4969TIP3    H136398   5.030   0.450   1.668  0.1910 -0.9222  0.4754
 4969TIP3    H236399   5.148   0.360   1.635  0.9753  0.2600  0.0382
 4970TIP3   OH236400   5.452   1.582   2.253 -0.3537 -0.0062  0.8462
 4970TIP3    H136401   5.407   1.636   2.187 -0.8210  0.8083  1.8136
 4970TIP3    H236402   5.414   1.610   2.336  0.1223 -1.1398  1.4491
 4971TIP3   OH236403   2.237   5.106   6.379 -0.5391 -1.5118 -0.5035
 4971TIP3    H136404   2.244   5.022   6.425  2.0192 -0.8953  0.3217
 4971TIP3    H236405   2.228   5.170   6.450 -0.8730 -0.9288 -1.0726
 4972TIP3   OH236406   2.737   2.914   5.670 -0.0577 -0.4390 -0.4012
 4972TIP3    H136407   2.828   2.892   5.650 -0.1103 -1.3319  0.2591
 4972TIP3    H236408   2.703   2.951   5.589  1.7465  2.8405  0.2332
 4973TIP3   OH236409   1.737   1.596   0.512  0.2056 -0.0615  0.3446
 4973TIP3    H136410   1.774   1.535   0.576  0.8152 -2.7155 -2.3859
 4973TIP3    H236411   1.808   1.656   0.492 -0.1138  1.0321  2.4012
 4974TIP3   OH236412   3.517   3.628   3.960 -0.2768 -0.2606  0.1197
 4974TIP3    H136413   3.584   3.612   4.027  0.2447  0.2444 -0.2780
 4974TIP3    H236414   3.458   3.693   4.001  0.9357  1.2629 -0.4960
 4975TIP3   OH236415   5.290   1.809  13.693 -0.6367  0.3614 -0.2107
 4975TIP3    H136416   5.285   1.715  13.678 -0.2090  0.1209  1.1162
 4975TIP3    H236417   5.201   1.841  13.673 -1.2472 -0.5671  0.9768
 4976TIP3   OH236418   3.769   1.740   5.972  0.4836 -0.0265 -0.5557
 4976TIP3    H136419   3.778   1.646   5.989  1.6739  0.5241  2.0106
 4976TIP3    H236420   3.825   1.756   5.896  0.6218 -1.3047 -0.7305
 4977TIP3   OH236421   3.375   5.328   5.566 -0.2455  0.5811 -0.2935
 4977TIP3    H136422   3.321   5.275   5.625 -1.1050  1.4447 -0.2760
 4977TIP3    H236423   3.463   5.322   5.601 -0.6993  0.8226  0.9101
 4978TIP3   OH236424   0.788   6.191   4.748 -0.1870  0.1355 -0.4349
 4978TIP3    H136425   0.812   6.284   4.752 -1.9853  0.5703  1.1496
 4978TIP3    H236426   0.814   6.157   4.834  2.4080 -1.3711 -1.7475
 4979TIP3   OH236427   1.010   2.572   2.413  0.1804 -0.5802  0.2501
 4979TIP3    H136428   1.029   2.650   2.361  2.8445 -1.0610  0.4798
 4979TIP3    H236429   0.995   2.604   2.501 -0.1331 -0.2139  0.0662
 4980TIP3   OH236430   2.839   4.241   0.520  0.4319  0.0189 -0.0903
 4980TIP3    H136431   2.934   4.242   0.515  0.3468  0.8625 -2.1302
 4980TIP3    H236432   2.814   4.158   0.478  0.3067 -0.8446  1.6631
 4981TIP3   OH236433   1.462   6.222  16.833  0.0896  0.4242 -0.0782
 4981TIP3    H136434   1.444   6.186  16.920  2.9936  1.0578  0.8397
 4981TIP3    H236435   1.376   6.248  16.800 -1.1414 -0.3368  2.3700
 4982TIP3   OH236436   5.666   6.017   3.518  0.4089  0.0828  0.3474
 4982TIP3    H136437   5.592   6.077   3.518 -1.1171 -1.7320  1.9028
 4982TIP3    H236438   5.742   6.074   3.507 -1.1340  2.0806 -0.3372
 4983TIP3   OH236439   0.073   6.594  12.228 -0.1858  0.0338 -0.2641
 4983TIP3    H136440   0.149   6.643  12.198 -0.3156 -0.7017 -1.8342
 4983TIP3    H236441   0.020   6.658  12.276  0.5411  0.9628 -0.6911
 4984TIP3   OH236442   0.659   0.769   0.424  0.1253 -0.1714  0.0648
 4984TIP3    H136443   0.736   0.772   0.482 -2.1097  1.5209  3.0902
 4984TIP3    H236444   0.631   0.861   0.418 -1.5160 -0.7354 -1.2114
 4985TIP3   OH236445   6.675   6.188  11.324  0.2800  0.3892 -0.4901
 4985TIP3    H136446   6.762   6.184  11.284  0.3247 -1.2551 -0.2571
 4985TIP3    H236447   6.633   6.263  11.282  1.0548 -0.0704 -2.1264
 4986TIP3   OH236448   0.364   5.330  12.740 -0.3018 -0.6112 -0.0605
 4986TIP3    H136449   0.271   5.343  12.723 -0.6191 -0.9530  1.3399
 4986TIP3    H236450   0.408   5.399  12.690 -1.0057 -2.8337 -3.9076
 4987TIP3   OH236451   0.539   4.197   4.515  0.7615  0.2632 -0.1031
 4987TIP3    H136452   0.461   4.158   4.475  0.4517  0.7720 -0.0072
 4987TIP3    H236453   0.578   4.250   4.445  1.1979 -0.2385 -0.2427
 4988TIP3   OH236454   0.643   6.553   2.780 -0.1609  0.1663 -0.0023
 4988TIP3    H136455   0.648   6.620   2.712 -3.6138 -0.7799 -1.2968
 4988TIP3    H236456   0.648   6.470   2.733  1.3013 -0.5099  1.3064
 4989TIP3   OH236457   0.541   2.545  16.613 -0.5277 -0.6459 -0.1785
 4989TIP3    H136458   0.591   2.473  16.650  0.2169 -0.2972 -0.4947
 4989TIP3    H236459   0.475   2.503  16.557 -1.7908 -1.1816  1.6687
 4990TIP3   OH236460   3.342   3.123  12.497  0.0539 -0.2256 -0.4669
 4990TIP3    H136461   3.321   3.035  12.466 -0.4443 -0.7804  1.4379
 4990TIP3    H236462   3.330   3.179  12.419  0.8101 -1.8773 -1.7974
 4991TIP3   OH236463   3.294   3.604  11.479  0.3358  0.3770 -0.2159
 4991TIP3    H136464   3.359   3.656  11.431 -0.1580  0.3248 -0.9491
 4991TIP3    H236465   3.215   3.658  11.477  0.2249  0.2337  0.2723
 4992TIP3   OH236466   6.791   2.023  16.916 -0.5012 -0.4611  0.2994
 4992TIP3    H136467   6.708   2.069  16.908 -0.1409  0.2876  0.7897
 4992TIP3    H236468   6.782   1.947  16.859 -1.0498  0.3012 -0.6511
 4993TIP3   OH236469   0.754   4.604  17.079 -0.1577  0.0098 -0.8045
 4993TIP3    H136470   0.827   4.657  17.112 -0.0422 -0.5030 -0.2416
 4993TIP3    H236471   0.695   4.668  17.040  0.1071  0.5348 -0.3518
 4994TIP3   OH236472   4.125   5.744   4.487 -0.2224 -0.0194 -0.7016
 4994TIP3    H136473   4.213   5.713   4.504 -1.9081 -5.0701 -0.4798
 4994TIP3    H236474   4.105   5.715   4.398 -1.1899  2.3361 -1.2994
 4995TIP3   OH236475   0.135   4.467   0.221  0.0333  0.1951  0.3701
 4995TIP3    H136476   0.047   4.496   0.245 -0.7906 -2.5008  0.8049
 4995TIP3    H236477   0.147   4.498   0.131 -1.3724  0.5452  0.2843
 4996TIP3   OH236478   6.763   0.022   5.055  0.1131 -0.7180  0.7230
 4996TIP3    H136479   6.820  -0.010   4.985  0.0883  0.1236  0.3131
 4996TIP3    H236480   6.820   0.076   5.109 -0.6572  1.4747 -0.6166
 4997TIP3   OH236481   6.336   5.639  12.761  0.0569 -0.0828 -0.4010
 4997TIP3    H136482   6.403   5.594  12.709  1.9716  2.3501 -0.1780
 4997TIP3    H236483   6.378   5.654  12.845 -1.9600 -1.3302  0.8593
 4998TIP3   OH236484   1.980   6.669   5.143 -0.5229  0.5262 -0.4550
 4998TIP3    H136485   2.011   6.671   5.233 -0.5327 -0.7867 -0.4221
 4998TIP3    H236486   1.886   6.656   5.150 -0.6047  0.9832 -0.6520
 4999TIP3   OH236487   0.502   2.604   2.781 -0.2777  0.0088  0.6928
 4999TIP3    H136488   0.451   2.569   2.708  1.1715  1.2355 -0.9602
 4999TIP3    H236489   0.489   2.541   2.852 -4.7777  0.7037  0.6489
 5000TIP3   OH236490   3.101   6.777  15.621 -0.2932 -0.0100  0.6362
 5000TIP3    H136491   3.172   6.713  15.621 -0.6046 -0.3613  0.6075
 5000TIP3    H236492   3.034   6.737  15.564 -0.4829  0.3461  0.6102
 5001TIP3   OH236493   4.428   5.435   0.011 -0.6142  0.0764 -0.0346
 5001TIP3    H136494   4.502   5.408  -0.044 -0.7542 -1.8395  0.6527
 5001TIP3    H236495   4.462   5.508   0.062 -0.1611  1.1874 -1.9022
 5002TIP3   OH236496   5.500   0.850  12.869  0.4546 -0.7046  0.0235
 5002TIP3    H136497   5.472   0.805  12.949 -1.0874  0.6559  0.2663
 5002TIP3    H236498   5.435   0.826  12.804 -0.9567  1.9047  0.4011
 5003TIP3   OH236499   2.612   5.838  13.900  0.3094 -0.0490 -0.3774
 5003TIP3    H136500   2.690   5.883  13.931 -0.2997  0.2020  0.8241
 5003TIP3    H236501   2.629   5.820  13.807  1.5666  0.4589 -0.2461
 5004TIP3   OH236502   3.073   5.328   4.498 -0.8403 -0.3891  0.3432
 5004TIP3    H136503   3.013   5.380   4.444 -1.0004 -0.2672  0.6429
 5004TIP3    H236504   3.045   5.343   4.588 -0.1214 -0.0183  0.5147
 5005TIP3   OH236505   0.888   0.464   3.999 -0.3862  0.0268  0.2285
 5005TIP3    H136506   0.916   0.497   4.084  2.5001 -0.5236 -0.4432
 5005TIP3    H236507   0.949   0.505   3.936 -1.9586 -0.1878 -1.4865
 5006TIP3   OH236508   4.831   5.550  12.598  0.3961 -0.0017 -0.1666
 5006TIP3    H136509   4.925   5.541  12.585  0.6920 -1.9230  2.9748
 5006TIP3    H236510   4.819   5.641  12.625  1.5040 -0.0807  0.5952
 5007TIP3   OH236511   0.596   3.102  13.335  0.5631 -0.2467  0.2760
 5007TIP3    H136512   0.692   3.111  13.336  0.4002  1.8814 -0.5044
 5007TIP3    H236513   0.565   3.182  13.378 -0.8886 -0.5972 -0.1074
 5008TIP3   OH236514   5.685   4.452  13.389 -0.1228  0.3633 -0.3501
 5008TIP3    H136515   5.772   4.492  13.385  0.3197 -0.7383 -2.0389
 5008TIP3    H236516   5.638   4.489  13.314  0.0006 -1.6274 -1.4133
 5009TIP3   OH236517   5.987   0.814  13.510 -0.4769  0.0666  0.3256
 5009TIP3    H136518   5.916   0.792  13.571 -0.0303  0.6019  1.0419
 5009TIP3    H236519   6.067   0.795  13.559 -0.1084 -1.6658 -0.8893
 5010TIP3   OH236520   5.684   5.988   1.493  0.0982  0.1814 -0.6274
 5010TIP3    H136521   5.682   6.065   1.549  0.5243  0.0209 -0.3909
 5010TIP3    H236522   5.776   5.962   1.491  0.1766  0.5110 -1.8450
 5011TIP3   OH236523   2.909   0.400   1.956 -0.0168 -0.3901  0.2934
 5011TIP3    H136524   2.940   0.480   2.000 -0.7572 -1.0786  2.0873
 5011TIP3    H236525   2.824   0.382   1.995 -0.8703 -0.8268 -1.7083
 5012TIP3   OH236526   2.818   3.106   6.643  0.6281  0.3653  0.3203
 5012TIP3    H136527   2.791   3.143   6.559  0.0355  0.7919  0.6933
 5012TIP3    H236528   2.769   3.156   6.708  1.2388  0.1764  0.9319
 5013TIP3   OH236529   3.070   0.716   3.965 -0.3305  0.1101 -0.1725
 5013TIP3    H136530   3.038   0.781   4.028 -0.9699 -2.3989  2.1893
 5013TIP3    H236531   3.005   0.646   3.969  1.0464 -1.2727 -1.6640
 5014TIP3   OH236532   1.409   0.327   0.066 -0.3961  0.2739  0.0694
 5014TIP3    H136533   1.345   0.316  -0.004  0.5528 -0.9503 -0.6331
 5014TIP3    H236534   1.405   0.245   0.116 -0.2565  0.6870  0.7710
 5015TIP3   OH236535   3.783   6.282  10.607  0.0951  0.2427 -0.5751
 5015TIP3    H136536   3.713   6.345  10.592  0.1577  0.6759  0.9110
 5015TIP3    H236537   3.739   6.206  10.646  0.5023  0.7348  0.8945
 5016TIP3   OH236538   3.539   5.699   3.384 -0.3865 -0.2330 -0.3181
 5016TIP3    H136539   3.605   5.755   3.425 -2.1601 -0.0553  2.4489
 5016TIP3    H236540   3.571   5.610   3.397  1.0533 -0.0273 -2.2311
 5017TIP3   OH236541   6.555   2.598  11.526  0.4626 -0.2144 -0.1819
 5017TIP3    H136542   6.548   2.510  11.491 -0.4324 -0.0465 -0.4267
 5017TIP3    H236543   6.650   2.613  11.535  0.6335 -0.9058 -0.8557
 5018TIP3   OH236544   2.579   3.144  14.440  0.5868 -0.1607 -0.3885
 5018TIP3    H136545   2.609   3.058  14.468  1.0833 -0.5055 -1.9958
 5018TIP3    H236546   2.502   3.161  14.496  0.0515 -1.9414 -0.5593
 5019TIP3   OH236547   2.447   0.874   5.384  0.1503  0.0841 -0.4765
 5019TIP3    H136548   2.374   0.853   5.326  0.5675 -0.4374 -0.8199
 5019TIP3    H236549   2.407   0.912   5.462 -0.3224  2.7237 -1.9501
 5020TIP3   OH236550   3.001   1.568  14.760 -0.3037 -0.1023 -0.0021
 5020TIP3    H136551   3.022   1.656  14.792  0.5779 -1.2231  2.6222
 5020TIP3    H236552   2.996   1.578  14.665  0.9799  2.5249  0.1511
 5021TIP3   OH236553   2.504   5.892   3.428  0.1967  0.2583 -0.3384
 5021TIP3    H136554   2.498   5.986   3.415 -0.7000  0.4123  1.0293
 5021TIP3    H236555   2.588   5.879   3.473  0.6456  0.3172 -1.1441
 5022TIP3   OH236556   5.914   3.904   2.888 -0.4349 -0.0194  0.6686
 5022TIP3    H136557   5.911   3.811   2.910  0.2540 -0.1839  0.0842
 5022TIP3    H236558   5.954   3.907   2.801 -1.4396  0.7465  0.2216
 5023TIP3   OH236559   0.728   3.081  16.303  0.1385 -0.0487 -0.8418
 5023TIP3    H136560   0.666   3.142  16.263  0.2211 -0.8006 -2.1471
 5023TIP3    H236561   0.786   3.136  16.354  1.1910  1.1619 -3.2736
 5024TIP3   OH236562   0.401   0.774   3.694 -0.1492  0.2829 -0.1525
 5024TIP3    H136563   0.428   0.855   3.738 -1.6839  1.8555 -2.0153
 5024TIP3    H236564   0.478   0.717   3.701  0.6188  1.5065  2.0528
 5025TIP3   OH236565   5.840   5.235  15.648  0.2986  0.2550  0.0657
 5025TIP3    H136566   5.791   5.168  15.601 -0.4718  0.3717  0.6949
 5025TIP3    H236567   5.883   5.188  15.720 -0.4042  0.4486  0.6281
 5026TIP3   OH236568   1.470   0.079  14.636 -0.1613 -0.2009  0.7176
 5026TIP3    H136569   1.423   0.030  14.568  0.7766 -0.0149 -0.0797
 5026TIP3    H236570   1.411   0.079  14.711 -1.5191  0.2387 -0.3438
 5027TIP3   OH236571   6.257   3.534   1.062  0.5975  0.2830  0.5484
 5027TIP3    H136572   6.226   3.606   1.007  0.0493 -0.9927 -0.8533
 5027TIP3    H236573   6.180   3.509   1.114  0.3992 -0.1862  0.0360
 5028TIP3   OH236574   4.544   0.517   2.371 -0.1713 -0.3070  0.6829
 5028TIP3    H136575   4.534   0.469   2.453 -0.8804 -0.3597  0.5723
 5028TIP3    H236576   4.616   0.578   2.387 -0.4372 -0.1806  1.4164
 5029TIP3   OH236577   5.879   4.018   0.320  0.3708  0.5535  0.3834
 5029TIP3    H136578   5.854   4.102   0.359  0.7695  0.2924  1.2249
 5029TIP3    H236579   5.911   3.966   0.394 -2.3010 -1.2965  0.3067
 5030TIP3   OH236580   6.129   5.974  14.705  0.3330  0.2550  0.5724
 5030TIP3    H136581   6.214   6.001  14.670  0.5508 -0.4243  0.5760
 5030TIP3    H236582   6.092   6.054  14.743  1.0457  0.5116  0.7261
 5031TIP3   OH236583   5.420   0.217  10.558  0.0073 -0.3135 -0.5017
 5031TIP3    H136584   5.515   0.207  10.550 -0.1678 -1.4851 -1.3771
 5031TIP3    H236585   5.402   0.305  10.525  0.9091  0.3555  0.7734
 5032TIP3   OH236586   5.062   3.947  12.784 -0.0483  0.2561  0.0021
 5032TIP3    H136587   5.054   3.852  12.780  1.8853  0.0971 -0.9494
 5032TIP3    H236588   5.002   3.974  12.852  1.7904 -1.9642  2.6139
 5033TIP3   OH236589   0.999   3.437   0.766  0.7070  0.0032 -0.2423
 5033TIP3    H136590   0.935   3.509   0.764 -0.7116 -1.2189 -0.1162
 5033TIP3    H236591   1.077   3.473   0.724  0.1379  1.7226  0.1224
 5034TIP3   OH236592   2.974   5.156   5.521 -0.2045 -0.1920  0.8125
 5034TIP3    H136593   2.908   5.223   5.503 -1.4888 -1.7430 -0.4300
 5034TIP3    H236594   3.054   5.205   5.536 -0.1453  1.5605 -4.1003
 5035TIP3   OH236595   3.394   6.368   1.676  0.1100 -0.8545 -0.4118
 5035TIP3    H136596   3.382   6.462   1.665  0.9420 -0.4005  2.0629
 5035TIP3    H236597   3.453   6.343   1.605  0.5793  0.6695 -0.5922
 5036TIP3   OH236598   3.040   4.142  10.504 -0.2098  0.3438 -0.5284
 5036TIP3    H136599   3.126   4.152  10.463  0.0472 -1.4489 -0.4594
 5036TIP3    H236600   3.056   4.083  10.578 -1.2659  1.0426  0.2769
 5037TIP3   OH236601   2.796   3.287  12.177 -0.4746  0.6436  0.1384
 5037TIP3    H136602   2.769   3.208  12.130 -0.6617  1.0198 -0.3920
 5037TIP3    H236603   2.764   3.274  12.266 -2.0564  0.8852 -0.3760
 5038TIP3   OH236604   5.197   0.450  15.749  0.3317  0.0743 -0.0801
 5038TIP3    H136605   5.163   0.460  15.837  1.5354 -1.0531  0.5351
 5038TIP3    H236606   5.290   0.432  15.761  0.4275 -0.5105 -1.5603
 5039TIP3   OH236607   1.766   5.435   1.681  0.4751 -0.1091  0.4190
 5039TIP3    H136608   1.825   5.367   1.714 -0.6029 -1.0120  0.5396
 5039TIP3    H236609   1.679   5.394   1.684  0.2391  0.0524 -2.8153
 5040TIP3   OH236610   1.709   1.923  15.073 -0.1729  0.2647 -0.1674
 5040TIP3    H136611   1.740   1.990  15.134  0.5352 -0.1470 -0.0601
 5040TIP3    H236612   1.771   1.850  15.085 -1.1244 -0.5326 -0.0378
 5041TIP3   OH236613   3.346   6.781   4.174  0.2844 -0.5670 -0.0922
 5041TIP3    H136614   3.406   6.707   4.179  1.5983  0.4899  0.0593
 5041TIP3    H236615   3.329   6.792   4.080  2.3549  0.7125 -0.3402
 5042TIP3   OH236616   5.075   6.079  13.958 -0.1552 -0.1318 -0.1429
 5042TIP3    H136617   5.114   6.104  13.874  1.2194 -1.7103 -0.0033
 5042TIP3    H236618   4.983   6.105  13.952  0.2630  1.0076 -1.6056
 5043TIP3   OH236619   2.213   1.103  16.815 -0.8488  0.4277  0.1780
 5043TIP3    H136620   2.143   1.062  16.867 -0.7191 -0.9736 -0.7106
 5043TIP3    H236621   2.291   1.051  16.835 -1.0626 -0.9880 -2.3509
 5044TIP3   OH236622   5.382   2.323  13.380  0.2897  0.1944 -0.1734
 5044TIP3    H136623   5.311   2.338  13.318 -0.4343 -1.1846  0.3011
 5044TIP3    H236624   5.435   2.254  13.340 -0.3601 -0.9256  0.8669
 5045TIP3   OH236625   6.481   3.887   0.468  0.0152 -0.2453 -0.3409
 5045TIP3    H136626   6.489   3.982   0.473  1.1228 -0.2749 -1.3117
 5045TIP3    H236627   6.570   3.855   0.477 -0.1870 -1.1252 -1.3417
 5046TIP3   OH236628   1.945   0.863  14.029 -0.3990  0.0322 -0.3352
 5046TIP3    H136629   1.891   0.785  14.028 -0.3111 -0.0160 -3.0783
 5046TIP3    H236630   1.888   0.931  14.064 -1.3405 -0.6283 -0.5804
 5047TIP3   OH236631   3.285   6.377   0.182 -0.4198  0.1020  0.3163
 5047TIP3    H136632   3.343   6.338   0.248 -1.0077 -1.3703 -0.0208
 5047TIP3    H236633   3.312   6.335   0.100 -0.0121  1.5711 -0.3162
 5048TIP3   OH236634   4.705   1.556   6.548  0.1414 -0.0516  0.2369
 5048TIP3    H136635   4.672   1.580   6.634  0.3539 -0.1493  0.3454
 5048TIP3    H236636   4.636   1.584   6.487 -0.1395 -0.2551  0.4608
 5049TIP3   OH236637   0.993   5.218  16.994 -0.1493  0.3851  0.5034
 5049TIP3    H136638   0.903   5.238  17.018 -0.5256  2.0354 -2.1522
 5049TIP3    H236639   0.986   5.166  16.914  1.2268 -0.8660  1.1603
 5050TIP3   OH236640   4.741   2.891   4.750 -0.7780  0.4428 -0.1088
 5050TIP3    H136641   4.647   2.877   4.766 -0.6431 -0.5517 -0.1348
 5050TIP3    H236642   4.784   2.837   4.816 -0.2123  2.0674  0.8878
 5051TIP3   OH236643   1.858   4.212  16.702 -0.0030  0.6186  0.5782
 5051TIP3    H136644   1.886   4.121  16.709  2.6488  1.3014 -0.5089
 5051TIP3    H236645   1.763   4.208  16.706 -0.0142 -2.3425 -0.9583
 5052TIP3   OH236646   3.161   1.788  14.353 -0.4466 -0.4346 -0.5176
 5052TIP3    H136647   3.192   1.824  14.270  0.0374  0.9150  0.2298
 5052TIP3    H236648   3.127   1.864  14.401 -1.0680 -1.2592  0.3692
 5053TIP3   OH236649   4.074   0.018   1.657 -0.6404  0.1330  0.5887
 5053TIP3    H136650   4.061  -0.008   1.565  1.9914  1.3851 -0.1756
 5053TIP3    H236651   4.134  -0.048   1.692 -0.5043  0.4698  0.9921
 5054TIP3   OH236652   2.572   2.233   4.501  0.4844 -0.5658  0.5986
 5054TIP3    H136653   2.573   2.162   4.565  0.4153 -1.5618 -0.4814
 5054TIP3    H236654   2.545   2.310   4.551  0.9166 -1.2201  1.8652
 5055TIP3   OH236655   5.831   0.356  15.841  0.1039 -0.2806  0.1186
 5055TIP3    H136656   5.833   0.404  15.924  1.7933 -0.9927  0.5024
 5055TIP3    H236657   5.746   0.379  15.802  0.2259  1.7724  1.0137
 5056TIP3   OH236658   4.063   0.728  12.173  0.0380  0.2508  0.3553
 5056TIP3    H136659   4.028   0.669  12.239 -0.4000 -0.9066 -0.8986
 5056TIP3    H236660   4.132   0.678  12.129  0.1137  0.8979 -0.2808
 5057TIP3   OH236661   1.060   2.017  16.546 -0.3498  0.0862  0.0476
 5057TIP3    H136662   1.055   1.923  16.529 -0.7613 -0.2886  2.1421
 5057TIP3    H236663   0.988   2.054  16.494 -0.7555 -0.8599 -0.0750
 5058TIP3   OH236664   0.065   0.811   2.431  0.5175  0.3968 -0.2874
 5058TIP3    H136665   0.114   0.836   2.353  0.3935 -0.7594 -0.7442
 5058TIP3    H236666   0.126   0.823   2.503  0.3480  2.3286 -0.4522
 5059TIP3   OH236667   3.850   2.146  10.975 -0.3025 -0.1190 -0.8637
 5059TIP3    H136668   3.849   2.187  10.888  2.8153  2.9895  0.4267
 5059TIP3    H236669   3.802   2.207  11.031 -1.4743 -1.6337 -0.1871
 5060TIP3   OH236670   4.708   5.726   1.699  0.0518 -0.7072 -0.6925
 5060TIP3    H136671   4.738   5.667   1.630  3.0608 -3.3655  2.6430
 5060TIP3    H236672   4.780   5.788   1.711 -0.8986  0.4057 -0.6642
 5061TIP3   OH236673   1.762   5.373   5.779  0.0772 -0.6927  0.7089
 5061TIP3    H136674   1.732   5.332   5.860  0.3028  0.3623  1.3297
 5061TIP3    H236675   1.709   5.332   5.711 -1.3649 -0.3161  1.5750
 5062TIP3   OH236676   1.889   3.857   3.176  0.2130  0.0997  0.1205
 5062TIP3    H136677   1.979   3.833   3.202  1.0859  3.0748  0.0093
 5062TIP3    H236678   1.841   3.862   3.259  0.5972  0.2834  0.3327
 5063TIP3   OH236679   1.717   5.846   4.051 -0.0413  0.3781 -0.0456
 5063TIP3    H136680   1.664   5.815   3.977 -1.1505  0.4852  0.6851
 5063TIP3    H236681   1.800   5.800   4.042 -0.1340  0.4453 -1.4008
 5064TIP3   OH236682   0.752   2.360  16.687  0.5950 -1.0213 -0.0831
 5064TIP3    H136683   0.790   2.272  16.692 -0.5087 -1.5694 -0.9230
 5064TIP3    H236684   0.810   2.408  16.628 -0.2117 -1.9682 -1.6903
 5065TIP3   OH236685   5.461   0.169  16.001 -0.4204 -0.2968  0.0087
 5065TIP3    H136686   5.544   0.160  16.048  0.1930  4.3038  0.0389
 5065TIP3    H236687   5.487   0.186  15.910 -1.2989  0.7434 -0.0602
 5066TIP3   OH236688   5.230   4.507  11.687  0.0362 -0.2970  0.3361
 5066TIP3    H136689   5.183   4.428  11.714 -0.8748  0.0335 -0.2503
 5066TIP3    H236690   5.178   4.579  11.724 -0.0283  0.0775 -0.4894
 5067TIP3   OH236691   3.654   0.002   6.099  0.2553  0.4267  0.4301
 5067TIP3    H136692   3.619  -0.073   6.146 -1.1403 -0.8464 -2.4881
 5067TIP3    H236693   3.583   0.066   6.099 -0.4757 -0.3348 -1.4998
 5068TIP3   OH236694   2.641   4.295   3.913  0.4590 -0.0068 -0.3069
 5068TIP3    H136695   2.629   4.360   3.982  0.4440 -0.6566  0.3067
 5068TIP3    H236696   2.736   4.285   3.905  0.4538 -1.8238  1.4321
 5069TIP3   OH236697   6.062   2.342   5.025 -0.1641 -0.0822  0.2934
 5069TIP3    H136698   6.142   2.363   5.074  0.5099  1.4655 -1.3990
 5069TIP3    H236699   5.996   2.328   5.093  0.5930  2.6138  1.6635
 5070TIP3   OH236700   0.042   0.993  12.821  0.6565  0.0428 -0.3584
 5070TIP3    H136701  -0.044   1.024  12.795  0.7492  0.7902  0.2190
 5070TIP3    H236702   0.028   0.948  12.904  1.1176  1.8429  0.7167
 5071TIP3   OH236703   4.666   4.063   4.326  0.4366 -0.0666  0.3524
 5071TIP3    H136704   4.757   4.074   4.298  0.5508  1.2768  1.1758
 5071TIP3    H236705   4.653   3.969   4.331  1.9823 -0.2674  0.8155
 5072TIP3   OH236706   1.347   6.795   2.411 -0.9629  0.0085 -0.0069
 5072TIP3    H136707   1.368   6.872   2.465 -2.0979  0.2132  0.1586
 5072TIP3    H236708   1.286   6.828   2.345 -1.4527 -0.7421  0.0594
 5073TIP3   OH236709   6.582   0.141   6.212 -0.4700 -0.6559 -0.0117
 5073TIP3    H136710   6.639   0.194   6.269 -0.1939 -1.6050  0.6042
 5073TIP3    H236711   6.514   0.107   6.271 -0.7044 -0.9039 -0.4239
 5074TIP3   OH236712   2.391   4.672   5.175  0.2647  0.4986  0.2494
 5074TIP3    H136713   2.343   4.632   5.248  0.9181 -2.1729 -0.7143
 5074TIP3    H236714   2.330   4.736   5.138 -0.6231  0.8089  2.2025
 5075TIP3   OH236715   2.088   0.623  15.914 -0.8004  0.0500 -0.1807
 5075TIP3    H136716   2.090   0.605  16.008 -0.8076 -1.1350 -0.4086
 5075TIP3    H236717   2.110   0.540  15.872  0.4384  0.8676 -1.2043
 5076TIP3   OH236718   5.954   1.597  15.931 -0.6336 -0.6170 -0.0704
 5076TIP3    H136719   5.914   1.676  15.967  0.9614  1.1744 -2.1304
 5076TIP3    H236720   5.907   1.581  15.849 -0.8502 -1.7514  0.2554
 5077TIP3   OH236721   2.354   5.657   0.822  0.6005 -0.5645  0.3094
 5077TIP3    H136722   2.324   5.665   0.913 -0.8186 -0.7985 -0.1180
 5077TIP3    H236723   2.438   5.703   0.820  0.6966 -0.6419  1.7599
 5078TIP3   OH236724   5.140   2.243   1.361 -0.2227 -0.8915 -0.4519
 5078TIP3    H136725   5.107   2.281   1.442  0.1177  1.6294 -1.4704
 5078TIP3    H236726   5.180   2.160   1.389 -1.5411 -0.8357  1.7041
 5079TIP3   OH236727   6.582   4.774   5.678 -0.5537  0.1752 -0.1119
 5079TIP3    H136728   6.623   4.690   5.696 -1.5063  0.2080  2.3912
 5079TIP3    H236729   6.642   4.839   5.715 -1.2054  0.4042  0.5724
 5080TIP3   OH236730   6.229   3.762  11.580 -0.1875 -0.0084  0.5006
 5080TIP3    H136731   6.281   3.768  11.500  0.5466 -2.8008  0.7346
 5080TIP3    H236732   6.151   3.714  11.554 -0.3390 -0.1803  1.2835
 5081TIP3   OH236733   0.502   6.452  10.829  0.1404 -0.6023  0.1985
 5081TIP3    H136734   0.547   6.381  10.783  0.6948  0.6443 -1.2223
 5081TIP3    H236735   0.545   6.531  10.799 -0.6036  0.3723  1.6258
 5082TIP3   OH236736   4.425   3.231  15.511 -0.4373  0.3687 -0.1687
 5082TIP3    H136737   4.388   3.145  15.529  0.9474  0.4517  3.4411
 5082TIP3    H236738   4.358   3.294  15.540 -0.5305  0.5257 -0.7105
 5083TIP3   OH236739   5.528   1.077  13.030 -0.1030  1.0371 -0.2536
 5083TIP3    H136740   5.449   1.061  13.082 -0.5409 -1.5815 -1.6696
 5083TIP3    H236741   5.528   1.007  12.964  3.3847  0.9953 -0.2764
 5084TIP3   OH236742   3.337   3.530   1.557 -0.0012 -0.1511 -0.5093
 5084TIP3    H136743   3.350   3.623   1.541 -0.7383  0.4991  2.3511
 5084TIP3    H236744   3.422   3.490   1.540 -0.1288  0.7326 -3.5097
 5085TIP3   OH236745   5.326   3.459   3.708  0.3778  0.5749  0.5835
 5085TIP3    H136746   5.400   3.460   3.768 -0.1033 -1.0638  1.2284
 5085TIP3    H236747   5.345   3.387   3.647  0.2936  1.4594 -0.5164
 5086TIP3   OH236748   0.765   6.279   5.422  0.3071  0.6080  0.4698
 5086TIP3    H136749   0.807   6.352   5.468 -1.3750  0.4047  2.4075
 5086TIP3    H236750   0.675   6.309   5.408  0.0190 -0.4965 -0.0563
 5087TIP3   OH236751   6.056   5.028  14.913 -0.0002 -0.4101  0.6918
 5087TIP3    H136752   5.977   5.070  14.946 -0.7690 -1.5577  0.3526
 5087TIP3    H236753   6.082   4.967  14.982  0.2416 -0.4779  0.5406
 5088TIP3   OH236754   5.286   2.224  16.787 -0.1730 -0.1423  0.2044
 5088TIP3    H136755   5.217   2.239  16.722 -0.9122 -2.3835  0.4135
 5088TIP3    H236756   5.254   2.266  16.867 -1.1850 -0.9311  0.2274
 5089TIP3   OH236757   2.996   5.679   1.603  0.8339  0.6438 -0.6118
 5089TIP3    H136758   3.051   5.629   1.663 -1.1319 -0.6114  0.2057
 5089TIP3    H236759   2.987   5.623   1.526 -2.1755 -0.7858  0.6993
 5090TIP3   OH236760   0.963   1.146  14.261 -0.4939  0.1773  0.2560
 5090TIP3    H136761   0.966   1.241  14.250  0.0378  0.0549 -0.7818
 5090TIP3    H236762   1.041   1.115  14.214 -0.7302 -0.7727  0.4953
 5091TIP3   OH236763   1.930   3.078  12.201  0.7291 -0.1804  0.2165
 5091TIP3    H136764   1.843   3.053  12.171 -0.1363  0.1784  2.3525
 5091TIP3    H236765   1.983   3.081  12.121 -1.1238 -0.7148 -1.0610
 5092TIP3   OH236766   0.814   1.701  12.535 -0.1867  0.4314  0.0998
 5092TIP3    H136767   0.905   1.677  12.555 -0.4089  1.2097  2.2487
 5092TIP3    H236768   0.821   1.786  12.492  0.1551  0.0569 -0.5910
 5093TIP3   OH236769   6.541   6.026   9.988 -0.2067 -0.6403  0.1687
 5093TIP3    H136770   6.457   6.063   9.961  1.1368  1.0665 -1.7780
 5093TIP3    H236771   6.555   6.060  10.076 -1.3518 -0.5808  0.3326
 5094TIP3   OH236772   1.507   2.880  11.323  0.4048 -0.3163 -0.1436
 5094TIP3    H136773   1.423   2.836  11.334 -0.4286  1.1359 -0.5395
 5094TIP3    H236774   1.517   2.890  11.229 -0.2372  1.8472 -0.0064
 5095TIP3   OH236775   0.804   1.687   1.971  0.3895  0.9489  0.1318
 5095TIP3    H136776   0.718   1.681   1.930  0.4526 -1.4732  0.3350
 5095TIP3    H236777   0.815   1.606   2.019  2.1913  1.8560  1.3368
 5096TIP3   OH236778   5.129   2.893   1.232 -0.3043  0.2099  0.2135
 5096TIP3    H136779   5.112   2.955   1.161 -0.8046 -0.8920 -0.6461
 5096TIP3    H236780   5.138   2.808   1.188 -1.6518 -0.6602  1.5716
 5097TIP3   OH236781   4.160   1.474  13.606  0.1624  0.3152 -0.0069
 5097TIP3    H136782   4.210   1.528  13.545  1.5598  0.2805  1.0815
 5097TIP3    H236783   4.175   1.384  13.575  0.4134  0.3392  0.0368
 5098TIP3   OH236784   5.251   2.177  15.094 -0.4673  0.0630  0.2523
 5098TIP3    H136785   5.241   2.268  15.066  0.3239 -0.2468 -1.0469
 5098TIP3    H236786   5.166   2.155  15.132  0.3021  2.3235  3.5397
 5099TIP3   OH236787   5.310   0.274  10.827  0.6717  0.1661  0.2387
 5099TIP3    H136788   5.306   0.204  10.892  0.2058 -0.6905 -0.6841
 5099TIP3    H236789   5.313   0.228  10.743  1.9131  1.2474 -0.3191
 5100TIP3   OH236790   2.324   2.540  16.838  0.0837  0.0880  0.3040
 5100TIP3    H136791   2.332   2.514  16.930  2.1641  1.0407  0.4052
 5100TIP3    H236792   2.363   2.627  16.834 -0.5649  0.3174 -1.3807
 5101TIP3   OH236793   5.318   1.254   4.920 -0.4870 -0.5449 -0.2710
 5101TIP3    H136794   5.358   1.287   5.000 -1.5183 -0.1307  0.0762
 5101TIP3    H236795   5.378   1.185   4.890 -1.7165 -2.9993  2.6324
 5102TIP3   OH236796   1.609   5.465   2.420  0.2731  0.2167  0.8149
 5102TIP3    H136797   1.561   5.473   2.502 -0.3556  0.7970  0.3995
 5102TIP3    H236798   1.542   5.442   2.356  0.8778 -0.9805  0.6008
 5103TIP3   OH236799   3.049   5.798   5.064 -0.1942 -0.0271 -0.3710
 5103TIP3    H136800   3.006   5.883   5.053  0.2052  0.1375 -0.6844
 5103TIP3    H236801   3.139   5.820   5.091  0.6302 -0.2823 -2.7906
 5104TIP3   OH236802   4.151   0.455  11.316 -0.1439  0.4192  0.0592
 5104TIP3    H136803   4.167   0.365  11.346 -2.1033 -0.0292 -0.1496
 5104TIP3    H236804   4.238   0.493  11.308  0.7321 -1.4881  0.0876
 5105TIP3   OH236805   5.986   1.677   2.994  0.2815  0.1388 -0.5175
 5105TIP3    H136806   6.017   1.758   3.034 -0.0866 -0.5285  1.1807
 5105TIP3    H236807   6.039   1.609   3.036  0.0457 -0.5632 -1.3586
 5106TIP3   OH236808   3.260   2.390   3.774 -0.2361 -0.2932  1.0571
 5106TIP3    H136809   3.311   2.345   3.840  1.6461  1.7998  1.0735
 5106TIP3    H236810   3.174   2.349   3.778  0.5268 -1.7433  3.1971
 5107TIP3   OH236811   0.032   2.061   5.521 -0.3489 -0.1465  0.2424
 5107TIP3    H136812   0.108   2.022   5.565 -0.0018  0.7639  0.4634
 5107TIP3    H236813  -0.031   1.989   5.514  0.8743 -1.1580 -0.7712
 5108TIP3   OH236814   1.369   3.064  12.021 -0.0114 -0.1440 -0.0354
 5108TIP3    H136815   1.341   2.991  11.965 -1.1914 -0.4156  0.8786
 5108TIP3    H236816   1.344   3.142  11.973  0.4148 -0.3616 -0.6057
 5109TIP3   OH236817   5.670   1.130  14.685 -0.2011  0.1168 -0.0506
 5109TIP3    H136818   5.739   1.152  14.622 -1.3661  1.0156 -1.0444
 5109TIP3    H236819   5.593   1.113  14.631 -0.7799 -0.8037  1.0482
 5110TIP3   OH236820   0.794   1.370   4.801 -0.2078  0.6119 -0.3114
 5110TIP3    H136821   0.886   1.390   4.786  0.2947 -1.6377 -0.4613
 5110TIP3    H236822   0.747   1.426   4.740  1.0619  1.6908 -0.3258
 5111TIP3   OH236823   0.727   2.669  12.464 -0.4425 -0.5629  0.3679
 5111TIP3    H136824   0.739   2.749  12.516  1.2010  0.3653 -1.4065
 5111TIP3    H236825   0.704   2.700  12.377 -0.3608 -2.0599 -0.2007
 5112TIP3   OH236826   2.952   6.576  13.325 -0.3150 -0.0183  0.7461
 5112TIP3    H136827   2.913   6.624  13.252  0.8473 -0.0405  0.1010
 5112TIP3    H236828   3.012   6.514  13.283 -1.8909 -2.1243  1.5659
 5113TIP3   OH236829   5.833   5.250  11.309 -1.0390  0.0481  0.1659
 5113TIP3    H136830   5.753   5.213  11.272 -0.1457 -0.5620 -1.1928
 5113TIP3    H236831   5.840   5.337  11.269  0.8170 -1.2496 -2.5285
 5114TIP3   OH236832   0.644   5.793   1.902  0.4183  0.1938 -0.0239
 5114TIP3    H136833   0.729   5.755   1.882  0.0460  0.3978 -2.0443
 5114TIP3    H236834   0.583   5.720   1.900  0.4903  0.0931  1.1524
 5115TIP3   OH236835   6.479   4.687  16.240  0.3404  0.2540  0.4339
 5115TIP3    H136836   6.446   4.769  16.204  1.6851  0.6905  0.1886
 5115TIP3    H236837   6.520   4.643  16.165  0.7503 -0.0623  0.8474
 5116TIP3   OH236838   6.043   1.536   1.908 -0.1961  0.2548  0.3480
 5116TIP3    H136839   5.978   1.576   1.966 -1.0836  1.7390 -1.6054
 5116TIP3    H236840   5.992   1.501   1.835  1.0785  0.2860 -0.5798
 5117TIP3   OH236841   2.868   3.024  10.866  0.3280  0.0740 -0.3540
 5117TIP3    H136842   2.889   3.008  10.774 -3.4773  0.0913 -1.3109
 5117TIP3    H236843   2.927   2.965  10.914  1.3683 -1.0066 -2.8370
 5118TIP3   OH236844   1.925   6.088   0.975  0.2118  0.4316  0.0795
 5118TIP3    H136845   1.887   6.056   1.057 -1.5254  0.5189 -0.6505
 5118TIP3    H236846   1.917   6.183   0.980  1.2514  0.5056  0.3412
 5119TIP3   OH236847   2.041   1.343  14.072 -0.0329  0.1470 -0.1830
 5119TIP3    H136848   2.099   1.293  14.015  4.0745  1.7263  2.4530
 5119TIP3    H236849   2.003   1.278  14.131  0.9583 -0.5710 -0.3399
 5120TIP3   OH236850   2.295   3.713   5.336  0.0024 -0.1450  0.8128
 5120TIP3    H136851   2.247   3.630   5.328 -1.6099  0.7459  1.0730
 5120TIP3    H236852   2.271   3.762   5.258 -0.3905  0.7434  1.4773
 5121TIP3   OH236853   5.735   3.060  14.089 -0.1572  0.0627 -0.4012
 5121TIP3    H136854   5.656   3.016  14.059  0.1751  1.1317 -2.9354
 5121TIP3    H236855   5.712   3.153  14.088  1.2176  0.3965 -1.4264
 5122TIP3   OH236856   6.131   5.424  11.339  0.4127 -0.1385  0.3016
 5122TIP3    H136857   6.218   5.462  11.343  0.5346 -0.4985  1.1607
 5122TIP3    H236858   6.077   5.490  11.295  1.0142  0.2734  0.1880
 5123TIP3   OH236859   3.234   6.084  17.222 -0.1045  0.1155 -0.2057
 5123TIP3    H136860   3.330   6.084  17.224 -0.1067  0.0522 -0.0113
 5123TIP3    H236861   3.209   6.081  17.315 -0.2972  1.4006 -0.2176
 5124TIP3   OH236862   5.736   0.316  14.794 -0.4290 -0.2906  0.3207
 5124TIP3    H136863   5.655   0.366  14.783 -0.1932 -0.0589 -0.3828
 5124TIP3    H236864   5.714   0.250  14.860 -0.9651  0.2502  0.6914
 5125TIP3   OH236865   0.600   5.911   0.606 -0.7436  0.6180  0.1514
 5125TIP3    H136866   0.614   5.972   0.678 -1.7371 -1.0245  1.7805
 5125TIP3    H236867   0.640   5.829   0.636 -0.5496  0.1117 -1.4621
 5126TIP3   OH236868   2.199   0.355  12.371 -0.4020  0.4605  0.3285
 5126TIP3    H136869   2.272   0.404  12.411  0.7191 -1.0388  0.1855
 5126TIP3    H236870   2.152   0.317  12.445  0.5033 -0.6796  0.3419
 5127TIP3   OH236871   5.950   3.440   1.453  0.6740  0.1751  0.5727
 5127TIP3    H136872   5.878   3.378   1.444  0.0538  0.8736  0.6409
 5127TIP3    H236873   5.917   3.507   1.513  1.5133  0.3085  0.8951
 5128TIP3   OH236874   6.223   5.936   5.169  0.1469  0.0643 -0.4679
 5128TIP3    H136875   6.190   5.875   5.103 -2.5835  1.0817 -0.1263
 5128TIP3    H236876   6.217   6.022   5.128 -0.8948  0.6310  0.8173
 5129TIP3   OH236877   1.568   4.194  16.162 -0.0958  0.0142  0.1867
 5129TIP3    H136878   1.482   4.224  16.190 -0.2222 -0.8437  0.7370
 5129TIP3    H236879   1.577   4.107  16.202  0.4595 -0.4684 -0.9697
 5130TIP3   OH236880   1.113   3.122   3.506 -0.6745  0.3765  0.3912
 5130TIP3    H136881   1.159   3.196   3.468 -1.8668  1.0605  0.2336
 5130TIP3    H236882   1.026   3.125   3.465 -1.4597  0.2136  2.0193
 5131TIP3   OH236883   1.967   4.492   3.010  0.3327  0.3660  0.4605
 5131TIP3    H136884   1.955   4.478   3.104  0.6218 -0.6095  0.3660
 5131TIP3    H236885   2.048   4.542   3.003  0.5903 -0.0123  0.7152
 5132TIP3   OH236886   1.166   3.091  15.270 -0.5512  0.5374 -0.2470
 5132TIP3    H136887   1.124   3.101  15.355  1.5112  3.0941  0.5315
 5132TIP3    H236888   1.199   3.002  15.270 -5.0571 -1.2965 -0.5448
 5133TIP3   OH236889   1.916   4.126   4.300 -0.0637  0.2575  0.5225
 5133TIP3    H136890   1.852   4.188   4.334  3.6727  3.5656  1.9358
 5133TIP3    H236891   1.957   4.089   4.379  0.8495 -0.6255 -0.3531
 5134TIP3   OH236892   6.530   0.486   3.595  0.4435 -0.0747 -0.3204
 5134TIP3    H136893   6.559   0.406   3.639  0.9599 -0.4523 -1.3309
 5134TIP3    H236894   6.610   0.522   3.555  0.4686  1.6291  1.1896
 5135TIP3   OH236895   1.643   5.318   0.661 -0.1640 -0.0413  0.2253
 5135TIP3    H136896   1.731   5.333   0.696 -0.1874 -1.8475  1.1252
 5135TIP3    H236897   1.651   5.336   0.567  1.0945  0.1234  0.3529
 5136TIP3   OH236898   4.547   3.076  15.721 -0.6811 -0.6574  0.2633
 5136TIP3    H136899   4.492   3.072  15.799 -1.4529 -0.7723 -0.2830
 5136TIP3    H236900   4.499   3.133  15.660  1.8901  2.9028  1.4246
 5137TIP3   OH236901   0.564   0.035  14.487  0.5154  0.0802  0.5043
 5137TIP3    H136902   0.625   0.096  14.447  0.6436 -0.2846  0.1428
 5137TIP3    H236903   0.526   0.084  14.560  0.5612  0.6112  0.1721
 5138TIP3   OH236904   5.684   4.132  16.419  0.6384  0.0248  0.2188
 5138TIP3    H136905   5.687   4.200  16.352  1.2449 -0.3984 -0.1821
 5138TIP3    H236906   5.677   4.181  16.502  0.8357  0.5683 -0.0829
 5139TIP3   OH236907   4.243   4.602  15.141 -0.4388  0.6314  0.2020
 5139TIP3    H136908   4.177   4.581  15.075 -1.1279  1.9065  0.4623
 5139TIP3    H236909   4.226   4.540  15.213 -1.7782  1.3648  0.5369
 5140TIP3   OH236910   0.244   0.225   0.032  0.1380 -0.2158 -0.0775
 5140TIP3    H136911   0.309   0.293   0.047 -0.3258 -0.1181  1.5780
 5140TIP3    H236912   0.216   0.198   0.119 -0.5559 -1.7014 -0.7300
 5141TIP3   OH236913   6.279   0.397  15.960 -0.1484 -0.1763  0.3928
 5141TIP3    H136914   6.282   0.306  15.930 -0.5984 -0.4285  1.1011
 5141TIP3    H236915   6.205   0.435  15.912 -1.5177 -0.8563  1.9047
 5142TIP3   OH236916   4.543   1.471   5.161 -0.6650 -0.1125 -0.7429
 5142TIP3    H136917   4.506   1.387   5.135  1.9330 -2.0894  1.5872
 5142TIP3    H236918   4.635   1.466   5.135 -0.9028  2.8660 -2.3888
 5143TIP3   OH236919   1.741   4.701  15.200  0.1038 -0.9049  0.2839
 5143TIP3    H136920   1.770   4.780  15.156  0.4113 -0.5577  1.0888
 5143TIP3    H236921   1.776   4.709  15.289  0.4326 -2.0944  0.2805
 5144TIP3   OH236922   3.541   6.200   4.144 -0.3274  0.5948 -0.2773
 5144TIP3    H136923   3.491   6.119   4.152  1.3397 -0.5380 -1.1262
 5144TIP3    H236924   3.474   6.268   4.133 -1.6988 -0.7859 -0.6677
 5145TIP3   OH236925   5.169   2.878   2.684  0.0967  1.0976 -0.1548
 5145TIP3    H136926   5.158   2.849   2.593 -0.6247 -1.5016  0.7085
 5145TIP3    H236927   5.263   2.873   2.700 -0.0135 -0.9629 -0.0063
 5146TIP3   OH236928   1.636   1.907   3.288 -0.6138  0.1246 -0.4564
 5146TIP3    H136929   1.635   1.899   3.384 -0.7632 -0.3725 -0.5001
 5146TIP3    H236930   1.720   1.872   3.261 -0.9544 -0.6081 -0.5821
 5147TIP3   OH236931   6.766   2.492  13.975  0.7098  0.3296 -0.0323
 5147TIP3    H136932   6.830   2.522  13.910  0.5010 -0.2761 -0.5173
 5147TIP3    H236933   6.784   2.399  13.985 -0.7134 -0.0542 -0.8787
 5148TIP3   OH236934   0.813   5.323  14.505  0.0492 -0.3388 -0.3993
 5148TIP3    H136935   0.784   5.337  14.595 -0.2345  0.7040 -0.6498
 5148TIP3    H236936   0.905   5.299  14.513  0.2511  0.5986  0.1218
 5149TIP3   OH236937   6.255   2.617   5.838  0.5029  0.3944 -0.0676
 5149TIP3    H136938   6.221   2.628   5.927 -1.0772 -0.4986 -0.5451
 5149TIP3    H236939   6.247   2.703   5.798 -1.5516  0.1411 -0.2716
 5150TIP3   OH236940   6.781   0.557  15.548  0.7357 -0.1684  0.0992
 5150TIP3    H136941   6.701   0.597  15.581  0.7544  0.9913 -1.2075
 5150TIP3    H236942   6.760   0.464  15.539  0.5585 -0.4138  2.7756
 5151TIP3   OH236943   0.652   0.952   0.731  0.3212 -0.4148  0.1595
 5151TIP3    H136944   0.671   0.953   0.825 -1.1936 -2.1893  0.5278
 5151TIP3    H236945   0.715   0.889   0.695  1.0576  0.4410 -0.0631
 5152TIP3   OH236946   5.034   1.470   4.761 -0.4478 -0.6127 -0.3454
 5152TIP3    H136947   5.114   1.494   4.714  0.3061 -2.1268  0.1481
 5152TIP3    H236948   5.036   1.523   4.841  0.5443 -1.3255  0.1130
 5153TIP3   OH236949   3.472   4.240   0.555 -0.0756 -0.1349  0.3033
 5153TIP3    H136950   3.547   4.272   0.505 -0.6962  0.8858  0.0047
 5153TIP3    H236951   3.420   4.318   0.572  0.4870 -0.3147  3.2012
 5154TIP3   OH236952   0.914   1.611  10.804  0.0099  0.1340 -0.1982
 5154TIP3    H136953   0.909   1.698  10.764  0.0327  0.1139 -0.2453
 5154TIP3    H236954   1.002   1.607  10.842 -0.2669  0.4238  0.4851
 5155TIP3   OH236955   5.456   5.484   5.297  0.6620  0.7317 -0.4509
 5155TIP3    H136956   5.517   5.556   5.289  0.5581  0.6858 -1.7050
 5155TIP3    H236957   5.412   5.499   5.381  1.4800  1.4583 -0.1458
 5156TIP3   OH236958   1.442   1.984  11.805  0.1966  0.0708 -0.2226
 5156TIP3    H136959   1.368   1.929  11.832  0.6431 -0.4895 -0.1243
 5156TIP3    H236960   1.424   2.005  11.713 -0.1780  0.0898 -0.1451
 5157TIP3   OH236961   3.395   1.567  14.501 -0.0146  0.0703  0.0309
 5157TIP3    H136962   3.393   1.473  14.484 -1.6596 -0.5217  3.1369
 5157TIP3    H236963   3.478   1.582  14.545  0.3161  0.0969 -0.6031
 5158TIP3   OH236964   5.127   2.288  14.238 -0.7793  0.6140  0.3115
 5158TIP3    H136965   5.054   2.242  14.195 -0.9186  1.2901 -0.1930
 5158TIP3    H236966   5.115   2.271  14.331 -0.0892 -1.4357  0.0328
 5159TIP3   OH236967   6.023   5.542   4.269 -0.0949 -0.0374 -0.1728
 5159TIP3    H136968   6.097   5.555   4.210 -2.2709  2.6079 -2.4297
 5159TIP3    H236969   5.954   5.596   4.233 -2.5132 -0.8417  3.0667
 5160TIP3   OH236970   1.764   5.536   1.071 -0.0443  0.3181  0.4787
 5160TIP3    H136971   1.751   5.552   1.164 -2.0474  0.4803  0.2086
 5160TIP3    H236972   1.821   5.459   1.067  0.8045  0.8737  1.8329
 5161TIP3   OH236973   5.551   4.484   1.352  0.6599  0.6377  0.0686
 5161TIP3    H136974   5.525   4.548   1.419  0.1086  1.3150 -0.7893
 5161TIP3    H236975   5.487   4.495   1.282  1.1016 -0.2385 -0.4774
 5162TIP3   OH236976   4.067   4.415   5.329 -0.0842 -0.4689 -0.0467
 5162TIP3    H136977   4.018   4.469   5.267  1.4695  1.2694  0.1902
 5162TIP3    H236978   4.122   4.360   5.273  0.5073  0.3171 -0.2500
 5163TIP3   OH236979   3.770   3.665   1.526  0.3449 -0.6915 -0.0115
 5163TIP3    H136980   3.842   3.647   1.465  0.4278 -3.5831  0.8656
 5163TIP3    H236981   3.776   3.595   1.591 -1.5926  0.6309  1.6362
 5164TIP3   OH236982   1.973   1.013  17.268  0.3592 -0.3992 -0.2980
 5164TIP3    H136983   1.913   0.946  17.300  0.8305 -1.6887 -2.0356
 5164TIP3    H236984   2.049   1.006  17.326  0.7480 -1.9471 -0.9761
 5165TIP3   OH236985   6.191   0.105   4.842 -0.4234  0.6565 -0.3316
 5165TIP3    H136986   6.202   0.181   4.785 -1.0226  0.8988 -0.1265
 5165TIP3    H236987   6.108   0.121   4.888 -0.5833 -0.1499 -0.3367
 5166TIP3   OH236988   5.111   1.121  17.124  0.2090 -0.0315 -0.5345
 5166TIP3    H136989   5.151   1.148  17.041  2.3420  0.7245  0.6993
 5166TIP3    H236990   5.136   1.189  17.186 -2.1041 -0.1416  0.5474
 5167TIP3   OH236991   0.845   5.339  13.586 -0.7773 -0.1211 -0.3177
 5167TIP3    H136992   0.873   5.267  13.642 -4.4820 -1.0556  0.5024
 5167TIP3    H236993   0.872   5.418  13.632 -0.4170 -0.9439  0.9040
 5168TIP3   OH236994   6.168   6.231   4.498 -0.0986 -0.2412  0.1953
 5168TIP3    H136995   6.247   6.194   4.538 -1.7800 -2.2480  1.7185
 5168TIP3    H236996   6.140   6.299   4.559 -0.4767 -0.6401  0.4617
 5169TIP3   OH236997   3.496   5.686   2.598 -0.7155  0.3091 -0.1929
 5169TIP3    H136998   3.514   5.766   2.647 -0.6370  0.3827 -0.3424
 5169TIP3    H236999   3.423   5.709   2.540 -1.3936 -0.0298  0.5150
 5170TIP3   OH237000   2.309   4.184  13.673 -0.4073  0.2203 -0.3481
 5170TIP3    H137001   2.364   4.205  13.749 -3.1537 -0.6902  1.9587
 5170TIP3    H237002   2.299   4.089  13.676 -2.2460  0.3923 -0.6439
 5171TIP3   OH237003   6.381   6.820  11.132 -0.3298  0.0902  0.6107
 5171TIP3    H137004   6.460   6.870  11.147 -0.2378  0.2088 -0.2596
 5171TIP3    H237005   6.329   6.832  11.212 -1.4974  3.7609 -0.6184
 5172TIP3   OH237006   4.059   5.902   0.688  0.5003  0.3247 -0.1887
 5172TIP3    H137007   4.073   5.996   0.681 -0.5245  0.6460  1.8476
 5172TIP3    H237008   3.965   5.892   0.703  0.3795 -1.1186 -1.6700
 5173TIP3   OH237009   3.907   5.265  13.100 -0.6658  0.3169 -0.3700
 5173TIP3    H137010   3.844   5.218  13.154 -0.2627  0.9303  0.6438
 5173TIP3    H237011   3.944   5.198  13.042 -2.8837  0.1180 -1.5952
 5174TIP3   OH237012   1.900   4.579  16.677 -0.2695 -0.2376 -0.2625
 5174TIP3    H137013   1.940   4.501  16.638  0.9631  0.3841 -0.2709
 5174TIP3    H237014   1.900   4.643  16.606  0.2171  0.2855  0.2030
 5175TIP3   OH237015   1.025   5.595  13.368 -0.4603 -0.1392 -0.1179
 5175TIP3    H137016   0.989   5.624  13.452  0.3764 -1.4167  0.7065
 5175TIP3    H237017   0.948   5.578  13.314 -1.0368 -0.1832  0.7004
 5176TIP3   OH237018   3.511   5.845  15.788 -0.1943  0.3196 -0.3236
 5176TIP3    H137019   3.418   5.862  15.779 -0.5540 -0.3865  1.7706
 5176TIP3    H237020   3.527   5.769  15.732 -1.1296 -0.2942  0.2320
 5177TIP3   OH237021   0.256   0.390   0.713 -0.9682  0.8734  0.2513
 5177TIP3    H137022   0.282   0.308   0.673  1.7143  1.7736  0.0827
 5177TIP3    H237023   0.245   0.370   0.806  1.6032  0.7198  0.5461
 5178TIP3   OH237024   5.074   5.324   3.852 -0.0403  0.4303  0.3503
 5178TIP3    H137025   5.129   5.392   3.891  2.9704 -0.6882 -1.7438
 5178TIP3    H237026   5.071   5.255   3.918 -1.8810  1.9213  1.8845
 5179TIP3   OH237027   3.005   2.158  11.933  0.2373 -0.4043  0.4673
 5179TIP3    H137028   2.971   2.146  11.844  0.2652 -1.0704  0.5466
 5179TIP3    H237029   3.009   2.070  11.969 -1.0607 -0.0063  1.6158
 5180TIP3   OH237030   3.446   0.378   2.401  0.0394 -0.3568  0.3188
 5180TIP3    H137031   3.454   0.395   2.495  0.7037 -0.8652  0.3550
 5180TIP3    H237032   3.493   0.451   2.360 -1.2491  0.5099  0.3378
 5181TIP3   OH237033   5.665   1.040  11.376 -0.3521  0.3335  0.4897
 5181TIP3    H137034   5.651   0.957  11.331 -0.7650  0.4199  0.4570
 5181TIP3    H237035   5.712   1.094  11.312 -0.9069  0.4436  0.1706
 5182TIP3   OH237036   2.797   3.059   0.229  0.2427 -0.7775  0.1653
 5182TIP3    H137037   2.858   3.025   0.294 -0.0174 -1.3076  0.1285
 5182TIP3    H237038   2.716   3.010   0.244 -0.5703  0.7825  1.0477
 5183TIP3   OH237039   5.894   1.269   2.842 -0.0378  0.1221  0.6303
 5183TIP3    H137040   5.919   1.276   2.750 -0.5935 -0.6793  0.4125
 5183TIP3    H237041   5.837   1.345   2.857  0.6086  0.6352  0.5032
 5184TIP3   OH237042   2.927   1.694  12.706  0.6049 -0.2693 -0.1449
 5184TIP3    H137043   2.939   1.609  12.665  1.4001  0.2919 -1.0972
 5184TIP3    H237044   3.015   1.729  12.716  0.1727  1.4404 -1.9396
 5185TIP3   OH237045   0.403   3.043   4.749  0.0307 -0.2426  0.6550
 5185TIP3    H137046   0.334   2.993   4.706  0.8019 -1.6840  1.0669
 5185TIP3    H237047   0.454   3.081   4.677 -0.2600 -0.4579  0.3345
 5186TIP3   OH237048   0.871   5.628  11.256  0.3270 -0.3774 -0.1731
 5186TIP3    H137049   0.837   5.717  11.252  0.2601 -0.3636  0.5358
 5186TIP3    H237050   0.836   5.593  11.339  1.6546 -0.5222  0.3316
 5187TIP3   OH237051   5.497   4.838  12.430 -0.3139  0.2432  0.4715
 5187TIP3    H137052   5.584   4.829  12.470 -0.5131 -0.5243  0.7370
 5187TIP3    H237053   5.482   4.933  12.429  0.2815  0.3530  0.9586
 5188TIP3   OH237054   3.549   3.085  13.169  0.0152 -0.2818 -0.6037
 5188TIP3    H137055   3.585   3.131  13.093  2.2659  1.1040  1.2496
 5188TIP3    H237056   3.608   3.011  13.182  1.3285  1.0760  1.4553
 5189TIP3   OH237057   5.621   4.802  16.409  0.6132 -0.2677 -0.5626
 5189TIP3    H137058   5.661   4.716  16.417 -0.6509 -0.7879  0.2203
 5189TIP3    H237059   5.568   4.797  16.329  1.8582  0.3393 -1.4557
 5190TIP3   OH237060   5.603   1.260   2.505 -0.1312  0.2196 -0.0225
 5190TIP3    H137061   5.553   1.178   2.505  0.7516 -0.3397  0.5837
 5190TIP3    H237062   5.692   1.232   2.528 -0.0399  1.4879  1.1771
 5191TIP3   OH237063   1.411   1.452  14.730  0.1513  0.1169  0.2654
 5191TIP3    H137064   1.386   1.542  14.710 -1.6772 -0.4298  0.0688
 5191TIP3    H237065   1.451   1.420  14.649 -2.7250 -0.4818 -0.9790
 5192TIP3   OH237066   4.331   0.962  17.122 -0.2053  0.5365  0.1745
 5192TIP3    H137067   4.416   1.005  17.124 -0.0263  0.1573  1.1001
 5192TIP3    H237068   4.305   0.955  17.214 -0.8645 -0.0848 -0.0469
 5193TIP3   OH237069   4.276   5.026   0.768 -0.0678  0.3645 -0.0459
 5193TIP3    H137070   4.365   4.997   0.785  0.2207  1.8262  1.0270
 5193TIP3    H237071   4.279   5.121   0.780 -1.9679  0.3235  0.9394
 5194TIP3   OH237072   3.211   0.978   3.987 -0.2116 -0.1551  0.0272
 5194TIP3    H137073   3.135   0.923   3.968  0.5390 -1.5446  0.8846
 5194TIP3    H237074   3.188   1.065   3.954 -2.6392 -0.2654  1.2908
 5195TIP3   OH237075   4.921   1.201   1.444 -0.2727 -0.1921  0.0423
 5195TIP3    H137076   4.985   1.249   1.496 -1.2596  2.3790 -1.0320
 5195TIP3    H237077   4.935   1.110   1.467  3.7886  0.2839 -0.1944
 5196TIP3   OH237078   0.106   5.622  16.701 -0.6377  0.1518  0.0205
 5196TIP3    H137079   0.081   5.658  16.616 -1.9822  1.5538  0.9738
 5196TIP3    H237080   0.181   5.674  16.729  0.7977 -1.3299 -0.9789
 5197TIP3   OH237081   4.008   0.487  17.209 -0.1518  0.0374 -0.0441
 5197TIP3    H137082   3.964   0.472  17.125 -0.2182  1.0609 -0.1966
 5197TIP3    H237083   3.955   0.552  17.253 -0.1327 -0.5283  0.8251
 5198TIP3   OH237084   6.385   3.056   4.239 -0.1693 -0.3459 -0.3225
 5198TIP3    H137085   6.315   3.030   4.179 -0.0570  0.9625 -1.0370
 5198TIP3    H237086   6.466   3.036   4.192 -0.0425 -1.3503  0.2876
 5199TIP3   OH237087   6.805   4.362  16.585  0.6389 -0.1839 -0.2134
 5199TIP3    H137088   6.777   4.323  16.668 -1.5306 -0.2352 -0.9289
 5199TIP3    H237089   6.900   4.372  16.594  0.8337 -2.8823  1.1290
 5200TIP3   OH237090   4.116   1.977  11.727 -0.0354 -0.3344  0.1773
 5200TIP3    H137091   4.100   1.883  11.718 -2.1200  0.1014 -0.9782
 5200TIP3    H237092   4.043   2.009  11.779 -0.0681  0.8799 -0.6035
 5201TIP3   OH237093   3.791   4.159   2.553  0.2300 -0.1779  0.2938
 5201TIP3    H137094   3.884   4.152   2.574  0.6181  0.5125 -1.1732
 5201TIP3    H237095   3.751   4.084   2.597  1.7112 -1.4074 -0.4074
 5202TIP3   OH237096   5.954   2.537   4.058  0.0583  0.7007  0.2662
 5202TIP3    H137097   5.922   2.449   4.036 -0.2010  1.1179 -1.0119
 5202TIP3    H237098   5.907   2.596   3.999  1.9999  1.4712 -0.5464
 5203TIP3   OH237099   1.703   4.150  17.204  0.2216  0.4379 -0.0850
 5203TIP3    H137100   1.716   4.138  17.298 -0.6373  2.3517  0.3092
 5203TIP3    H237101   1.720   4.243  17.189  1.2235 -0.0213 -1.9906
 5204TIP3   OH237102   5.908   4.361  15.527  0.4074 -0.2997 -0.3558
 5204TIP3    H137103   5.911   4.457  15.533 -2.7400 -0.2364  0.9552
 5204TIP3    H237104   5.849   4.344  15.453 -0.4392 -1.2191  0.5286
 5205TIP3   OH237105   1.051   5.074   0.365 -0.3522 -0.4862 -0.1056
 5205TIP3    H137106   1.087   5.084   0.454 -0.1299 -1.2039 -0.1159
 5205TIP3    H237107   1.050   5.164   0.330  2.8328 -0.5994 -0.6349
 5206TIP3   OH237108   3.777   4.830   3.497 -0.1802 -0.1902  0.9070
 5206TIP3    H137109   3.744   4.743   3.472 -1.6129 -0.3379  3.1514
 5206TIP3    H237110   3.846   4.848   3.433 -0.7766 -2.3822 -0.4410
 5207TIP3   OH237111   4.510   2.928   0.231 -0.0798 -0.1564 -0.1640
 5207TIP3    H137112   4.438   2.941   0.170 -0.0476  0.1104 -0.1441
 5207TIP3    H237113   4.572   2.997   0.211  0.8634 -1.2776 -1.1757
 5208TIP3   OH237114   5.071   1.189   5.038 -0.2164  0.3023 -0.1912
 5208TIP3    H137115   5.059   1.240   5.118  1.5705 -0.1474  0.3898
 5208TIP3    H237116   5.140   1.235   4.990  0.5372 -0.8638 -0.2469
 5209TIP3   OH237117   5.951   3.610  16.393  0.3084  0.2088  0.5807
 5209TIP3    H137118   5.878   3.653  16.438 -0.1509 -2.3041  2.3213
 5209TIP3    H237119   6.022   3.609  16.456  1.3888  1.2620 -0.5822
 5210TIP3   OH237120   2.036   1.168   1.655  0.2110  0.0781  0.1183
 5210TIP3    H137121   2.123   1.205   1.669  1.0684 -2.1346  0.8450
 5210TIP3    H237122   2.028   1.100   1.722 -1.8761 -0.1097 -0.2923
 5211TIP3   OH237123   5.911   2.889  11.333  0.6935  0.6196  0.2990
 5211TIP3    H137124   5.903   2.933  11.418 -0.6255 -1.3783  1.2458
 5211TIP3    H237125   5.839   2.925  11.281  0.7907  0.9890  0.4175
 5212TIP3   OH237126   5.698   4.840  12.677 -0.0709  0.3144  0.5490
 5212TIP3    H137127   5.730   4.920  12.718 -1.1186  0.6646  0.7080
 5212TIP3    H237128   5.763   4.818  12.611 -0.1804  1.7432 -0.0366
 5213TIP3   OH237129   5.072   1.559   2.463  0.8513 -0.2240 -0.0797
 5213TIP3    H137130   5.124   1.613   2.403  1.1227  0.4218  0.7280
 5213TIP3    H237131   5.060   1.614   2.541 -1.4813 -0.1608 -0.4444
 5214TIP3   OH237132   3.111   3.936  14.582  0.1067  0.0412 -0.6316
 5214TIP3    H137133   3.113   3.899  14.670 -1.4531  0.7109 -0.2936
 5214TIP3    H237134   3.029   3.904  14.545  0.0646  0.9305 -1.3143
 5215TIP3   OH237135   3.102   3.102   3.603  0.0980 -0.0145  0.2625
 5215TIP3    H137136   3.167   3.087   3.671  2.0897 -0.4075 -1.6830
 5215TIP3    H237137   3.136   3.175   3.552 -0.6168 -0.6883 -1.2034
 5216TIP3   OH237138   4.704   0.838   6.170 -0.0029  0.1304  0.2792
 5216TIP3    H137139   4.703   0.854   6.076 -1.2459  2.1708  0.6100
 5216TIP3    H237140   4.700   0.925   6.210  0.1829 -0.7087  2.2209
 5217TIP3   OH237141   1.190   2.336  12.941 -0.0287 -0.0723 -0.0839
 5217TIP3    H137142   1.277   2.296  12.943 -0.5553 -1.2341  0.5896
 5217TIP3    H237143   1.181   2.377  13.027  0.6839  1.9247 -0.9358
 5218TIP3   OH237144   4.759   4.293  13.223  0.1771  0.7124 -0.1269
 5218TIP3    H137145   4.665   4.293  13.205  0.2586  2.0947 -0.6308
 5218TIP3    H237146   4.769   4.233  13.297 -0.8295 -1.0171 -1.3706
 5219TIP3   OH237147   5.627   4.174   4.288 -0.3445 -0.4684 -0.2115
 5219TIP3    H137148   5.666   4.100   4.334 -1.7383 -0.4581  1.0191
 5219TIP3    H237149   5.597   4.233   4.357 -0.0506  0.8372 -1.1619
 5220TIP3   OH237150   3.531   1.392   4.523  0.2079  0.3327  0.5521
 5220TIP3    H137151   3.624   1.407   4.505  0.2565 -0.0162  0.5104
 5220TIP3    H237152   3.528   1.356   4.612  0.1210  0.2791  0.5288
 5221TIP3   OH237153   4.546   0.617   3.917  0.6645 -0.1695  0.0870
 5221TIP3    H137154   4.526   0.704   3.953 -0.2078 -0.0471 -0.6928
 5221TIP3    H237155   4.620   0.632   3.858 -1.0511  0.4795 -1.9433
 5222TIP3   OH237156   4.301   4.897  14.357  0.1836 -0.4777 -1.1274
 5222TIP3    H137157   4.380   4.868  14.311  0.0125 -0.3220 -1.5214
 5222TIP3    H237158   4.268   4.970  14.305  0.0984 -0.1656 -0.6438
 5223TIP3   OH237159   0.477   2.777   3.169  0.6886 -0.6597  0.4415
 5223TIP3    H137160   0.397   2.789   3.118  0.5366  2.7445  1.3792
 5223TIP3    H237161   0.548   2.790   3.106  0.5033 -0.3803  0.2908
 5224TIP3   OH237162   3.494   4.687   0.274 -0.0858  0.0456  0.1039
 5224TIP3    H137163   3.500   4.766   0.327  0.1853  0.0201  0.1103
 5224TIP3    H237164   3.560   4.699   0.206  0.4946 -0.5233  0.5635
 5225TIP3   OH237165   6.808   4.982   5.538 -0.4261 -0.3018 -0.2113
 5225TIP3    H137166   6.819   4.888   5.551 -1.3818 -0.4551 -0.4871
 5225TIP3    H237167   6.886   5.009   5.489  0.4277 -0.7305  0.8891
 5226TIP3   OH237168   0.585   1.288  11.833 -0.3731 -0.6181  0.0835
 5226TIP3    H137169   0.640   1.254  11.904 -0.7761  0.4216  0.9082
 5226TIP3    H237170   0.628   1.259  11.753  0.9149 -0.5190  0.7337
 5227TIP3   OH237171   1.125   0.709  17.151  0.0283 -0.3137 -0.1049
 5227TIP3    H137172   1.067   0.727  17.225 -0.0487  0.4452 -0.3489
 5227TIP3    H237173   1.068   0.714  17.074  0.8579  2.8364 -0.5710
 5228TIP3   OH237174   4.044   4.294  12.522 -0.7196 -0.3573 -0.0942
 5228TIP3    H137175   4.116   4.355  12.512  0.3048 -1.6734 -0.8639
 5228TIP3    H237176   4.083   4.215  12.560 -1.7008 -1.1693 -0.7184
 5229TIP3   OH237177   2.717   4.602  12.038 -0.3462  0.1277  0.2202
 5229TIP3    H137178   2.799   4.574  12.079 -1.0365 -0.5345  1.1716
 5229TIP3    H237179   2.734   4.691  12.008  1.0768 -0.4195 -0.5854
 5230TIP3   OH237180   0.743   1.176   5.795 -0.0328 -0.3580 -0.2784
 5230TIP3    H137181   0.702   1.261   5.779  0.8529  0.1973  0.3225
 5230TIP3    H237182   0.821   1.197   5.847  0.7237 -1.4322 -0.9499
 5231TIP3   OH237183   2.215   2.211  12.522 -0.2212  0.1877 -0.3301
 5231TIP3    H137184   2.196   2.241  12.612  0.7047  1.4970 -0.5512
 5231TIP3    H237185   2.136   2.234  12.473 -1.3096 -1.8024  0.4031
 5232TIP3   OH237186   0.014   3.414  11.790 -0.2618 -0.4787 -0.3265
 5232TIP3    H137187   0.046   3.495  11.829  0.2247  0.0520 -1.8086
 5232TIP3    H237188  -0.049   3.380  11.854 -0.3561  0.9778  0.3798
 5233TIP3   OH237189   1.085   0.371  11.513  0.5756  0.2768 -0.6437
 5233TIP3    H137190   1.148   0.305  11.483  1.8704  0.4495  1.6471
 5233TIP3    H237191   1.134   0.453  11.513  0.1797  0.5234  0.5183
 5234TIP3   OH237192   6.248   5.516   2.240  0.2420 -0.0979  0.1082
 5234TIP3    H137193   6.168   5.471   2.214  0.5683  0.3615 -1.7094
 5234TIP3    H237194   6.241   5.603   2.201  0.6897  0.6579  1.6632
 5235TIP3   OH237195   5.163   6.531   3.234  0.0490 -0.6073 -0.3650
 5235TIP3    H137196   5.177   6.507   3.325 -3.2197 -3.6568 -0.5450
 5235TIP3    H237197   5.084   6.585   3.235 -0.9002 -1.9238 -1.4918
 5236TIP3   OH237198   2.961   1.742  11.751  0.3810 -0.5877  0.2013
 5236TIP3    H137199   3.014   1.673  11.791  2.2206 -0.3555 -1.7862
 5236TIP3    H237200   3.025   1.800  11.709 -1.3806  0.3728 -1.1997
 5237TIP3   OH237201   5.842   3.488   0.285  0.8171 -0.0342  0.1453
 5237TIP3    H137202   5.885   3.574   0.286  0.1288  0.3228 -0.5087
 5237TIP3    H237203   5.909   3.429   0.250  1.2433  0.2587  0.4548
 5238TIP3   OH237204   2.002   4.065   3.599  0.3748  0.8269 -0.5114
 5238TIP3    H137205   2.094   4.081   3.623  0.7471 -0.8167 -0.8027
 5238TIP3    H237206   1.961   4.037   3.681  0.3699  0.6103 -0.5868
 5239TIP3   OH237207   4.147   3.153   1.060  0.7442 -0.2408  0.3204
 5239TIP3    H137208   4.170   3.101   1.137  0.9546 -1.6914 -0.7002
 5239TIP3    H237209   4.083   3.100   1.013 -0.1130  1.0682 -0.0100
 5240TIP3   OH237210   6.447   4.847  16.494 -0.0470  0.1236  0.2445
 5240TIP3    H137211   6.430   4.760  16.458  0.9843  1.0757 -2.6423
 5240TIP3    H237212   6.531   4.873  16.457 -0.3510  2.3790  1.0290
 5241TIP3   OH237213   0.578   5.523  12.559 -0.3505  0.3576 -0.1177
 5241TIP3    H137214   0.640   5.572  12.505 -0.7936 -0.0824 -1.0270
 5241TIP3    H237215   0.632   5.488  12.631 -0.1259  2.5849  0.8258
 5242TIP3   OH237216   5.234   5.105  11.767 -0.2362 -0.5807  0.1307
 5242TIP3    H137217   5.281   5.068  11.692 -1.0925 -1.9453  0.2393
 5242TIP3    H237218   5.141   5.098  11.743 -0.5796 -1.9447  1.6838
 5243TIP3   OH237219   4.433   4.947  13.287  0.2873  0.7264 -0.1841
 5243TIP3    H137220   4.388   5.032  13.287  1.0764  1.1551  0.7282
 5243TIP3    H237221   4.525   4.968  13.270  0.5961  0.1186  0.6998
 5244TIP3   OH237222   3.208   2.933   6.041  0.0771  0.4418 -0.3620
 5244TIP3    H137223   3.137   2.898   6.096  1.7916 -0.6051  1.2393
 5244TIP3    H237224   3.268   2.974   6.103  2.8599 -2.1065 -1.2312
 5245TIP3   OH237225   0.831   3.115  11.888  0.0519 -0.1857 -0.6523
 5245TIP3    H137226   0.747   3.089  11.850 -1.0028  0.7320  1.0016
 5245TIP3    H237227   0.808   3.157  11.971  1.9291  2.5487 -1.4222
 5246TIP3   OH237228   4.507   3.957  16.300  0.0097  0.0876  0.3580
 5246TIP3    H137229   4.412   3.962  16.303  0.0448  0.2839  1.7527
 5246TIP3    H237230   4.532   3.922  16.386  1.2168  0.5320  0.2018
 5247TIP3   OH237231   4.614   2.146  14.073  0.5974  0.2413 -0.1936
 5247TIP3    H137232   4.680   2.204  14.110  0.3581  1.3399 -1.4396
 5247TIP3    H237233   4.575   2.197  14.002  1.0799 -1.8341 -1.9809
 5248TIP3   OH237234   6.013   0.897  11.715 -0.6190 -0.0229  0.2392
 5248TIP3    H137235   5.957   0.850  11.654 -0.6672  1.2975 -0.7584
 5248TIP3    H237236   6.033   0.833  11.784 -1.4384 -1.1978 -0.5988
 5249TIP3   OH237237   3.252   3.173   1.611  0.1546 -0.6051 -0.5552
 5249TIP3    H137238   3.179   3.202   1.667 -0.6583 -1.2229 -1.2982
 5249TIP3    H237239   3.250   3.233   1.537  0.7054 -0.3225 -0.3428
 5250TIP3   OH237240   6.280   0.682   3.320  0.0876  0.4016 -0.2098
 5250TIP3    H137241   6.288   0.587   3.321 -0.5645  0.3274 -1.2128
 5250TIP3    H237242   6.368   0.713   3.296 -0.2954 -0.0580 -2.3131
 5251TIP3   OH237243   4.862   4.041   2.206  0.1977  0.0376  0.0316
 5251TIP3    H137244   4.833   4.088   2.284  0.3106  0.9668 -0.4774
 5251TIP3    H237245   4.924   4.101   2.164 -2.7616  1.2579 -2.8299
 5252TIP3   OH237246   4.793   5.859  13.384  0.2549 -0.5621  0.2039
 5252TIP3    H137247   4.814   5.944  13.423  4.4594 -2.1549  1.7260
 5252TIP3    H237248   4.753   5.809  13.455 -0.4892 -0.5227 -0.1746
 5253TIP3   OH237249   2.232   4.977   2.647  0.7050  0.2240 -0.3208
 5253TIP3    H137250   2.321   4.945   2.665 -0.0009 -1.6022  0.0620
 5253TIP3    H237251   2.231   4.989   2.552  1.3244  0.0950 -0.3493
 5254TIP3   OH237252   6.304   6.119  14.526 -0.0871 -0.9682  0.1719
 5254TIP3    H137253   6.286   6.038  14.477  0.0737 -0.9147  0.0238
 5254TIP3    H237254   6.247   6.184  14.485  0.6229 -0.7354 -0.4764
 5255TIP3   OH237255   5.248   2.423  13.166  0.8481 -0.2583 -0.6603
 5255TIP3    H137256   5.292   2.415  13.081  0.1523 -1.0060 -0.9434
 5255TIP3    H237257   5.177   2.485  13.151  1.0670  0.0355 -0.4884
 5256TIP3   OH237258   3.289   2.242   4.987  0.1183 -0.4667 -0.0623
 5256TIP3    H137259   3.214   2.202   4.944 -0.4478 -1.0099  1.3773
 5256TIP3    H237260   3.365   2.213   4.936 -0.5841 -0.6224 -1.0164
 5257TIP3   OH237261   1.448   4.773   1.219  0.4544  0.0769 -0.4198
 5257TIP3    H137262   1.475   4.769   1.311  0.5671 -2.1504 -0.5165
 5257TIP3    H237263   1.529   4.790   1.171  0.7767 -0.9039 -0.2484
 5258TIP3   OH237264   1.572   1.843  15.336  0.5623  0.3384 -0.4885
 5258TIP3    H137265   1.664   1.818  15.329  0.6381  0.3408  0.3913
 5258TIP3    H237266   1.526   1.784  15.277  1.3126  1.4294 -2.1936
 5259TIP3   OH237267   0.927   2.653  13.666 -0.1665 -0.2358  0.0271
 5259TIP3    H137268   1.016   2.636  13.638  0.0989 -3.1000  2.2884
 5259TIP3    H237269   0.875   2.585  13.623 -0.8496 -0.1222  0.6590
 5260TIP3   OH237270   5.073   3.730   4.909 -0.1730  0.0951 -0.1833
 5260TIP3    H137271   5.168   3.736   4.924 -0.3233  3.6791 -0.3778
 5260TIP3    H237272   5.064   3.667   4.837  1.8209 -2.4517  1.6730
 5261TIP3   OH237273   4.846   2.449  10.989 -0.1859 -0.5766 -0.2083
 5261TIP3    H137274   4.808   2.493  11.065  1.9137 -1.8559  1.6385
 5261TIP3    H237275   4.895   2.517  10.944 -2.5740  0.5168 -1.2432
 5262TIP3   OH237276   6.783   0.472  11.932 -0.0323  0.1496  0.4438
 5262TIP3    H137277   6.816   0.544  11.879  0.4274 -0.6828 -0.4116
 5262TIP3    H237278   6.813   0.492  12.021 -2.5019  2.5954  0.8134
 5263TIP3   OH237279   3.132   0.528   5.211  0.2006 -0.0897  0.1065
 5263TIP3    H137280   3.039   0.528   5.234 -0.1418  2.8386 -1.0593
 5263TIP3    H237281   3.146   0.443   5.168 -1.2965 -1.6244  2.4702
 5264TIP3   OH237282   0.346   2.913   5.724  0.0180  0.5751 -0.4739
 5264TIP3    H137283   0.436   2.927   5.753  0.1591  2.3291 -1.7077
 5264TIP3    H237284   0.350   2.835   5.669  0.1349 -1.4588  2.3461
 5265TIP3   OH237285   3.201   2.029  16.642  0.1268  0.1527  0.0304
 5265TIP3    H137286   3.177   2.101  16.584 -0.7426 -0.6766 -0.6581
 5265TIP3    H237287   3.205   1.953  16.584  1.9234 -0.1863  0.5921
 5266TIP3   OH237288   2.999   5.998  11.173 -0.4196  0.3382 -0.4910
 5266TIP3    H137289   3.033   6.083  11.144  0.5884  0.3494  0.6978
 5266TIP3    H237290   3.035   5.935  11.111  2.3525  0.2691  1.1471
 5267TIP3   OH237291   3.835   1.965   6.150 -0.7314  0.0122 -0.1738
 5267TIP3    H137292   3.758   1.968   6.207 -0.6835  0.5305 -0.1263
 5267TIP3    H237293   3.845   1.873   6.127 -0.1232 -0.3713  1.5215
 5268TIP3   OH237294   5.052   1.995   1.624 -0.1549 -0.5892  0.3728
 5268TIP3    H137295   5.117   2.021   1.690 -0.7949  0.5864  0.5468
 5268TIP3    H237296   5.103   1.983   1.544  0.4996 -1.1736  0.8669
 5269TIP3   OH237297   4.295   4.641  16.464 -0.1683  0.4350 -0.0507
 5269TIP3    H137298   4.334   4.593  16.537  1.0883  0.0792 -0.9443
 5269TIP3    H237299   4.255   4.718  16.506  2.0277  1.1389  0.8347
 5270TIP3   OH237300   5.736   6.375  11.943  0.8045  0.1350 -0.5388
 5270TIP3    H137301   5.818   6.345  11.902  1.1861  0.9118 -0.3541
 5270TIP3    H237302   5.748   6.469  11.952  0.2500  0.1162  0.3190
 5271TIP3   OH237303   2.220   2.824  16.631  0.3471 -0.0080 -0.7592
 5271TIP3    H137304   2.190   2.753  16.687 -1.3933  0.9386 -0.4470
 5271TIP3    H237305   2.276   2.782  16.566  0.2974 -1.4824  0.1420
 5272TIP3   OH237306   4.075   3.615  16.287 -0.1999  0.1859  0.1086
 5272TIP3    H137307   4.073   3.521  16.304 -1.1297  0.5049  1.8335
 5272TIP3    H237308   4.007   3.652  16.344  0.1313  1.8959 -0.5630
 5273TIP3   OH237309   1.485   6.717  13.488 -0.2192  0.2516  0.2905
 5273TIP3    H137310   1.427   6.745  13.418 -2.0961  0.5081  1.9144
 5273TIP3    H237311   1.522   6.799  13.522 -0.2105  0.2084  0.3839
 5274TIP3   OH237312   3.942   3.423  12.868 -0.1555 -0.1161 -0.1322
 5274TIP3    H137313   3.910   3.441  12.780  1.3924 -2.5258 -1.2490
 5274TIP3    H237314   4.037   3.411  12.858  0.3059  1.2262  2.1494
 5275TIP3   OH237315   0.788   6.294   1.976 -0.4691 -0.1043  0.1185
 5275TIP3    H137316   0.848   6.224   1.950 -0.6262  0.4306 -1.7219
 5275TIP3    H237317   0.750   6.326   1.894 -0.6386  1.9406  0.9507
 5276TIP3   OH237318   2.509   3.944   2.418  0.1155 -0.0746 -0.1599
 5276TIP3    H137319   2.592   3.905   2.393 -0.6887 -1.4882 -0.6585
 5276TIP3    H237320   2.453   3.870   2.442 -1.6045  0.7145 -1.6053
 5277TIP3   OH237321   4.534   0.768  14.945 -0.5361  0.2639  0.1239
 5277TIP3    H137322   4.584   0.736  14.871 -0.7986  0.1025  0.0158
 5277TIP3    H237323   4.567   0.857  14.960  2.6842 -1.2417  2.6324
 5278TIP3   OH237324   1.212   4.911   1.142 -0.2541 -0.4364  0.5692
 5278TIP3    H137325   1.165   4.889   1.061 -1.3429  0.5701  0.9174
 5278TIP3    H237326   1.279   4.843   1.149 -1.2378 -1.5320 -0.2816
 5279TIP3   OH237327   6.650   2.043  15.907 -0.2583 -0.1095 -0.1436
 5279TIP3    H137328   6.630   2.012  15.996  0.5733  2.3524  0.9456
 5279TIP3    H237329   6.567   2.077  15.874 -0.8166 -1.9768 -0.7578
 5280TIP3   OH237330   3.764   0.140  11.928 -0.0144  0.3239 -0.4521
 5280TIP3    H137331   3.761   0.082  12.005  3.4784  1.5032  0.6810
 5280TIP3    H237332   3.830   0.100  11.871  0.5762  1.7999 -0.8264
 5281TIP3   OH237333   3.711   3.471   1.710  0.0226 -0.2637  0.5440
 5281TIP3    H137334   3.684   3.432   1.627 -0.3981  0.2650  0.4273
 5281TIP3    H237335   3.709   3.398   1.772 -1.9734 -0.1833  0.6012
 5282TIP3   OH237336   0.325   3.593   1.275  0.1230  0.4033  0.5145
 5282TIP3    H137337   0.257   3.530   1.250  0.5500  0.3211 -0.4901
 5282TIP3    H237338   0.345   3.639   1.193  1.0071  0.6837  0.8842
 5283TIP3   OH237339   2.879   5.165  12.962  0.3983 -0.2136  0.0663
 5283TIP3    H137340   2.955   5.111  12.941  1.9410  1.7346  0.4771
 5283TIP3    H237341   2.804   5.112  12.936  1.9665 -1.2129 -2.5903
 5284TIP3   OH237342   2.334   1.839   4.442  0.2117  0.0117 -0.3793
 5284TIP3    H137343   2.247   1.842   4.482 -0.4567  1.0829 -1.8628
 5284TIP3    H237344   2.382   1.911   4.484  0.0282  0.1182 -0.3504
 5285TIP3   OH237345   5.129   3.474   4.488  0.0094  0.1610  0.2248
 5285TIP3    H137346   5.055   3.490   4.546 -0.2783  2.2861 -0.6721
 5285TIP3    H237347   5.150   3.382   4.500 -2.4228 -0.3399  0.9179
 5286TIP3   OH237348   0.046   6.480   1.341  0.3274 -0.3285 -0.0872
 5286TIP3    H137349   0.127   6.430   1.351 -0.2128 -0.9747  1.1515
 5286TIP3    H237350   0.019   6.464   1.251  1.8833  0.3716 -0.6961
 5287TIP3   OH237351   2.964   6.439  16.134 -0.1700  0.4345 -0.1492
 5287TIP3    H137352   3.005   6.441  16.221  2.0235  1.0218 -1.1728
 5287TIP3    H237353   2.910   6.517  16.131 -1.0092 -0.0842  1.0405
 5288TIP3   OH237354   1.144   6.057  11.059 -0.3731  0.1445 -0.0423
 5288TIP3    H137355   1.054   6.067  11.026 -0.4960 -0.2116  0.1835
 5288TIP3    H237356   1.189   6.009  10.990 -0.1687  0.9488 -0.4729
 5289TIP3   OH237357   5.605   6.439   1.048 -0.4217 -0.4084  0.0584
 5289TIP3    H137358   5.525   6.400   1.085 -1.4409  0.8248 -0.8033
 5289TIP3    H237359   5.676   6.399   1.098 -1.6967  0.1076  2.3446
 5290TIP3   OH237360   3.260   3.964   0.346  0.0557 -0.0030  0.3301
 5290TIP3    H137361   3.195   3.895   0.361  1.4127 -1.7041 -1.2243
 5290TIP3    H237362   3.334   3.939   0.402  0.1054  0.8201  0.6244
 5291TIP3   OH237363   0.940   1.540  12.128  0.5804 -0.1006 -0.4958
 5291TIP3    H137364   0.851   1.536  12.163  1.3176 -0.3691  1.4204
 5291TIP3    H237365   0.939   1.481  12.053 -0.8667 -0.0615 -0.5290
 5292TIP3   OH237366   4.108   0.724   0.860  0.1099  0.8322 -0.2374
 5292TIP3    H137367   4.134   0.666   0.931  0.1860  2.0944  0.7828
 5292TIP3    H237368   4.014   0.738   0.874 -0.0285  0.4848 -0.8219
 5293TIP3   OH237369   5.436   4.218  11.853  0.2255 -0.1519  0.2374
 5293TIP3    H137370   5.352   4.203  11.810 -0.4687  0.2222  1.4162
 5293TIP3    H237371   5.433   4.311  11.879  1.1657 -0.0337 -0.0622
 5294TIP3   OH237372   0.279   2.826   4.916  0.5707 -0.3362  1.1800
 5294TIP3    H137373   0.338   2.898   4.894  0.3893 -0.4743  0.1786
 5294TIP3    H237374   0.233   2.856   4.995 -0.6513  1.3682 -0.1117
 5295TIP3   OH237375   0.516   0.657   6.121 -0.3607  0.0312 -0.1061
 5295TIP3    H137376   0.576   0.655   6.195  0.1992 -1.3735 -0.5683
 5295TIP3    H237377   0.573   0.662   6.044 -0.9076  0.7320 -0.4673
 5296TIP3   OH237378   2.279   4.935  17.250 -0.0841 -0.0559 -0.0222
 5296TIP3    H137379   2.287   4.967  17.160 -1.0200 -0.5701 -0.2989
 5296TIP3    H237380   2.368   4.938  17.285  0.7314 -2.1156 -1.7535
 5297TIP3   OH237381   1.779   0.114  12.039 -0.7351 -0.3778  0.7679
 5297TIP3    H137382   1.692   0.082  12.019 -1.1535  2.2351 -1.9803
 5297TIP3    H237383   1.773   0.147  12.129 -2.7891  0.3630  0.3834
 5298TIP3   OH237384   2.702   2.357  13.122 -0.3553  0.7368 -0.0089
 5298TIP3    H137385   2.786   2.336  13.164 -0.4108 -0.1244 -0.3144
 5298TIP3    H237386   2.638   2.302  13.167 -0.5444  0.4214 -0.6500
 5299TIP3   OH237387   1.004   1.815   0.135  0.5848  0.7031 -0.6494
 5299TIP3    H137388   1.078   1.775   0.182  1.0812  1.1511 -1.0391
 5299TIP3    H237389   1.044   1.852   0.057 -0.1038  0.7215 -0.9909
 5300TIP3   OH237390   5.988   6.326   4.314  0.1443 -0.0993 -0.1740
 5300TIP3    H137391   6.049   6.297   4.382  0.5069  0.7824 -0.1216
 5300TIP3    H237392   5.948   6.405   4.350 -0.3165 -0.1262 -0.6187
 5301TIP3   OH237393   5.711   5.121   0.897  0.0750  0.6626 -0.0557
 5301TIP3    H137394   5.637   5.073   0.933 -0.7373  1.7783 -0.1968
 5301TIP3    H237395   5.782   5.057   0.891 -0.9085 -0.4348  0.0007
 5302TIP3   OH237396   3.113   2.117  15.279  0.3521 -0.5395  0.0052
 5302TIP3    H137397   3.172   2.162  15.218 -0.1259  0.1888  0.0756
 5302TIP3    H237398   3.152   2.132  15.366  0.1117 -0.1355  0.0424
 5303TIP3   OH237399   3.112   4.491  15.553  0.0407  0.0084 -0.6512
 5303TIP3    H137400   3.140   4.544  15.627  1.1849  0.9706 -1.7573
 5303TIP3    H237401   3.041   4.437  15.588 -0.6712  1.7504  0.6871
 5304TIP3   OH237402   4.549   5.862   3.757 -0.2089 -0.2977 -0.4390
 5304TIP3    H137403   4.486   5.840   3.688 -0.6838  3.9165 -1.5093
 5304TIP3    H237404   4.496   5.869   3.836 -0.4341 -0.6158 -0.5610
 5305TIP3   OH237405   3.824   6.699  13.181  0.0927  0.1823 -0.1794
 5305TIP3    H137406   3.757   6.719  13.247 -0.9660 -0.7403 -0.9583
 5305TIP3    H237407   3.780   6.639  13.120  1.7792 -0.8173 -0.4295
 5306TIP3   OH237408   4.300   4.455  11.464  0.0002  0.2997  0.2132
 5306TIP3    H137409   4.326   4.370  11.430 -1.2297 -0.2356  0.6132
 5306TIP3    H237410   4.239   4.490  11.399  0.5113  0.8881  0.0428
 5307TIP3   OH237411   1.522   0.996  13.908  0.0145  0.6989  0.1132
 5307TIP3    H137412   1.556   0.967  13.823 -0.2887 -0.7589  0.4757
 5307TIP3    H237413   1.503   0.915  13.955 -0.7504  1.4993  1.2059
 5308TIP3   OH237414   2.525   4.621  15.751 -0.4352  0.1067  0.2642
 5308TIP3    H137415   2.532   4.677  15.674  1.5757  0.3827  0.6288
 5308TIP3    H237416   2.451   4.563  15.732  0.1600  0.0403 -1.9449
 5309TIP3   OH237417   1.421   3.421  16.264 -0.4942 -0.1827  0.5778
 5309TIP3    H137418   1.446   3.439  16.173  0.6994  0.2679  0.9898
 5309TIP3    H237419   1.469   3.341  16.286  1.3707  1.1990  1.6705
 5310TIP3   OH237420   4.745   4.593  16.384 -0.8467  0.4322 -0.0524
 5310TIP3    H137421   4.777   4.513  16.343  0.0508 -0.2987  2.0197
 5310TIP3    H237422   4.824   4.644  16.402 -1.2703  0.9709  0.2928
 5311TIP3   OH237423   5.991   0.859  15.491  0.0929  0.2044 -0.4705
 5311TIP3    H137424   5.948   0.892  15.570  0.8590 -1.0248  0.4937
 5311TIP3    H237425   5.960   0.916  15.421 -1.0730  0.9417  0.6178
 5312TIP3   OH237426   6.742   2.365  16.958 -0.3521  0.4340 -0.5318
 5312TIP3    H137427   6.672   2.382  16.895  0.7192  1.8976 -1.3522
 5312TIP3    H237428   6.817   2.340  16.904  0.5014  1.4581  0.1768
 5313TIP3   OH237429   0.743   2.963   5.370  0.1197  0.7942 -0.4489
 5313TIP3    H137430   0.781   3.014   5.299 -0.7062  0.9945 -0.7531
 5313TIP3    H237431   0.648   2.973   5.359 -0.0351 -0.2288 -0.0873
 5314TIP3   OH237432   0.136   1.386   4.299 -0.1511 -0.0646 -0.2120
 5314TIP3    H137433   0.188   1.339   4.364 -1.3344  1.9494  2.2519
 5314TIP3    H237434   0.064   1.326   4.279  0.4627 -0.8802 -0.0353
 5315TIP3   OH237435   6.339   1.222  13.921  0.4599  0.0797  0.0854
 5315TIP3    H137436   6.429   1.219  13.953  0.6073 -0.7913 -0.3887
 5315TIP3    H237437   6.328   1.140  13.873 -1.5922 -1.2966  2.7866
 5316TIP3   OH237438   2.119   3.154  11.754 -0.2319  0.0043 -0.3010
 5316TIP3    H137439   2.160   3.237  11.779  0.8229  0.1636 -2.4073
 5316TIP3    H237440   2.025   3.171  11.756 -0.0330  1.0774 -0.1108
 5317TIP3   OH237441   6.676   4.894  15.863  0.3083 -0.0221 -0.3017
 5317TIP3    H137442   6.754   4.943  15.840  2.9941 -3.4830  0.9988
 5317TIP3    H237443   6.667   4.907  15.958 -1.0174  0.7436 -0.5159
 5318TIP3   OH237444   5.289   6.405  15.168 -0.2255  0.5148  0.4030
 5318TIP3    H137445   5.340   6.484  15.185 -0.0960  1.0022 -2.0678
 5318TIP3    H237446   5.343   6.354  15.108 -0.6891 -1.0819  1.2991
 5319TIP3   OH237447   0.882   3.328  13.754 -0.0114  0.9103 -0.0439
 5319TIP3    H137448   0.809   3.319  13.815 -0.5148 -0.1276 -0.7766
 5319TIP3    H237449   0.855   3.279  13.676  2.0722 -0.8190  0.2422
 5320TIP3   OH237450   6.411   6.193   2.210 -0.2847  0.1181 -0.0839
 5320TIP3    H137451   6.330   6.153   2.178  0.0667 -1.2592  0.7080
 5320TIP3    H237452   6.445   6.241   2.135 -0.5116 -1.3928 -1.1776
 5321TIP3   OH237453   1.634   3.244   1.404 -0.7032 -0.3418 -0.0318
 5321TIP3    H137454   1.587   3.285   1.476 -1.2102 -0.5983 -0.2110
 5321TIP3    H237455   1.703   3.306   1.381 -1.6482  0.5499 -0.4928
 5322TIP3   OH237456   3.606   5.776  11.130 -0.3459  0.0836 -0.0014
 5322TIP3    H137457   3.513   5.792  11.110 -0.2455  1.1889  0.3579
 5322TIP3    H237458   3.630   5.847  11.189  0.9813  0.3372 -0.8202
 5323TIP3   OH237459   0.328   4.240  11.802  0.3655  0.1009  0.9666
 5323TIP3    H137460   0.318   4.333  11.818 -0.8614  0.2652 -0.5877
 5323TIP3    H237461   0.309   4.199  11.886  0.6186  1.2328  1.5785
 5324TIP3   OH237462   2.961   5.149  14.996  0.0761  0.7147 -0.2523
 5324TIP3    H137463   2.984   5.238  15.022  0.4064  0.7010 -0.4948
 5324TIP3    H237464   2.996   5.140  14.907 -1.2123  0.8231 -0.7706
 5325TIP3   OH237465   6.098   2.924  11.133 -0.0616 -0.0118 -0.3435
 5325TIP3    H137466   6.034   2.931  11.204 -1.0956  1.1294 -1.3629
 5325TIP3    H237467   6.125   2.832  11.134 -0.8201 -0.2326  0.8676
 5326TIP3   OH237468   2.539   1.423  17.269 -0.1893 -0.3690  0.1301
 5326TIP3    H137469   2.549   1.422  17.173  0.5146  0.6823  0.1770
 5326TIP3    H237470   2.589   1.347  17.299 -1.8347 -1.6917 -0.4501
 5327TIP3   OH237471   4.007   5.693  14.229 -0.4187  0.2469 -0.6910
 5327TIP3    H137472   3.978   5.784  14.226 -1.6008 -0.1367 -1.0354
 5327TIP3    H237473   3.935   5.643  14.191 -0.5524 -1.0222  1.1166
 5328TIP3   OH237474   1.204   1.647   0.203 -0.0061 -0.2459 -0.2980
 5328TIP3    H137475   1.277   1.702   0.176  0.5764 -0.5041  0.7121
 5328TIP3    H237476   1.235   1.604   0.283 -0.6034 -1.6961 -0.8244
 5329TIP3   OH237477   1.881   2.189   0.068 -0.0386  0.6329 -0.0252
 5329TIP3    H137478   1.816   2.218   0.003 -0.3176  1.4594  0.6114
 5329TIP3    H237479   1.857   2.236   0.148 -0.8145 -1.7380  1.1982
 5330TIP3   OH237480   3.376   3.477   1.827 -0.3362  0.0582 -0.1818
 5330TIP3    H137481   3.342   3.504   1.742 -0.9182 -0.1190 -0.0073
 5330TIP3    H237482   3.416   3.555   1.864 -1.2423  0.4604 -0.0518
 5331TIP3   OH237483   1.346   6.072  14.138 -0.1050  0.0873 -0.3064
 5331TIP3    H137484   1.351   6.146  14.077 -0.1421 -0.0398 -0.4643
 5331TIP3    H237485   1.385   5.999  14.090  1.1890  0.3291  0.3599
 5332TIP3   OH237486   4.424   6.383   3.552 -0.9875 -0.1252  0.3002
 5332TIP3    H137487   4.426   6.361   3.459 -1.5898 -1.1436  0.5274
 5332TIP3    H237488   4.442   6.301   3.597 -1.0589  0.2910  1.0987
 5333TIP3   OH237489   1.234   3.112  12.314  0.7232  0.5252  0.0777
 5333TIP3    H137490   1.200   3.080  12.231 -1.4198  0.3213  1.0111
 5333TIP3    H237491   1.158   3.148  12.360  1.7581  0.1427  2.1891
 5334TIP3   OH237492   0.495   0.827  17.197 -0.0015  0.2563 -0.4559
 5334TIP3    H137493   0.425   0.790  17.142 -0.2787  0.7777 -0.4589
 5334TIP3    H237494   0.515   0.912  17.157  0.0632  0.4692  0.0194
 5335TIP3   OH237495   6.763   6.644  16.215  0.5246 -0.1523  0.2811
 5335TIP3    H137496   6.808   6.703  16.276 -0.1599  1.9838 -1.2453
 5335TIP3    H237497   6.834   6.599  16.170  1.1294  1.6127 -0.5677
 5336TIP3   OH237498   3.172   3.722  16.724  0.0138  0.4034  0.0390
 5336TIP3    H137499   3.099   3.708  16.663 -0.0398  0.3749  0.1071
 5336TIP3    H237500   3.157   3.658  16.794 -0.2006  0.7654  0.3284
 5337TIP3   OH237501   5.964   4.080  15.240 -0.3130 -0.4852  0.0263
 5337TIP3    H137502   5.919   3.995  15.233  1.0413 -1.2355  0.2592
 5337TIP3    H237503   6.004   4.078  15.327 -1.4763  1.0076  0.6157
 5338TIP3   OH237504   3.533   3.785   5.340  0.7494  0.2974 -0.4494
 5338TIP3    H137505   3.515   3.875   5.313 -1.5047  0.7077  2.2209
 5338TIP3    H237506   3.627   3.784   5.359  1.0528  1.7227 -1.7377
 5339TIP3   OH237507   1.270   3.432   4.021  0.1153  0.3018 -0.3556
 5339TIP3    H137508   1.303   3.413   4.109  1.1117  2.7425 -0.1598
 5339TIP3    H237509   1.264   3.346   3.978 -0.3585 -0.9066  2.0694
 5340TIP3   OH237510   2.006   6.678  11.812  0.6659  0.0656 -0.3012
 5340TIP3    H137511   2.074   6.705  11.751  1.4394 -0.7032  0.1987
 5340TIP3    H237512   2.029   6.721  11.895  0.6760 -0.3753 -0.0712
 5341TIP3   OH237513   0.118   1.562  15.214  0.3523  0.0040 -0.3485
 5341TIP3    H137514   0.063   1.486  15.233 -2.3780  2.0580  0.4439
 5341TIP3    H237515   0.200   1.545  15.261 -0.1369 -2.4842 -0.3069
 5342TIP3   OH237516   6.003   1.024   6.621 -0.0475 -0.5489  0.2085
 5342TIP3    H137517   6.083   0.971   6.625  0.7053  0.6105  0.7924
 5342TIP3    H237518   6.028   1.108   6.660 -1.2575  0.1889 -0.5756
 5343TIP3   OH237519   4.000   2.489   0.223 -0.6016  0.5526  0.3307
 5343TIP3    H137520   4.047   2.484   0.307 -0.6399  0.6040  0.3554
 5343TIP3    H237521   4.043   2.560   0.176 -0.5072  0.4503  0.2610
 5344TIP3   OH237522   4.161   4.874   4.599  0.0715 -0.1156 -0.0501
 5344TIP3    H137523   4.230   4.895   4.537 -0.3051 -0.1821 -0.4887
 5344TIP3    H237524   4.204   4.880   4.685  0.3896  0.7705 -0.2624
 5345TIP3   OH237525   2.046   2.443  13.304  0.4612  0.1144 -0.2775
 5345TIP3    H137526   2.128   2.436  13.352 -0.2223  0.2569  0.9358
 5345TIP3    H237527   1.979   2.448  13.372 -0.5027  0.5867 -1.2468
 5346TIP3   OH237528   3.779   4.570   2.739 -0.1882 -0.5486 -0.5752
 5346TIP3    H137529   3.757   4.643   2.681  0.5214 -0.1120 -0.3099
 5346TIP3    H237530   3.702   4.514   2.738 -0.5189 -0.0850 -1.2380
 5347TIP3   OH237531   2.612   1.776   6.027  0.4135  0.2982 -0.0866
 5347TIP3    H137532   2.674   1.818   6.087 -0.1199 -1.0508  1.4693
 5347TIP3    H237533   2.666   1.740   5.958  0.9236  3.0454 -1.1694
 5348TIP3   OH237534   1.607   2.363  10.963 -0.4725 -0.5052  0.1179
 5348TIP3    H137535   1.585   2.416  10.886  1.3068 -0.7931 -0.6320
 5348TIP3    H237536   1.658   2.422  11.019 -0.2286 -0.8100  0.2235
 5349TIP3   OH237537   4.485   2.249   1.687  0.1031  0.2887 -0.1622
 5349TIP3    H137538   4.545   2.271   1.615  1.3224 -2.2303  0.0380
 5349TIP3    H237539   4.531   2.279   1.766  0.1970  0.2039 -0.1837
 5350TIP3   OH237540   2.298   4.999  11.040 -0.2916 -0.1242 -0.5378
 5350TIP3    H137541   2.380   5.005  10.991 -0.2094 -0.4750 -0.4399
 5350TIP3    H237542   2.290   4.907  11.063  0.3795  0.2543  1.3351
 5351TIP3   OH237543   0.509   2.219  15.630  0.1136  0.0860  0.5862
 5351TIP3    H137544   0.424   2.247  15.597  0.5474  0.3757 -0.3032
 5351TIP3    H237545   0.502   2.123  15.635  0.5291 -0.1043 -1.7857
 5352TIP3   OH237546   3.787   5.388  14.841 -0.2882 -0.0309  0.4729
 5352TIP3    H137547   3.871   5.360  14.806  0.5247  0.0968  2.2728
 5352TIP3    H237548   3.728   5.314  14.825  0.6440 -0.8664  0.8949
 5353TIP3   OH237549   0.387   3.280  10.695  0.1349  0.0336  0.0908
 5353TIP3    H137550   0.440   3.359  10.691  1.9665 -1.1705  0.2477
 5353TIP3    H237551   0.439   3.213  10.652  0.4962 -2.1370  3.6615
 5354TIP3   OH237552   1.186   1.561  11.749  0.4110  0.1084  0.5588
 5354TIP3    H137553   1.125   1.634  11.759  1.2493  0.6957  1.5781
 5354TIP3    H237554   1.215   1.565  11.658  0.4810  1.0764  0.6210
 5355TIP3   OH237555   6.795   4.981  10.219 -0.1269 -0.2689  0.0015
 5355TIP3    H137556   6.878   4.992  10.172 -0.2235 -0.9750 -0.3430
 5355TIP3    H237557   6.813   4.909  10.281  1.0964  2.8811  3.5202
 5356TIP3   OH237558   1.180   6.403  12.601  0.3258 -0.0954 -0.6936
 5356TIP3    H137559   1.092   6.439  12.614 -0.4726 -1.8261 -1.1377
 5356TIP3    H237560   1.238   6.478  12.611 -1.2513  1.2259 -1.1637
 5357TIP3   OH237561   3.900   2.136  12.617  0.0760 -0.0379 -0.4079
 5357TIP3    H137562   3.946   2.183  12.687  0.8684  0.0536 -0.9799
 5357TIP3    H237563   3.942   2.166  12.537 -0.3132 -0.7227 -0.8741
 5358TIP3   OH237564   6.718   1.844   0.340  0.1139 -0.0802  0.1526
 5358TIP3    H137565   6.714   1.866   0.247 -1.0786 -1.3740 -0.1228
 5358TIP3    H237566   6.631   1.867   0.374 -0.0536 -1.2688  0.5580
 5359TIP3   OH237567   4.188   2.556  14.209  0.2453  0.1365 -0.0566
 5359TIP3    H137568   4.108   2.542  14.159  0.5934 -0.2313 -0.5074
 5359TIP3    H237569   4.258   2.525  14.153  0.7322  0.6601  0.2522
 5360TIP3   OH237570   6.232   5.048  12.215  0.4927  0.3214  0.8959
 5360TIP3    H137571   6.295   4.980  12.191 -0.2900 -0.5500  1.2632
 5360TIP3    H237572   6.236   5.111  12.143 -0.8665 -1.5902 -0.9322
 5361TIP3   OH237573   6.567   0.580   6.027 -0.1603 -0.0319  0.7105
 5361TIP3    H137574   6.652   0.615   6.052  0.0419 -0.1913  0.2524
 5361TIP3    H237575   6.508   0.654   6.033 -0.0609 -0.0057  1.3840
 5362TIP3   OH237576   3.997   0.460  16.410  0.4551  0.2055  0.0215
 5362TIP3    H137577   3.945   0.540  16.415  0.5485  0.4930 -3.1392
 5362TIP3    H237578   3.948   0.403  16.351  0.8244 -1.8004  1.5749
 5363TIP3   OH237579   3.811   6.605  16.224 -0.9333  0.3705 -0.0891
 5363TIP3    H137580   3.861   6.631  16.146  0.1858  1.1427  0.8515
 5363TIP3    H237581   3.735   6.663  16.224  0.6626  2.5534  1.0485
 5364TIP3   OH237582   0.355   5.870  10.246 -0.3948  0.2585 -0.1845
 5364TIP3    H137583   0.264   5.866  10.216 -0.3665 -1.6853 -0.0749
 5364TIP3    H237584   0.380   5.778  10.259  1.5554  0.7757 -0.1273
 5365TIP3   OH237585   0.389   1.309   0.246 -0.1509 -0.1512 -0.1625
 5365TIP3    H137586   0.411   1.364   0.321  3.6008 -2.2903  0.4311
 5365TIP3    H237587   0.343   1.234   0.283 -2.1230  0.8241 -0.5635
 5366TIP3   OH237588   3.986   1.325  11.652  0.5803  0.1756  0.0889
 5366TIP3    H137589   3.993   1.394  11.586  2.6997 -0.9223 -0.9083
 5366TIP3    H237590   3.915   1.268  11.621 -2.9554  3.2183  2.2471
 5367TIP3   OH237591   0.089   6.746   3.000 -0.3290 -0.2967  0.1001
 5367TIP3    H137592   0.085   6.692   2.921 -0.6327 -1.3761  0.8404
 5367TIP3    H237593   0.107   6.834   2.968  0.3233 -0.8550 -1.1261
 5368TIP3   OH237594   5.261   3.692  14.631 -0.3315 -0.1489 -0.4130
 5368TIP3    H137595   5.353   3.701  14.606 -0.4304 -0.3344 -0.8455
 5368TIP3    H237596   5.249   3.598  14.645 -0.5811 -0.1759 -0.8286
 5369TIP3   OH237597   3.438   1.693  14.015  0.6097 -0.2736  0.4156
 5369TIP3    H137598   3.493   1.771  14.003  1.6758 -0.5791  3.1117
 5369TIP3    H237599   3.487   1.622  13.973  0.5910  0.0983 -0.2507
 5370TIP3   OH237600   5.889   2.571  10.778  0.3345 -0.6146  0.4589
 5370TIP3    H137601   5.974   2.600  10.744  0.6357 -0.8615  0.9922
 5370TIP3    H237602   5.845   2.531  10.702  0.0982  0.8145 -0.1700
 5371TIP3   OH237603   4.866   3.542  16.012  0.1206 -0.2875  0.2851
 5371TIP3    H137604   4.788   3.550  16.067 -0.3676 -0.9439 -0.2958
 5371TIP3    H237605   4.908   3.461  16.040  0.9455  0.3900  1.0251
 5372TIP3   OH237606   5.765   4.733  15.893  0.3020 -0.1960 -0.3027
 5372TIP3    H137607   5.711   4.801  15.853  0.4266 -0.2643 -0.5871
 5372TIP3    H237608   5.815   4.779  15.961 -1.3206 -0.4361  1.0806
 5373TIP3   OH237609   6.762   1.540  13.697 -0.0952  0.1063 -0.4560
 5373TIP3    H137610   6.785   1.447  13.693 -2.5599 -0.5474 -0.7426
 5373TIP3    H237611   6.695   1.550  13.629  1.1578  2.4277 -1.3884
 5374TIP3   OH237612   3.907   5.036   4.106 -0.2599 -0.0248 -0.7063
 5374TIP3    H137613   3.946   4.957   4.069 -0.9281 -0.3227 -0.7659
 5374TIP3    H237614   3.887   5.012   4.197 -1.7104 -0.3612 -1.1012
 5375TIP3   OH237615   3.489   5.127   4.321 -0.5246 -0.0963  0.1839
 5375TIP3    H137616   3.532   5.042   4.323  0.4624  0.3629 -0.8074
 5375TIP3    H237617   3.534   5.174   4.251 -1.0916  1.2258  0.7059
 5376TIP3   OH237618   4.254   3.582   6.613 -0.4130  0.6197  0.2810
 5376TIP3    H137619   4.289   3.500   6.580 -2.4123 -0.2121  0.1596
 5376TIP3    H237620   4.264   3.644   6.540  0.9383  0.4579  0.3190
 5377TIP3   OH237621   6.456   2.915  11.202 -0.2507 -0.3956 -0.4900
 5377TIP3    H137622   6.458   2.821  11.189  1.0710 -0.5591  0.7455
 5377TIP3    H237623   6.540   2.946  11.169 -0.5834  0.3333 -0.6850
 5378TIP3   OH237624   5.115   5.515   2.105 -0.2250 -0.3821 -0.1697
 5378TIP3    H137625   5.059   5.442   2.080  2.0784 -1.9379 -0.8817
 5378TIP3    H237626   5.098   5.582   2.038 -0.1999 -1.3795 -1.1863
 5379TIP3   OH237627   0.979   3.253  14.004 -0.3477 -1.0404  0.0139
 5379TIP3    H137628   0.950   3.304  13.928 -0.5155 -1.3042 -0.0990
 5379TIP3    H237629   1.072   3.237  13.988 -0.4515 -1.3481 -0.2804
 5380TIP3   OH237630   3.748   0.293   3.378  0.1684  0.6199  0.0675
 5380TIP3    H137631   3.768   0.319   3.468  0.9686  1.1853 -0.2568
 5380TIP3    H237632   3.668   0.340   3.357  0.9192  1.8628 -0.0823
 5381TIP3   OH237633   5.729   3.037  17.146 -0.0272 -0.1371  0.6260
 5381TIP3    H137634   5.777   2.955  17.156 -3.2814 -2.1262  0.8023
 5381TIP3    H237635   5.721   3.050  17.052  1.0485  0.3576  0.5920
 5382TIP3   OH237636   5.985   0.254   4.508 -1.0147 -0.9285 -0.0438
 5382TIP3    H137637   5.952   0.204   4.583  0.2375 -0.5390  0.7848
 5382TIP3    H237638   6.079   0.261   4.524 -0.9300  0.2622 -1.0159
 5383TIP3   OH237639   4.197   4.432  12.777 -0.2442  0.7115 -0.2747
 5383TIP3    H137640   4.262   4.362  12.780 -0.9050  0.0921 -0.2390
 5383TIP3    H237641   4.209   4.472  12.691  1.2429  1.6332  0.3463
 5384TIP3   OH237642   1.611   3.924  10.883 -0.7108  0.2818  0.4569
 5384TIP3    H137643   1.678   3.978  10.842 -0.0489  0.6880  2.0291
 5384TIP3    H237644   1.623   3.837  10.844  0.6107  0.3952  0.5906
 5385TIP3   OH237645   5.017   5.666  12.002  0.3290 -0.1602 -0.6193
 5385TIP3    H137646   5.101   5.657  12.046  0.0096 -0.7251 -0.1236
 5385TIP3    H237647   4.996   5.759  12.009  0.9683  0.0041 -0.8532
 5386TIP3   OH237648   2.735   6.083   5.413 -0.8186 -0.1771 -0.1221
 5386TIP3    H137649   2.812   6.127   5.377 -0.5408 -1.5060 -1.1926
 5386TIP3    H237650   2.675   6.155   5.435 -0.3555  0.7501 -1.7807
 5387TIP3   OH237651   1.721   3.804   4.341 -0.2548 -0.4864  0.2423
 5387TIP3    H137652   1.660   3.872   4.369 -0.8289 -0.9242  0.0890
 5387TIP3    H237653   1.665   3.727   4.329  0.3163 -0.8576 -0.0236
 5388TIP3   OH237654   0.799   5.667  12.469  0.2918 -0.5916  0.1574
 5388TIP3    H137655   0.846   5.739  12.511 -1.3110  0.7445 -0.2533
 5388TIP3    H237656   0.856   5.591  12.480  1.8986  0.6768  0.8477
 5389TIP3   OH237657   4.155   1.274  16.377 -0.0451 -0.0582 -0.2757
 5389TIP3    H137658   4.207   1.341  16.422  0.1302  0.3427 -1.0555
 5389TIP3    H237659   4.214   1.241  16.309  0.0829 -1.4441  0.5033
 5390TIP3   OH237660   6.306   5.577  10.870  0.3498  0.1700  0.0536
 5390TIP3    H137661   6.322   5.610  10.782 -0.6554  3.1478  0.9388
 5390TIP3    H237662   6.231   5.518  10.860 -0.2519  1.0919 -0.9618
 5391TIP3   OH237663   4.602   2.933   1.812 -0.3402  0.4369  0.1238
 5391TIP3    H137664   4.533   2.999   1.798 -0.0056  0.9426  0.8122
 5391TIP3    H237665   4.657   2.971   1.881 -0.2245 -0.6239  0.6288
 5392TIP3   OH237666   4.951   5.320  16.705  0.0298 -0.0293  0.0785
 5392TIP3    H137667   4.963   5.245  16.647 -0.9912 -0.3836  0.3177
 5392TIP3    H237668   4.973   5.396  16.650 -1.7426 -0.2903 -1.0523
 5393TIP3   OH237669   4.037   2.261  14.119  0.3234 -0.4306  0.9121
 5393TIP3    H137670   3.991   2.334  14.079  1.8043 -1.0221 -2.0011
 5393TIP3    H237671   3.974   2.226  14.183 -2.7501 -0.3500 -1.9062
 5394TIP3   OH237672   4.313   1.459   0.822  0.3161 -0.2324  0.1821
 5394TIP3    H137673   4.402   1.433   0.849  0.5032  1.2911  1.0995
 5394TIP3    H237674   4.310   1.440   0.729  1.8699  0.3759 -0.0071
 5395TIP3   OH237675   5.946   1.946  12.206  0.1990 -0.5003 -0.6071
 5395TIP3    H137676   6.019   1.887  12.194 -0.2491 -1.3840  0.9440
 5395TIP3    H237677   5.905   1.951  12.119  0.7599 -1.7470 -0.9511
 5396TIP3   OH237678   3.346   2.241  13.595 -0.3814 -0.4173 -0.0037
 5396TIP3    H137679   3.432   2.199  13.605  0.3172  0.8347 -0.7175
 5396TIP3    H237680   3.358   2.329  13.630 -1.0632  0.1514 -1.1991
 5397TIP3   OH237681   3.335   5.913   5.477  0.8445 -0.5033 -0.4936
 5397TIP3    H137682   3.313   5.839   5.534 -0.1870  0.0309 -0.1918
 5397TIP3    H237683   3.259   5.970   5.482  1.9606  0.9601 -0.1025
 5398TIP3   OH237684   1.946   5.835  13.233 -0.6511 -0.4802  0.4700
 5398TIP3    H137685   1.999   5.877  13.301 -0.3680 -0.3576  0.1714
 5398TIP3    H237686   1.892   5.905  13.197  0.3214 -0.2197 -0.5077
 5399TIP3   OH237687   6.338   3.459   6.151  1.0028 -0.0361 -0.1953
 5399TIP3    H137688   6.259   3.498   6.188  0.9326 -0.8821  0.5766
 5399TIP3    H237689   6.328   3.365   6.166  2.4255 -0.1060  0.4842
 5400TIP3   OH237690   1.094   0.389   2.112  0.1593  0.1701 -0.0047
 5400TIP3    H137691   1.156   0.457   2.136  0.3577 -0.1847  0.5023
 5400TIP3    H237692   1.103   0.380   2.017  0.3288  0.6545 -0.0332
 5401TIP3   OH237693   3.567   6.712  14.904  0.3904 -0.1630  0.0520
 5401TIP3    H137694   3.658   6.739  14.893 -0.7481  3.4979 -1.2235
 5401TIP3    H237695   3.557   6.698  14.998  1.4338  2.7655  0.6411
 5402TIP3   OH237696   5.726   3.284  13.068  0.4992  0.4154  0.2263
 5402TIP3    H137697   5.735   3.189  13.059 -0.6413  0.3582 -0.3913
 5402TIP3    H237698   5.774   3.320  12.993 -1.7098  0.2166 -1.3075
 5403TIP3   OH237699   1.678   5.888   3.529 -0.4424 -0.1356 -0.0651
 5403TIP3    H137700   1.650   5.833   3.602  0.8771  1.2901  1.5567
 5403TIP3    H237701   1.773   5.888   3.534 -0.3629  0.4340 -1.4501
 5404TIP3   OH237702   6.315   0.000  16.530  0.3176 -0.0650 -0.2898
 5404TIP3    H137703   6.255   0.060  16.485 -0.3337  0.0031  0.6554
 5404TIP3    H237704   6.259  -0.072  16.558  0.8559 -0.4645 -0.2490
 5405TIP3   OH237705   6.329   1.245  13.420 -1.1403  0.2084  0.1959
 5405TIP3    H137706   6.424   1.233  13.426 -1.0705  0.6149 -0.0627
 5405TIP3    H237707   6.299   1.170  13.368 -0.7646  0.8669 -0.9945
 5406TIP3   OH237708   4.180   4.564   4.725  0.1086 -0.0903  0.3831
 5406TIP3    H137709   4.234   4.574   4.646 -0.4720  1.2108  0.1394
 5406TIP3    H237710   4.221   4.623   4.789  0.9097 -1.5562  1.2509
 5407TIP3   OH237711   3.738   4.563   3.035 -0.7989 -0.0252 -0.7163
 5407TIP3    H137712   3.803   4.629   3.060 -0.5274 -0.3649 -0.5269
 5407TIP3    H237713   3.752   4.549   2.941 -0.9297  0.2664 -0.7799
 5408TIP3   OH237714   1.732   6.348  15.709 -0.3488 -0.2018  0.1276
 5408TIP3    H137715   1.824   6.369  15.699 -0.3295 -0.0907  0.5271
 5408TIP3    H237716   1.722   6.262  15.668 -0.3547  0.4146 -1.1924
 5409TIP3   OH237717   5.066   1.943  13.607 -0.0146 -0.5764 -0.4664
 5409TIP3    H137718   4.980   1.985  13.601 -0.6013 -1.6038  0.4969
 5409TIP3    H237719   5.085   1.915  13.518  0.5254  1.9590 -1.1991
 5410TIP3   OH237720   2.935   6.469   1.581 -0.2585 -0.2935 -0.8649
 5410TIP3    H137721   2.886   6.523   1.642 -1.7073  0.2095 -2.4372
 5410TIP3    H237722   2.868   6.420   1.532  0.9613 -2.5924 -0.3253
 5411TIP3   OH237723   4.604   3.475  14.689 -0.2295  0.6518 -0.2953
 5411TIP3    H137724   4.681   3.419  14.680 -0.7399 -0.4219  1.8118
 5411TIP3    H237725   4.552   3.433  14.757 -2.5446  1.5306 -1.4856
 5412TIP3   OH237726   4.285   3.289  11.544 -0.2573  0.8639 -0.1375
 5412TIP3    H137727   4.224   3.216  11.549  0.2628  0.2933 -1.8126
 5412TIP3    H237728   4.371   3.250  11.554  0.0570  1.1701 -1.5221
 5413TIP3   OH237729   2.951   4.993   4.645  0.3571 -0.4118 -0.1885
 5413TIP3    H137730   2.968   5.034   4.730  1.2606  1.8767 -1.4347
 5413TIP3    H237731   3.030   4.941   4.628 -0.5814 -2.3765  1.1583
 5414TIP3   OH237732   5.481   1.251  15.719 -0.0657 -0.2887 -0.1481
 5414TIP3    H137733   5.525   1.263  15.804 -2.0390  0.9245  0.7210
 5414TIP3    H237734   5.525   1.313  15.661 -1.8335  2.3023  1.1987
 5415TIP3   OH237735   2.193   5.478  12.468 -0.0084 -0.4773  0.2514
 5415TIP3    H137736   2.135   5.547  12.437 -1.6962 -1.8478  0.2386
 5415TIP3    H237737   2.234   5.443  12.389  1.6045  1.1090  0.3429
 5416TIP3   OH237738   1.369   1.630   4.589  0.1478 -0.1117 -0.5463
 5416TIP3    H137739   1.440   1.691   4.570  1.3842 -2.0078 -2.2088
 5416TIP3    H237740   1.289   1.680   4.573  1.0968  1.6387  0.0160
 5417TIP3   OH237741   6.495   0.892   1.011 -0.6839 -0.0445 -0.0499
 5417TIP3    H137742   6.534   0.855   0.931 -2.5285 -1.4370 -0.3316
 5417TIP3    H237743   6.410   0.926   0.982 -1.5973 -1.0455  1.4324
 5418TIP3   OH237744   0.840   2.957   1.832  0.0273  0.5292 -0.2129
 5418TIP3    H137745   0.767   3.012   1.861 -0.1780 -0.4115  1.0732
 5418TIP3    H237746   0.806   2.868   1.836  1.4925  0.0037  1.1968
 5419TIP3   OH237747   2.084   6.376  15.008 -0.2018 -0.0550 -0.5766
 5419TIP3    H137748   2.013   6.343  15.063 -0.2070  0.3967 -0.3140
 5419TIP3    H237749   2.149   6.409  15.070  1.6155 -3.2131 -0.7042
 5420TIP3   OH237750   6.789   3.284   4.060 -0.5887 -0.6995 -0.8705
 5420TIP3    H137751   6.711   3.299   4.113  0.7898  0.6995  0.8590
 5420TIP3    H237752   6.829   3.206   4.098  0.5729  0.4908  0.4426
 5421TIP3   OH237753   4.203   0.666  16.274  0.1061  0.0064 -0.5505
 5421TIP3    H137754   4.227   0.750  16.234 -1.3986  0.4889 -0.4404
 5421TIP3    H237755   4.112   0.676  16.301  1.0323 -0.3529  2.9402
 5422TIP3   OH237756   6.308   0.406  16.684  0.6187 -0.4013  0.1417
 5422TIP3    H137757   6.387   0.357  16.662 -0.4244 -2.0153 -0.0719
 5422TIP3    H237758   6.309   0.481  16.625  0.2591 -2.2192 -2.2283
 5423TIP3   OH237759   4.310   2.833   3.708  0.2939  0.3101  0.2072
 5423TIP3    H137760   4.405   2.832   3.697  0.3024 -0.6680  0.3834
 5423TIP3    H237761   4.295   2.796   3.794 -0.2156  1.1360  0.4833
 5424TIP3   OH237762   2.105   5.165   2.801 -0.1288  0.4122 -0.2774
 5424TIP3    H137763   2.157   5.110   2.743 -0.2439  0.1409 -0.1218
 5424TIP3    H237764   2.119   5.130   2.888 -1.4199 -0.3370 -0.3591
 5425TIP3   OH237765   3.514   6.653   4.637  0.1751  0.2286  0.4605
 5425TIP3    H137766   3.540   6.620   4.723 -2.1297 -0.7985  0.8010
 5425TIP3    H237767   3.513   6.575   4.581 -1.2714  0.4006  0.2433
 5426TIP3   OH237768   3.568   3.384   5.508 -0.0014  0.1736 -0.2176
 5426TIP3    H137769   3.547   3.323   5.438  0.4078  0.3180 -0.4645
 5426TIP3    H237770   3.486   3.392   5.557 -0.3884  0.3581 -0.8886
 5427TIP3   OH237771   0.088   1.991   2.441 -0.2074  0.8808  0.1388
 5427TIP3    H137772   0.165   1.975   2.496 -1.6490 -1.1960  1.6441
 5427TIP3    H237773   0.086   1.917   2.380 -1.6004  0.3096  0.8409
 5428TIP3   OH237774   4.261   5.804   1.538 -0.5282 -0.1746 -0.2507
 5428TIP3    H137775   4.273   5.897   1.554  0.1211 -0.4704  0.9805
 5428TIP3    H237776   4.251   5.798   1.443  0.0681  1.0710 -0.4058
 5429TIP3   OH237777   5.567   6.401   2.921  0.8910  0.0845 -0.0673
 5429TIP3    H137778   5.505   6.431   2.987 -0.3748  0.8678 -1.6120
 5429TIP3    H237779   5.535   6.436   2.839  2.3349 -1.0706 -1.1576
 5430TIP3   OH237780   4.289   0.259  13.180  0.0095  0.4784 -0.0693
 5430TIP3    H137781   4.201   0.289  13.203 -1.2976 -1.7462 -1.9038
 5430TIP3    H237782   4.304   0.295  13.093  0.7466  0.5026  0.0650
 5431TIP3   OH237783   0.585   3.249   5.299  0.0429 -0.5729 -0.0239
 5431TIP3    H137784   0.521   3.319   5.288  1.9015  1.2942  0.5397
 5431TIP3    H237785   0.538   3.169   5.275 -3.0166  0.4865  2.1278
 5432TIP3   OH237786   1.633   2.269  11.505  0.1850  0.6964 -0.2122
 5432TIP3    H137787   1.723   2.236  11.510 -0.5476 -1.9126 -2.7627
 5432TIP3    H237788   1.640   2.347  11.449  0.8992  0.8113  0.0208
 5433TIP3   OH237789   0.805   6.397  16.267  0.1792 -0.5844  0.2637
 5433TIP3    H137790   0.845   6.469  16.317 -1.4619  0.6060 -0.1241
 5433TIP3    H237791   0.720   6.385  16.308  0.5794 -2.5589  0.5405
 5434TIP3   OH237792   0.297   3.138  14.062  0.1137  0.1000  0.0930
 5434TIP3    H137793   0.356   3.159  14.134  1.7186 -1.1626 -0.8360
 5434TIP3    H237794   0.251   3.220  14.045  0.2867  0.6278  2.0052
 5435TIP3   OH237795   6.815   2.205  14.613  0.2216  0.0861  0.0912
 5435TIP3    H137796   6.854   2.236  14.695 -0.0883  0.3955  0.1233
 5435TIP3    H237797   6.734   2.255  14.605  0.0498 -0.2410 -0.1983
 5436TIP3   OH237798   5.503   0.869  13.708  0.5616  0.1067 -0.6143
 5436TIP3    H137799   5.482   0.776  13.717 -1.3837  0.6076  0.3190
 5436TIP3    H237800   5.419   0.912  13.694  1.2943  1.8750  0.1993
 5437TIP3   OH237801   1.713   5.815  15.753 -0.4218  0.2878  0.0498
 5437TIP3    H137802   1.658   5.753  15.706 -0.0568 -0.7709  1.0191
 5437TIP3    H237803   1.792   5.766  15.776  0.0381  1.2099  0.4784
 5438TIP3   OH237804   2.281   3.503  16.728  0.0201 -0.4820  0.5617
 5438TIP3    H137805   2.375   3.501  16.711  0.2856 -0.8489  1.9350
 5438TIP3    H237806   2.273   3.477  16.820 -1.3094  1.2383  0.9657
 5439TIP3   OH237807   1.438   3.079   2.714  0.7303 -0.5022  0.7408
 5439TIP3    H137808   1.362   3.112   2.666  2.1226 -0.8690 -1.8674
 5439TIP3    H237809   1.443   2.987   2.690  1.1755 -0.8031  1.9922
 5440TIP3   OH237810   3.328   4.405   1.350 -0.1205  0.5381 -0.3713
 5440TIP3    H137811   3.342   4.388   1.443 -1.6193  1.3644  0.0384
 5440TIP3    H237812   3.306   4.498   1.346  1.6181  0.9144 -1.7735
 5441TIP3   OH237813   3.691   4.016   5.805 -0.2057 -0.1885 -0.2120
 5441TIP3    H137814   3.743   4.063   5.869 -1.2648 -0.2416  0.7150
 5441TIP3    H237815   3.682   4.076   5.731 -2.1848  1.3881  1.2592
 5442TIP3   OH237816   6.457   2.229   1.919 -0.4868 -0.2041  0.5992
 5442TIP3    H137817   6.490   2.287   1.851 -1.5684  0.5193  0.6769
 5442TIP3    H237818   6.424   2.153   1.872 -0.1319 -0.2382  0.4065
 5443TIP3   OH237819   0.609   6.194  16.347 -0.5300  0.3670 -0.0846
 5443TIP3    H137820   0.595   6.204  16.441  3.0800  0.6541  0.4946
 5443TIP3    H237821   0.644   6.106  16.337 -2.8237 -0.4314 -1.4507
 5444TIP3   OH237822   6.445   0.988  11.594  0.6775  0.3817 -0.0099
 5444TIP3    H137823   6.387   1.064  11.599 -0.4853 -0.4256 -0.7893
 5444TIP3    H237824   6.386   0.915  11.575  1.5655 -1.0010  2.3623
 5445TIP3   OH237825   1.712   6.759   4.949 -0.0245  0.1505  0.2207
 5445TIP3    H137826   1.654   6.834   4.962 -0.0447  0.2753 -0.5792
 5445TIP3    H237827   1.790   6.796   4.907  0.2733 -0.1546  0.5069
 5446TIP3   OH237828   2.952   1.453   2.108 -0.3280 -0.0684 -0.0873
 5446TIP3    H137829   2.981   1.501   2.185 -1.0169  1.2402 -0.6339
 5446TIP3    H237830   3.031   1.413   2.073  0.1434  0.1251  0.7465
 5447TIP3   OH237831   3.463   1.507  17.082 -0.1078  0.4519  0.0414
 5447TIP3    H137832   3.378   1.485  17.045  0.6651 -1.6395 -0.5616
 5447TIP3    H237833   3.526   1.482  17.014  1.0208  1.7341  0.5734
 5448TIP3   OH237834   0.625   3.101  13.883  0.2493 -0.3379  1.0210
 5448TIP3    H137835   0.596   3.192  13.881  3.2099  0.7010  2.5419
 5448TIP3    H237836   0.631   3.075  13.791  0.8502  1.5038  0.5247
 5449TIP3   OH237837   1.069   1.429   4.758 -0.3346 -0.4183  0.4124
 5449TIP3    H137838   1.127   1.385   4.695 -0.4274 -0.1838  0.1582
 5449TIP3    H237839   1.114   1.512   4.778 -0.7823 -0.0398 -0.1169
 5450TIP3   OH237840   5.169   4.838   4.019 -0.4557  0.3364  0.3861
 5450TIP3    H137841   5.130   4.769   3.965 -1.2736  1.3259 -0.3054
 5450TIP3    H237842   5.097   4.871   4.072  0.4658 -1.0400  2.5737
 5451TIP3   OH237843   0.582   1.816   4.739 -0.2609 -0.7123  0.1533
 5451TIP3    H137844   0.608   1.898   4.698  1.4598 -0.9895  0.6541
 5451TIP3    H237845   0.493   1.832   4.772  0.3808  1.2104  0.9875
 5452TIP3   OH237846   5.465   3.172  16.649  0.1876 -0.0070 -0.8224
 5452TIP3    H137847   5.418   3.121  16.715 -1.9583  0.3308 -2.0232
 5452TIP3    H237848   5.395   3.209  16.595  1.8780  0.2962 -2.8335
 5453TIP3   OH237849   5.620   3.621  13.242 -0.4223 -0.1394  0.0193
 5453TIP3    H137850   5.619   3.631  13.147 -0.4314  1.0625  0.1376
 5453TIP3    H237851   5.707   3.652  13.268 -0.2429 -0.9231  0.3489
 5454TIP3   OH237852   2.409   1.734   5.324  0.0528  0.2848  0.1782
 5454TIP3    H137853   2.446   1.646   5.329  0.5050  0.4693  0.0566
 5454TIP3    H237854   2.471   1.789   5.371  0.4076  0.7483 -0.8269
 5455TIP3   OH237855   6.373   1.425  14.746  0.8631 -0.5173  0.0935
 5455TIP3    H137856   6.465   1.400  14.742  0.9102 -0.1877 -1.1632
 5455TIP3    H237857   6.334   1.363  14.806  1.5434 -1.8295 -0.7983
 5456TIP3   OH237858   5.801   1.284   0.104 -0.2998  0.5690  0.1524
 5456TIP3    H137859   5.761   1.342   0.169 -0.6096  0.4939  0.0320
 5456TIP3    H237860   5.892   1.313   0.097  0.4309 -1.0167  2.4629
 5457TIP3   OH237861   6.230   4.698   4.434  0.4986 -0.1112  0.4411
 5457TIP3    H137862   6.285   4.769   4.399  0.5323 -0.1714  0.3712
 5457TIP3    H237863   6.240   4.627   4.370 -0.8832  0.4209 -0.3871
 5458TIP3   OH237864   4.418   0.818  16.830 -0.0956  0.0335  0.6731
 5458TIP3    H137865   4.512   0.798  16.827  0.1066  0.9703  0.7370
 5458TIP3    H237866   4.404   0.880  16.759 -0.8488 -0.7917  0.0822
 5459TIP3   OH237867   6.381   4.426   1.426 -0.1913  0.0375 -0.2633
 5459TIP3    H137868   6.332   4.398   1.504  1.0313  1.0383  0.8910
 5459TIP3    H237869   6.314   4.459   1.366 -1.1948 -1.1949  0.1686
 5460TIP3   OH237870   2.645   0.416   5.502 -0.2062 -0.3682 -0.2961
 5460TIP3    H137871   2.672   0.490   5.448 -0.1900 -1.1286 -1.3385
 5460TIP3    H237872   2.570   0.449   5.552  1.4430  1.1623  1.2215
 5461TIP3   OH237873   2.872   5.581   5.016  0.5394 -0.0660 -0.2405
 5461TIP3    H137874   2.957   5.625   5.019  0.5902  0.0183 -2.3924
 5461TIP3    H237875   2.883   5.505   5.074  2.0938 -0.0543 -0.4841
 5462TIP3   OH237876   1.073   4.679   2.537 -0.3172  0.2367 -0.1177
 5462TIP3    H137877   1.146   4.680   2.476  0.5314  1.1081  0.8898
 5462TIP3    H237878   1.090   4.605   2.594 -0.4166  0.2158 -0.1155
 5463TIP3   OH237879   5.471   3.119   5.673  0.7206 -0.0545  0.0888
 5463TIP3    H137880   5.501   3.188   5.615 -0.0230 -0.8342 -1.2603
 5463TIP3    H237881   5.378   3.109   5.653  0.4801 -0.4299  1.3273
 5464TIP3   OH237882   5.701   2.374   3.563  0.3861  0.6872 -0.0250
 5464TIP3    H137883   5.696   2.329   3.647  0.0278 -0.5944 -0.7181
 5464TIP3    H237884   5.795   2.380   3.545  0.4999  1.7776  0.8831
 5465TIP3   OH237885   3.659   1.798   1.765  0.0227  0.6763  0.0824
 5465TIP3    H137886   3.565   1.806   1.777  0.0239  0.9649 -0.1042
 5465TIP3    H237887   3.683   1.720   1.815 -0.5896 -0.4231 -1.3035
 5466TIP3   OH237888   6.077   0.707   5.293  0.1395 -0.7531 -0.5048
 5466TIP3    H137889   5.998   0.722   5.344  0.6890 -0.6873  0.3362
 5466TIP3    H237890   6.149   0.720   5.355  0.8278 -0.1793 -1.4162
 5467TIP3   OH237891   6.479   4.286  16.021 -0.1376  0.3701  0.0931
 5467TIP3    H137892   6.517   4.202  15.996  0.7368  0.6280  0.5125
 5467TIP3    H237893   6.545   4.325  16.078 -0.1345  1.7493 -0.8410
 5468TIP3   OH237894   3.794   0.767  15.367  0.6512  0.6872 -0.0470
 5468TIP3    H137895   3.808   0.678  15.400  0.7175 -0.0263 -1.9412
 5468TIP3    H237896   3.881   0.806  15.368  0.6401  0.7028  0.6945
 5469TIP3   OH237897   5.803   5.688  12.171 -0.3398  0.4682 -0.4902
 5469TIP3    H137898   5.728   5.645  12.131 -0.5897  0.0722  0.4058
 5469TIP3    H237899   5.876   5.628  12.156 -0.2359  0.7553 -1.1716
 5470TIP3   OH237900   0.857   4.103  16.703  0.3015 -0.6010  0.2538
 5470TIP3    H137901   0.839   4.066  16.790  1.2931 -2.0014 -0.1341
 5470TIP3    H237902   0.776   4.150  16.681 -0.0619 -0.4372  1.8173
 5471TIP3   OH237903   0.943   1.293   0.253 -0.1666  0.9468 -0.2473
 5471TIP3    H137904   1.039   1.297   0.257 -0.1665  1.5831 -0.7747
 5471TIP3    H237905   0.914   1.375   0.292 -0.5543  0.0311  1.4498
 5472TIP3   OH237906   0.640   6.504   4.531  0.1102  0.5365  0.2809
 5472TIP3    H137907   0.604   6.585   4.494 -0.6763  0.2645  0.4440
 5472TIP3    H237908   0.665   6.528   4.620  0.5409  0.7828  0.0961
 5473TIP3   OH237909   0.469   2.986   5.225  0.2631 -0.0108  0.8260
 5473TIP3    H137910   0.393   3.006   5.280 -1.9698 -1.4394 -1.6391
 5473TIP3    H237911   0.445   3.018   5.138  3.0020  0.5930  0.2514
 5474TIP3   OH237912   1.013   6.788   0.768  0.0935 -0.3521 -0.1592
 5474TIP3    H137913   0.996   6.779   0.862  0.3569 -0.2078 -0.0942
 5474TIP3    H237914   1.048   6.703   0.741 -2.0816 -1.1398 -0.6055
 5475TIP3   OH237915   1.128   0.538  12.044 -0.3534 -0.0600 -0.3227
 5475TIP3    H137916   1.203   0.596  12.056 -0.6389 -0.1490  2.1505
 5475TIP3    H237917   1.053   0.596  12.043 -0.4798 -0.2136  0.1552
 5476TIP3   OH237918   2.141   5.707   0.378 -0.1157  0.0939  0.3410
 5476TIP3    H137919   2.107   5.797   0.379  1.4511  0.6887  0.4565
 5476TIP3    H237920   2.063   5.653   0.387 -1.3110  1.3668 -1.7681
 5477TIP3   OH237921   1.950   6.269   6.822  0.0892  0.1097 -0.6370
 5477TIP3    H137922   1.894   6.287   6.747 -1.2513  0.1406  0.3633
 5477TIP3    H237923   1.904   6.200   6.871  0.0085  1.4114  1.1748
 5478TIP3   OH237924   2.578   5.201  16.031 -0.3428  0.2210 -0.3030
 5478TIP3    H137925   2.487   5.231  16.036 -0.0834  0.7332  1.7315
 5478TIP3    H237926   2.575   5.109  16.055 -0.4610 -0.0825 -1.4355
 5479TIP3   OH237927   2.057   4.958  12.277  0.5972  0.1604 -0.2014
 5479TIP3    H137928   2.068   5.030  12.215  1.5590 -0.3017 -0.5866
 5479TIP3    H237929   1.995   4.899  12.234  0.5028  0.3196 -0.2861
 5480TIP3   OH237930   1.221   0.287   3.102  0.1918  0.2744  0.1229
 5480TIP3    H137931   1.307   0.271   3.065 -0.3509 -0.7409 -0.7500
 5480TIP3    H237932   1.213   0.223   3.173  0.0045  0.0849 -0.0666
 5481TIP3   OH237933   0.990   4.517  17.276 -0.2362  0.4184 -0.0676
 5481TIP3    H137934   1.059   4.462  17.239 -0.5163 -1.6974  2.4411
 5481TIP3    H237935   0.951   4.464  17.345 -2.3010  2.7858  0.6587
 5482TIP3   OH237936   3.850   5.952   5.412 -0.0167 -0.4782 -0.2212
 5482TIP3    H137937   3.757   5.968   5.402 -0.0064 -0.2462  0.0297
 5482TIP3    H237938   3.880   6.020   5.472  0.6741  0.5771 -1.7568
 5483TIP3   OH237939   4.806   5.256   5.985  0.4804  0.1832 -0.1623
 5483TIP3    H137940   4.865   5.331   5.984  0.3893  0.3711  2.6298
 5483TIP3    H237941   4.724   5.290   6.022 -0.1742 -0.8614 -0.6334
 5484TIP3   OH237942   2.020   1.784   0.054 -0.3436  0.3892  0.5205
 5484TIP3    H137943   1.953   1.848   0.029 -0.0647  0.4001 -0.2126
 5484TIP3    H237944   2.092   1.837   0.089 -0.0873  0.4870 -0.1430
 5485TIP3   OH237945   0.290   0.297   0.991 -0.1287 -0.3417  0.2713
 5485TIP3    H137946   0.207   0.311   1.036  0.2661  1.7345  0.3883
 5485TIP3    H237947   0.297   0.202   0.983 -3.3859 -0.4957 -1.4097
 5486TIP3   OH237948   3.663   4.290  16.329 -0.3948  0.0918  0.3870
 5486TIP3    H137949   3.702   4.232  16.264 -2.0146 -0.3747 -0.2018
 5486TIP3    H237950   3.716   4.277  16.407  1.9116  1.0640 -0.9651
 5487TIP3   OH237951   1.817   0.523  15.845 -0.2892  0.1523 -0.0514
 5487TIP3    H137952   1.900   0.557  15.812  0.4036 -0.2605  1.2290
 5487TIP3    H237953   1.789   0.587  15.910 -0.3771 -0.3085  0.3710
 5488TIP3   OH237954   2.361   4.229  13.312 -0.5520  0.2007 -0.8056
 5488TIP3    H137955   2.336   4.137  13.322  0.9572 -0.1188  0.1706
 5488TIP3    H237956   2.283   4.270  13.275 -1.0905 -1.5469 -1.7053
 5489TIP3   OH237957   2.125   3.464  12.486  0.3370 -0.2529 -0.0152
 5489TIP3    H137958   2.181   3.472  12.563 -0.4109 -0.1559  0.5166
 5489TIP3    H237959   2.111   3.370  12.475 -1.3246 -0.1733  1.2465
 5490TIP3   OH237960   0.743   1.557  14.901 -0.3062 -0.2250  0.2473
 5490TIP3    H137961   0.748   1.488  14.835  1.0455 -1.2829  1.4322
 5490TIP3    H237962   0.780   1.518  14.980 -2.5664  0.7771  1.8641
 5491TIP3   OH237963   0.456   2.584   5.883  0.0643 -0.1761 -0.8329
 5491TIP3    H137964   0.401   2.536   5.821  1.1216 -2.3960 -0.1006
 5491TIP3    H237965   0.465   2.525   5.958  1.2185  1.2730  0.1980
 5492TIP3   OH237966   0.522   3.659   1.086  0.0914 -0.7762  0.4123
 5492TIP3    H137967   0.473   3.661   1.004 -0.1639 -0.4102  0.5712
 5492TIP3    H237968   0.607   3.698   1.064 -0.4467  0.5470  0.6186
 5493TIP3   OH237969   2.146   0.311  14.516 -0.0564  0.2289 -0.1965
 5493TIP3    H137970   2.202   0.273  14.447 -0.4310 -2.0205  0.6905
 5493TIP3    H237971   2.208   0.348  14.579  0.2929  2.4569 -1.7781
 5494TIP3   OH237972   2.006   1.437   0.396  0.5320  0.2909 -0.3113
 5494TIP3    H137973   1.979   1.399   0.480 -1.5275  0.1342 -1.0179
 5494TIP3    H237974   2.093   1.399   0.380  0.4245 -0.6308  1.1505
 5495TIP3   OH237975   5.291   3.948   6.538  0.5012 -0.3972 -0.2535
 5495TIP3    H137976   5.306   4.035   6.502  2.0098 -0.3254  0.5283
 5495TIP3    H237977   5.197   3.934   6.529  0.5687  0.4367 -2.3396
 5496TIP3   OH237978   1.662   2.380   2.573  0.2079 -0.0044  0.1322
 5496TIP3    H137979   1.704   2.399   2.658  0.3459  0.7297 -0.0899
 5496TIP3    H237980   1.608   2.303   2.590 -1.0958  1.1318  1.3384
 5497TIP3   OH237981   4.474   1.072   4.388 -0.2408 -0.0834  0.3431
 5497TIP3    H137982   4.433   1.145   4.433 -0.9133 -0.4725  0.3655
 5497TIP3    H237983   4.543   1.042   4.448  1.7317  2.1300 -0.7473
 5498TIP3   OH237984   0.287   4.840  14.690 -0.0745 -0.4808 -0.5190
 5498TIP3    H137985   0.213   4.826  14.631  0.0024 -1.2048 -0.4459
 5498TIP3    H237986   0.267   4.788  14.768  0.7924 -1.1887 -0.7546
 5499TIP3   OH237987   0.223   2.850   1.189 -0.5557  0.0769  0.2472
 5499TIP3    H137988   0.225   2.822   1.280 -0.0159 -0.2910  0.1261
 5499TIP3    H237989   0.312   2.836   1.158 -1.1133 -1.3278 -0.7941
 5500TIP3   OH237990   1.414   5.215  10.425  1.0882  0.2583 -0.3881
 5500TIP3    H137991   1.365   5.228  10.344  0.7641  0.7803 -0.1058
 5500TIP3    H237992   1.505   5.206  10.396  1.0017  0.6712 -0.7915
 5501TIP3   OH237993   1.118   1.185   3.484 -0.0468  0.5353 -0.0394
 5501TIP3    H137994   1.090   1.168   3.394  0.8280 -0.0217 -0.2155
 5501TIP3    H237995   1.041   1.168   3.538 -0.6325  1.0715 -0.7000
 5502TIP3   OH237996   2.457   3.322   2.627  0.1313  0.3169 -1.0249
 5502TIP3    H137997   2.414   3.266   2.691 -2.1032  2.8437 -0.2016
 5502TIP3    H237998   2.551   3.310   2.643 -0.2751 -2.9897 -0.7934
 5503TIP3   OH237999   4.351   6.170  15.921  0.3011  0.4562  0.3165
 5503TIP3    H138000   4.325   6.262  15.914  0.1283  0.5638  2.1687
 5503TIP3    H238001   4.279   6.128  15.969  1.2772 -0.2477  1.1857
 5504TIP3   OH238002   2.542   6.003   2.951  0.0658  0.2829  0.1995
 5504TIP3    H138003   2.518   5.933   2.891 -2.1032  1.6731 -0.5867
 5504TIP3    H238004   2.472   6.004   3.016  2.6349 -1.5801  3.2101
 5505TIP3   OH238005   1.481   6.181  13.737  0.0401 -0.1309 -0.2706
 5505TIP3    H138006   1.466   6.087  13.724  1.1723 -0.3982  0.3353
 5505TIP3    H238007   1.478   6.218  13.648 -1.9746 -0.4854 -0.3817
 5506TIP3   OH238008   4.539   0.279  13.315 -0.1667 -0.1147 -0.1142
 5506TIP3    H138009   4.449   0.266  13.287 -0.0219  0.3410 -0.8022
 5506TIP3    H238010   4.584   0.198  13.289  0.3316  0.9518 -2.7345
 5507TIP3   OH238011   5.163   5.576   1.425 -0.4011  0.1294  0.1683
 5507TIP3    H138012   5.207   5.568   1.340 -1.6729 -3.8853 -0.2237
 5507TIP3    H238013   5.160   5.670   1.441  1.2349  0.9237 -3.5075
 5508TIP3   OH238014   5.195   3.207   1.835  0.2515 -0.4624 -0.1668
 5508TIP3    H138015   5.258   3.155   1.884 -0.1830 -0.8077  0.0197
 5508TIP3    H238016   5.249   3.271   1.788  0.8523 -1.5962 -1.0506
 5509TIP3   OH238017   0.682   5.263  12.018  0.0117 -0.0836  0.1163
 5509TIP3    H138018   0.690   5.324  12.091 -1.0591 -0.9599  0.9784
 5509TIP3    H238019   0.712   5.180  12.053 -2.5185 -0.9885  0.2167
 5510TIP3   OH238020   1.533   2.601   1.083 -0.5348 -0.3058  0.1809
 5510TIP3    H138021   1.445   2.589   1.047 -0.2487  1.8582 -1.3518
 5510TIP3    H238022   1.589   2.611   1.006  0.5996  1.1588  1.1520
 5511TIP3   OH238023   4.509   4.017  14.871 -0.2955  0.1294 -0.2198
 5511TIP3    H138024   4.563   4.084  14.913  0.3024 -1.4135  1.6006
 5511TIP3    H238025   4.558   3.936  14.883 -1.4207 -0.7837 -1.5692
 5512TIP3   OH238026   6.583   5.547  16.282 -0.0652  0.2125 -0.4574
 5512TIP3    H138027   6.508   5.570  16.227  0.2370  1.1025 -0.5082
 5512TIP3    H238028   6.658   5.549  16.222  0.0805 -0.1158 -0.2879
 5513TIP3   OH238029   1.712   0.305  15.971  0.1127  0.4037 -0.3124
 5513TIP3    H138030   1.724   0.313  16.066 -1.5523  2.1108 -0.2234
 5513TIP3    H238031   1.780   0.361  15.934  0.2513  0.3668 -0.1179
 5514TIP3   OH238032   0.274   0.415   4.017  0.6307  0.5187  0.0485
 5514TIP3    H138033   0.304   0.347   3.956  1.4572  0.9299 -0.0027
 5514TIP3    H238034   0.220   0.473   3.962  0.1809  0.0894  0.0251
 5515TIP3   OH238035   2.706   0.031   3.648  0.4592  0.2427  0.0701
 5515TIP3    H138036   2.638   0.075   3.597 -1.1192 -1.7724  0.3579
 5515TIP3    H238037   2.666   0.014   3.733  1.3574 -0.8747  0.2807
 5516TIP3   OH238038   0.122   4.165  16.072 -0.6827 -0.0510  1.0014
 5516TIP3    H138039   0.206   4.207  16.088 -0.9696  0.5686  0.8844
 5516TIP3    H238040   0.077   4.223  16.011 -0.5945 -1.1367 -0.1215
 5517TIP3   OH238041   0.214   3.898  16.130 -0.0230  0.3816 -0.0741
 5517TIP3    H138042   0.195   3.892  16.223 -1.0738  0.6094 -0.2634
 5517TIP3    H238043   0.161   3.972  16.099  1.8254  1.5695 -0.4834
 5518TIP3   OH238044   6.793   3.257   6.479 -0.1576  0.2123 -0.0347
 5518TIP3    H138045   6.832   3.170   6.489  1.3819  0.9115  0.1769
 5518TIP3    H238046   6.782   3.267   6.384 -1.3563 -0.6375  0.0024
 5519TIP3   OH238047   5.092   5.148  12.094 -0.2081 -0.5146 -0.1650
 5519TIP3    H138048   5.036   5.071  12.088  0.9835 -1.6049  2.1406
 5519TIP3    H238049   5.161   5.132  12.029 -0.8522 -0.6291 -0.8211
 5520TIP3   OH238050   2.566   5.490  10.789 -0.0358  0.1571 -0.2444
 5520TIP3    H138051   2.586   5.528  10.703 -1.9065  0.3205 -0.6332
 5520TIP3    H238052   2.543   5.399  10.770  0.0736  0.0498  0.1400
 5521TIP3   OH238053   6.672   0.397  14.439 -0.5072 -0.0940  0.3365
 5521TIP3    H138054   6.716   0.443  14.510  0.9511  0.0713 -0.6470
 5521TIP3    H238055   6.687   0.452  14.362 -0.3089 -1.2789 -0.4961
 5522TIP3   OH238056   2.730   0.315  11.983  0.8440 -0.0388 -0.1444
 5522TIP3    H138057   2.744   0.369  11.905  1.5707  1.4740  1.0068
 5522TIP3    H238058   2.680   0.240  11.952 -1.7314  2.1501 -1.4527
 5523TIP3   OH238059   2.616   1.789   5.080 -0.5697 -0.0761 -0.8532
 5523TIP3    H138060   2.544   1.827   5.130 -0.2713  1.1961 -1.3762
 5523TIP3    H238061   2.656   1.863   5.035  2.3473 -0.4262  0.9958
 5524TIP3   OH238062   1.992   5.779  15.269  0.3231 -0.0038  0.1264
 5524TIP3    H138063   1.937   5.847  15.310  2.0287  0.9481  0.8658
 5524TIP3    H238064   1.943   5.753  15.190 -2.1872 -0.6346  1.8017
 5525TIP3   OH238065   4.140   4.056   4.850 -0.4189 -0.0698 -0.3980
 5525TIP3    H138066   4.101   3.968   4.850  2.4698 -1.4208 -0.1988
 5525TIP3    H238067   4.136   4.084   4.759  0.5278 -1.3277 -0.8423
 5526TIP3   OH238068   5.570   3.990  11.663 -0.2841 -0.7012 -0.1626
 5526TIP3    H138069   5.517   4.055  11.615  0.7405  0.1508 -0.1486
 5526TIP3    H238070   5.534   3.990  11.751  1.2987  1.6787  0.5169
 5527TIP3   OH238071   1.237   0.067  15.330 -0.5347 -0.3544  0.3616
 5527TIP3    H138072   1.147   0.091  15.306  0.1594  0.8060 -1.1416
 5527TIP3    H238073   1.269   0.016  15.256  0.4548  0.2445  0.3691
 5528TIP3   OH238074   5.354   1.105  14.947  0.1804 -0.1459 -0.3053
 5528TIP3    H138075   5.317   1.163  14.881 -0.5811  0.1063  0.3396
 5528TIP3    H238076   5.449   1.114  14.937  0.0682  1.2088 -0.2107
 5529TIP3   OH238077   6.175   5.066   6.429 -0.1594 -0.7319  0.0252
 5529TIP3    H138078   6.201   5.149   6.469 -0.5442 -0.4409 -0.3192
 5529TIP3    H238079   6.217   4.999   6.482  0.9303 -0.2840 -0.2601
 5530TIP3   OH238080   4.095   6.093   3.645  0.6128 -0.5610 -1.0912
 5530TIP3    H138081   4.133   6.055   3.725 -0.3002 -0.9968 -0.8605
 5530TIP3    H238082   4.054   6.174   3.675  0.7690 -0.4302 -1.2263
 5531TIP3   OH238083   2.061   6.306   6.264 -0.5216  0.3095 -0.3480
 5531TIP3    H138084   2.084   6.213   6.261 -0.2186  0.3837 -0.3270
 5531TIP3    H238085   2.080   6.333   6.354  0.5457  0.6866 -0.6793
 5532TIP3   OH238086   0.144   4.247   0.400 -0.0208  0.1880 -0.2819
 5532TIP3    H138087   0.216   4.195   0.436 -0.9396 -0.4407  0.6817
 5532TIP3    H238088   0.186   4.312   0.344  1.2145 -0.9197 -0.6424
 5533TIP3   OH238089   3.268   5.762   4.230 -0.3042  0.1307 -0.2457
 5533TIP3    H138090   3.324   5.707   4.285 -0.4742  1.3472  1.1699
 5533TIP3    H238091   3.236   5.702   4.162  0.4807 -1.2358  0.5556
 5534TIP3   OH238092   6.119   3.306  13.951  0.0460  0.0244 -0.1213
 5534TIP3    H138093   6.209   3.335  13.944  0.2721 -0.7078 -0.3091
 5534TIP3    H238094   6.068   3.374  13.906  0.4558  0.6323  0.3251
 5535TIP3   OH238095   1.848   5.082  15.523 -0.3465 -0.5610  0.4935
 5535TIP3    H138096   1.898   5.154  15.484 -0.9512 -0.6480 -0.4560
 5535TIP3    H238097   1.783   5.125  15.579 -0.1197 -0.4004  0.6320
 5536TIP3   OH238098   1.054   6.567   4.258 -0.3630 -0.1381 -0.2413
 5536TIP3    H138099   1.104   6.649   4.252 -0.5993  0.0553  0.4114
 5536TIP3    H238100   1.017   6.556   4.170 -0.3674  0.4850 -0.3243
 5537TIP3   OH238101   4.196   4.061  12.653 -1.0382  0.2646  0.6097
 5537TIP3    H138102   4.195   4.033  12.562 -0.1760  1.5162  0.1985
 5537TIP3    H238103   4.145   3.995  12.700 -0.9736 -0.7054 -0.6818
 5538TIP3   OH238104   1.756   4.771   5.163 -0.3523 -0.2010 -0.1301
 5538TIP3    H138105   1.723   4.854   5.128 -0.0262 -0.8499 -2.0365
 5538TIP3    H238106   1.678   4.722   5.187 -0.6679 -0.4120 -1.5503
 5539TIP3   OH238107   3.378   4.066  12.109  0.0593  0.3224  0.5137
 5539TIP3    H138108   3.466   4.053  12.073 -0.2923 -0.8256  0.0656
 5539TIP3    H238109   3.333   3.983  12.096 -1.3709  1.1460  0.0054
 5540TIP3   OH238110   4.749   3.249  10.838 -0.1855 -0.0272 -0.0783
 5540TIP3    H138111   4.705   3.324  10.878 -1.2737 -0.6511 -0.0689
 5540TIP3    H238112   4.707   3.238  10.753  0.0389 -0.5509 -0.1289
 5541TIP3   OH238113   6.490   5.637  16.526 -0.0517 -0.3948 -0.0638
 5541TIP3    H138114   6.559   5.622  16.461  0.1547 -2.8744  0.6716
 5541TIP3    H238115   6.425   5.690  16.480  1.8524  1.1058 -1.0998
 5542TIP3   OH238116   1.972   0.028  14.951 -0.1583  0.0309  0.1965
 5542TIP3    H138117   1.953   0.045  15.044  1.7544  1.5886  0.3321
 5542TIP3    H238118   2.063  -0.002  14.950  0.8926  3.0757 -1.4504
 5543TIP3   OH238119   4.714   6.612   1.644  0.4718 -0.0931 -0.2889
 5543TIP3    H138120   4.765   6.675   1.695  1.0803 -0.1173 -0.8535
 5543TIP3    H238121   4.635   6.661   1.618  0.4227  0.0884  0.2013
 5544TIP3   OH238122   2.487   4.627  17.231  0.3279  0.0656 -0.0097
 5544TIP3    H138123   2.569   4.646  17.185  0.0562 -0.9109 -0.9341
 5544TIP3    H238124   2.419   4.665  17.175  0.0794  0.0101  0.2532
 5545TIP3   OH238125   2.398   4.564   1.768 -0.0257 -0.4380  0.5820
 5545TIP3    H138126   2.468   4.536   1.709 -1.2688 -1.0413 -0.6431
 5545TIP3    H238127   2.421   4.653   1.792  0.4806 -0.1689 -0.8613
 5546TIP3   OH238128   1.851   6.279   2.067 -0.6567  0.0871 -0.2856
 5546TIP3    H138129   1.937   6.319   2.060 -0.8511  0.0951 -2.8690
 5546TIP3    H238130   1.868   6.185   2.066 -0.4607  0.0451  2.5186
 5547TIP3   OH238131   3.376   5.822  15.416 -0.4757  0.1810  0.3786
 5547TIP3    H138132   3.458   5.788  15.451 -1.0448 -2.3250 -0.6283
 5547TIP3    H238133   3.329   5.745  15.384 -2.5866  1.7321 -0.4079
 5548TIP3   OH238134   1.694   4.337  15.031  0.4267 -0.4417  0.5164
 5548TIP3    H138135   1.728   4.392  14.961 -0.0570 -0.7132  0.0645
 5548TIP3    H238136   1.698   4.248  14.996 -1.3428 -0.4172  0.2031
 5549TIP3   OH238137   1.620   6.474   0.810  0.1494 -0.3895  0.7874
 5549TIP3    H138138   1.614   6.550   0.753 -0.5826 -0.1303  1.2089
 5549TIP3    H238139   1.660   6.406   0.755  0.9235  0.3288  0.4527
 5550TIP3   OH238140   5.401   1.554  13.835 -0.1370 -0.5617 -0.1599
 5550TIP3    H138141   5.332   1.552  13.769 -0.0660  1.1070 -0.2998
 5550TIP3    H238142   5.355   1.567  13.918  0.0151  0.7263 -0.2727
 5551TIP3   OH238143   1.400   6.091   1.648 -0.3901  0.4671  0.2662
 5551TIP3    H138144   1.363   6.161   1.594  0.9193 -0.1064 -1.4381
 5551TIP3    H238145   1.392   6.012   1.594  2.1340  0.1200  0.3355
 5552TIP3   OH238146   1.795   1.086  14.106 -0.2159 -0.3652  0.5602
 5552TIP3    H138147   1.777   1.172  14.068 -2.4677 -0.7353  0.7136
 5552TIP3    H238148   1.708   1.053  14.131  0.5586 -2.9411 -0.0829
 5553TIP3   OH238149   4.281   4.234  13.451  0.4819  0.1307 -0.4477
 5553TIP3    H138150   4.244   4.145  13.448 -0.2727  0.4304 -0.1754
 5553TIP3    H238151   4.213   4.289  13.413 -0.3422  1.0082  2.1294
 5554TIP3   OH238152   6.560   2.104  16.712  0.1076 -0.1652 -0.1024
 5554TIP3    H138153   6.649   2.118  16.680  0.3297  1.9366  1.3024
 5554TIP3    H238154   6.505   2.160  16.657  0.2069  1.6938  1.6317
 5555TIP3   OH238155   3.903   0.729  15.701 -0.1219  0.0873 -0.7338
 5555TIP3    H138156   3.887   0.672  15.626 -0.0725 -0.1359 -0.5720
 5555TIP3    H238157   3.980   0.692  15.744  0.4750  0.8151 -1.1613
 5556TIP3   OH238158   5.306   0.786   1.270 -0.3725  0.7467  0.2048
 5556TIP3    H138159   5.361   0.709   1.255  0.9971  1.4314  1.5149
 5556TIP3    H238160   5.228   0.753   1.314 -0.9682 -0.2166 -1.5250
 5557TIP3   OH238161   0.058   5.601  13.746 -0.2221 -0.5976 -0.7099
 5557TIP3    H138162   0.070   5.690  13.713 -1.2925  0.2623  1.1431
 5557TIP3    H238163   0.122   5.593  13.817 -1.7065 -0.4656  0.6753
 5558TIP3   OH238164   0.226   3.763  14.854 -0.5172  0.1675 -0.2427
 5558TIP3    H138165   0.145   3.812  14.860 -0.2622  0.7653 -1.5220
 5558TIP3    H238166   0.215   3.708  14.777 -0.2736 -0.8209  0.4141
 5559TIP3   OH238167   3.663   3.611   3.368 -0.2708  0.3078  0.3596
 5559TIP3    H138168   3.627   3.529   3.402  1.8873  0.1594  2.4186
 5559TIP3    H238169   3.665   3.670   3.443  2.5249  0.7023  0.0431
 5560TIP3   OH238170   3.885   3.130  15.108 -0.5330 -0.2677 -0.6059
 5560TIP3    H138171   3.948   3.067  15.074  1.5679  1.8902 -0.8122
 5560TIP3    H238172   3.815   3.132  15.042  0.1549 -1.1801 -1.3739
 5561TIP3   OH238173   6.404   0.658  15.342  0.2719  0.1951  0.1418
 5561TIP3    H138174   6.484   0.698  15.308 -0.6540  0.7635 -1.4017
 5561TIP3    H238175   6.364   0.726  15.396  0.3088  0.2669  0.0793
 5562TIP3   OH238176   5.023   1.751  14.565  0.1638  0.2707  0.3114
 5562TIP3    H138177   5.053   1.803  14.491 -0.8513  0.1480 -0.1931
 5562TIP3    H238178   5.038   1.660  14.539  1.3103  0.2847  0.9176
 5563TIP3   OH238179   5.642   3.784  10.643  0.9972  0.1074  0.0032
 5563TIP3    H138180   5.623   3.789  10.737 -0.5405 -0.2679 -0.2645
 5563TIP3    H238181   5.592   3.708  10.613 -0.5127  1.6847 -1.5615
 5564TIP3   OH238182   0.083   0.218  11.156  0.6509 -0.2242 -0.2826
 5564TIP3    H138183   0.083   0.314  11.155  1.2456 -0.2209  0.0418
 5564TIP3    H238184   0.167   0.193  11.119  0.6530 -0.6196 -0.0156
 5565TIP3   OH238185   5.432   0.484   0.718  0.5262 -0.0915 -0.1078
 5565TIP3    H138186   5.522   0.478   0.749  0.5259  2.0939  0.4170
 5565TIP3    H238187   5.384   0.523   0.791 -0.2612  1.4588 -1.4291
 5566TIP3   OH238188   0.097   2.338   3.772 -0.7297 -0.4099  0.1844
 5566TIP3    H138189   0.067   2.372   3.857  1.1031  1.1204  0.2560
 5566TIP3    H238190   0.138   2.254   3.793  0.2005  0.2082  0.9175
 5567TIP3   OH238191   1.610   1.603   2.338 -0.1455  0.3832 -0.2620
 5567TIP3    H138192   1.641   1.684   2.298 -0.3893  0.5357 -0.1426
 5567TIP3    H238193   1.627   1.615   2.432  1.6517 -0.5028 -0.4397
 5568TIP3   OH238194   6.800   0.248  13.288 -0.2684 -0.9424  0.5862
 5568TIP3    H138195   6.831   0.213  13.204 -0.3666 -1.5785  0.8086
 5568TIP3    H238196   6.797   0.342  13.275  2.3922 -0.7943  0.7563
 5569TIP3   OH238197   5.171   2.840  13.721 -0.4551 -0.1144  0.0186
 5569TIP3    H138198   5.175   2.844  13.817  0.7939 -1.8626  0.0581
 5569TIP3    H238199   5.229   2.909  13.691 -0.8642  0.4495  0.5166
 5570TIP3   OH238200   2.202   5.319   3.252 -0.3763  0.2697 -0.1817
 5570TIP3    H138201   2.112   5.288   3.258  0.0576 -1.1547 -1.0198
 5570TIP3    H238202   2.236   5.281   3.171  1.8879 -1.6273  1.5896
 5571TIP3   OH238203   2.230   2.089  13.797 -0.1015  0.0992  0.1416
 5571TIP3    H138204   2.271   2.077  13.711  0.8813  1.0013  0.4803
 5571TIP3    H238205   2.245   2.006  13.842  0.3875  0.0377 -0.1296
 5572TIP3   OH238206   3.263   4.066   3.091  0.2073  0.0649  0.5017
 5572TIP3    H138207   3.246   4.141   3.148  0.5904  0.9128 -0.4978
 5572TIP3    H238208   3.203   4.077   3.018  1.4241  0.3028 -0.4721
 5573TIP3   OH238209   5.439   1.692  15.447 -0.1356  0.6879  0.0088
 5573TIP3    H138210   5.437   1.727  15.359  0.1840 -0.2381 -0.3787
 5573TIP3    H238211   5.517   1.637  15.449 -1.0156 -0.5800  0.3574
 5574TIP3   OH238212   0.725   3.790  14.258  0.0843  0.2419  0.6953
 5574TIP3    H138213   0.692   3.761  14.343 -1.3243 -0.5471 -0.1043
 5574TIP3    H238214   0.682   3.874  14.243  0.2296  0.3165  0.6977
 5575TIP3   OH238215   3.715   5.887   6.076 -0.0067  0.4528 -0.4616
 5575TIP3    H138216   3.736   5.864   6.166 -0.6084  1.1995 -0.1274
 5575TIP3    H238217   3.702   5.803   6.032 -0.3687  0.1080  0.3000
 5576TIP3   OH238218   6.509   1.512   4.833  0.6007 -0.2113  0.0600
 5576TIP3    H138219   6.442   1.448   4.808  1.7719 -1.9270  1.1343
 5576TIP3    H238220   6.538   1.483   4.920  2.4893  0.6715 -0.2461
 5577TIP3   OH238221   4.926   0.350  17.084 -0.2087 -0.3536  0.5930
 5577TIP3    H138222   4.846   0.372  17.036  0.3411  1.8176  0.6003
 5577TIP3    H238223   4.897   0.342  17.175 -0.4343  0.4085  0.5929
 5578TIP3   OH238224   1.852   1.015   4.311  0.2461  0.1948 -0.0730
 5578TIP3    H138225   1.818   1.078   4.247  2.8331  3.3986  1.5485
 5578TIP3    H238226   1.921   0.969   4.264  1.7969  2.1950  0.1283
 5579TIP3   OH238227   2.279   3.522   2.625  0.0718 -0.2574  0.7787
 5579TIP3    H138228   2.239   3.546   2.709  1.2782 -0.0153  1.2999
 5579TIP3    H238229   2.350   3.463   2.648  1.5584  1.2318  0.0940
 5580TIP3   OH238230   0.352   2.750  11.690 -0.4678  0.4130 -0.0149
 5580TIP3    H138231   0.367   2.829  11.742 -0.0304  1.6829 -2.0133
 5580TIP3    H238232   0.344   2.680  11.755  0.3316  1.8940  1.7326
 5581TIP3   OH238233   1.166   6.564  13.264 -0.1793  0.2767 -0.2059
 5581TIP3    H138234   1.164   6.499  13.194  2.6737 -0.6424  0.4856
 5581TIP3    H238235   1.112   6.525  13.334  1.8060 -1.5915  0.3547
 5582TIP3   OH238236   3.768   5.318  11.428 -0.5024 -0.1500 -0.0533
 5582TIP3    H138237   3.713   5.251  11.388  0.3569  0.9314 -3.2277
 5582TIP3    H238238   3.854   5.276  11.438 -0.2227  0.1391 -1.1421
 5583TIP3   OH238239   1.377   1.201   1.689  0.0838  0.0223 -0.2405
 5583TIP3    H138240   1.418   1.238   1.767 -1.1768 -0.2879  0.5829
 5583TIP3    H238241   1.424   1.242   1.616  1.0961  0.5192  0.6659
 5584TIP3   OH238242   3.248   1.251   0.191  0.3779  0.2333 -0.1611
 5584TIP3    H138243   3.264   1.165   0.229 -1.0453  0.2906  0.5600
 5584TIP3    H238244   3.272   1.240   0.098 -2.0451 -1.6023 -0.6227
 5585TIP3   OH238245   2.697   4.789   1.153 -1.1520  0.3843  0.1466
 5585TIP3    H138246   2.732   4.706   1.185  0.2571  0.5244 -0.9660
 5585TIP3    H238247   2.643   4.822   1.224 -0.1429 -0.5398  1.3584
 5586TIP3   OH238248   1.888   1.899  15.538 -0.1091 -0.2153  0.3756
 5586TIP3    H138249   1.928   1.823  15.497  0.1026  0.2601 -0.3011
 5586TIP3    H238250   1.799   1.872  15.559 -0.4086 -0.2517 -0.9579
 5587TIP3   OH238251   2.101   5.526   2.611 -0.7914  0.2455 -0.6026
 5587TIP3    H138252   2.136   5.499   2.526 -0.8736 -0.2718 -0.4748
 5587TIP3    H238253   2.128   5.456   2.671  0.9614  1.5417  0.1974
 5588TIP3   OH238254   0.058   0.994  14.629 -0.2951 -0.0536 -0.2480
 5588TIP3    H138255  -0.022   1.047  14.637 -0.3223 -0.0355 -0.6113
 5588TIP3    H238256   0.117   1.048  14.576  0.2945  0.3074  0.7538
 5589TIP3   OH238257   2.060   4.445   5.124 -0.0398  0.2458 -0.1746
 5589TIP3    H138258   2.088   4.490   5.044 -0.2182  1.2168  0.3071
 5589TIP3    H238259   1.978   4.401   5.099  0.5234 -0.4379 -0.8502
 5590TIP3   OH238260   2.689   5.179   2.962  0.5158 -0.0021  0.3264
 5590TIP3    H138261   2.725   5.230   2.890  0.8675  2.0279  1.8858
 5590TIP3    H238262   2.763   5.132   2.999  0.4449 -0.5730 -0.2589
 5591TIP3   OH238263   0.424   6.265   2.347 -0.0268 -0.3917  0.1376
 5591TIP3    H138264   0.474   6.196   2.391 -0.9612 -0.9029  0.3985
 5591TIP3    H238265   0.358   6.292   2.411 -2.6313 -2.4652 -1.5587
 5592TIP3   OH238266   6.416   4.477  14.300 -0.2676 -0.3975 -0.5429
 5592TIP3    H138267   6.458   4.488  14.385 -1.1704 -0.2484 -0.1057
 5592TIP3    H238268   6.488   4.459  14.240  0.6588  1.9340 -0.2070
 5593TIP3   OH238269   4.366   2.593   3.475 -0.0288  0.6189  0.0212
 5593TIP3    H138270   4.290   2.635   3.515 -1.5385 -2.3411  0.3671
 5593TIP3    H238271   4.418   2.562   3.550 -0.1655 -0.2421 -0.2325
 5594TIP3   OH238272   6.407   1.218  10.744 -0.0259  0.6071  0.3815
 5594TIP3    H138273   6.346   1.158  10.701  1.2597 -1.1445  0.9321
 5594TIP3    H238274   6.355   1.261  10.811 -1.2216  0.9010 -0.7039
 5595TIP3   OH238275   2.963   4.244  13.481  0.3212  0.0147  0.0983
 5595TIP3    H138276   2.993   4.154  13.495  1.4479  0.5394  1.1806
 5595TIP3    H238277   2.958   4.253  13.386  0.7833 -1.0116 -0.0324
 5596TIP3   OH238278   3.037   2.930  14.388 -0.1674  0.0346 -0.0647
 5596TIP3    H138279   3.130   2.949  14.376  0.0523  0.3975  1.9605
 5596TIP3    H238280   2.992   3.000  14.340  0.6062  0.0724 -0.7449
 5597TIP3   OH238281   0.419   2.787   0.114 -0.4482 -0.1398 -0.4812
 5597TIP3    H138282   0.324   2.796   0.117 -0.3839  0.5906 -0.5603
 5597TIP3    H238283   0.444   2.761   0.202 -0.5535  1.4441  0.0356
 5598TIP3   OH238284   4.262   6.571   3.689  0.0097 -0.2433  0.4581
 5598TIP3    H138285   4.305   6.520   3.620  1.3500  2.6088 -0.8843
 5598TIP3    H238286   4.333   6.601   3.745 -0.5810  1.4536  0.3227
 5599TIP3   OH238287   5.789   4.099   1.992 -0.3177 -0.2241  0.2933
 5599TIP3    H138288   5.874   4.107   1.949 -1.5797 -0.1344 -2.2901
 5599TIP3    H238289   5.760   4.010   1.973 -0.4881 -0.4903  1.7588
 5600TIP3   OH238290   4.553   0.184   1.176  0.3241 -0.7310  0.4089
 5600TIP3    H138291   4.643   0.203   1.204  0.3031  2.4392 -1.4333
 5600TIP3    H238292   4.563   0.127   1.101  0.8768  0.4626 -0.4401
 5601TIP3   OH238293   2.654   1.964   5.390 -0.5897  0.1367  0.1978
 5601TIP3    H138294   2.698   1.950   5.307 -2.5753 -0.8535 -0.7187
 5601TIP3    H238295   2.569   2.000   5.367 -1.3255 -0.5226  1.7664
 5602TIP3   OH238296   1.626   3.035  15.984 -0.3817  0.2703 -0.4489
 5602TIP3    H138297   1.675   3.042  16.066  1.1590  1.7708 -1.4509
 5602TIP3    H238298   1.541   3.075  16.003 -1.2509 -2.2880  1.2835
 5603TIP3   OH238299   4.999   2.182  14.891  0.1761  0.0351  0.5153
 5603TIP3    H138300   4.930   2.147  14.948  1.0418 -0.3229  1.3566
 5603TIP3    H238301   5.004   2.121  14.818  0.5191 -0.6681  1.1284
 5604TIP3   OH238302   2.676   0.974  14.215 -0.2403 -0.2946  0.4355
 5604TIP3    H138303   2.668   0.903  14.150 -1.8070  0.1105  0.1541
 5604TIP3    H238304   2.622   0.945  14.288 -2.1241  1.2434 -0.2891
 5605TIP3   OH238305   1.758   3.982   4.125  0.2132 -0.1962 -0.0843
 5605TIP3    H138306   1.736   3.916   4.191 -0.1865  0.3149  0.2892
 5605TIP3    H238307   1.848   4.006   4.145  0.5715 -1.0755 -0.5978
 5606TIP3   OH238308   5.640   2.636   3.056  0.2634 -0.1648  0.4455
 5606TIP3    H138309   5.560   2.687   3.045 -0.6868 -1.7102 -0.1025
 5606TIP3    H238310   5.612   2.559   3.105  1.2569 -1.0699 -0.3718
 5607TIP3   OH238311   1.272   0.181   1.109 -0.8081 -0.1162 -0.4686
 5607TIP3    H138312   1.292   0.139   1.192  1.0556  1.2575 -0.1891
 5607TIP3    H238313   1.266   0.109   1.046  0.6788 -0.9256  0.3012
 5608TIP3   OH238314   2.643   2.065  12.325 -0.2683  0.0711 -0.5705
 5608TIP3    H138315   2.662   2.085  12.416 -1.0142 -1.3765 -0.0782
 5608TIP3    H238316   2.728   2.063  12.282  0.2779 -1.3245  0.5371
 5609TIP3   OH238317   2.515   1.760  11.874 -0.8258 -0.3605 -0.3199
 5609TIP3    H138318   2.432   1.798  11.904  0.4916  1.6046  0.9253
 5609TIP3    H238319   2.567   1.749  11.954 -0.4452 -3.0652 -0.8913
 5610TIP3   OH238320   3.896   2.831  12.780 -0.3131  0.0295 -0.4072
 5610TIP3    H138321   3.881   2.749  12.827  0.8367 -0.5887 -1.0857
 5610TIP3    H238322   3.895   2.805  12.688 -2.0187  1.1365 -0.7159
 5611TIP3   OH238323   3.444   0.347   1.243  0.4419 -0.5683  0.2510
 5611TIP3    H138324   3.407   0.288   1.178  1.0368 -2.4531  1.5698
 5611TIP3    H238325   3.539   0.333   1.236  0.7461  1.8696 -0.9250
 5612TIP3   OH238326   5.405   2.929   0.171 -0.2863  0.0188  0.4563
 5612TIP3    H138327   5.310   2.939   0.180 -0.1454  1.7691  0.0092
 5612TIP3    H238328   5.434   3.007   0.124  1.3480 -0.6210  0.3705
 5613TIP3   OH238329   5.989   6.125  15.679  0.1459  0.3823 -0.1109
 5613TIP3    H138330   5.962   6.033  15.668 -0.0046  0.1133  2.1863
 5613TIP3    H238331   6.074   6.119  15.724 -0.2866  1.3717  0.8504
 5614TIP3   OH238332   6.078   3.527  15.927  0.2726 -0.1144  0.2894
 5614TIP3    H138333   6.025   3.451  15.905 -0.6268  0.8693 -1.0279
 5614TIP3    H238334   6.025   3.576  15.991 -0.7232  1.1962 -1.5043
 5615TIP3   OH238335   3.839   4.805   3.167 -0.3211  0.1021  0.3830
 5615TIP3    H138336   3.758   4.767   3.200 -1.4340  0.8009 -1.4827
 5615TIP3    H238337   3.862   4.872   3.232 -1.7865  0.5827  0.4202
 5616TIP3   OH238338   1.957   6.613   4.710 -0.1914 -0.5425 -0.7730
 5616TIP3    H138339   1.991   6.527   4.736  1.7510  0.3925 -0.1210
 5616TIP3    H238340   2.030   6.673   4.726 -2.0512  1.4836  0.2496
 5617TIP3   OH238341   5.062   0.038  12.666 -0.7647 -0.3833  0.5054
 5617TIP3    H138342   5.065  -0.040  12.611  0.2199  0.7945 -1.1419
 5617TIP3    H238343   5.142   0.034  12.718 -0.3606 -0.1165 -0.0901
 5618TIP3   OH238344   3.893   3.298   1.201 -0.1219 -0.4974 -0.2495
 5618TIP3    H138345   3.850   3.255   1.127  0.3468  0.2402 -0.9506
 5618TIP3    H238346   3.904   3.228   1.266 -1.6603 -0.8674 -0.3739
 5619TIP3   OH238347   3.552   1.058  14.814  0.2275  0.2534  0.7351
 5619TIP3    H138348   3.538   0.974  14.857  1.3769 -1.2436 -1.7256
 5619TIP3    H238349   3.466   1.100  14.815 -0.4246 -1.0823  1.6915
 5620TIP3   OH238350   3.857   4.043   4.514  0.4553 -0.1265 -0.3864
 5620TIP3    H138351   3.902   4.074   4.593 -0.2736 -0.6410  0.2365
 5620TIP3    H238352   3.920   4.058   4.443  0.9430  0.7604  0.2209
 5621TIP3   OH238353   6.708   4.254   0.991  0.5392 -0.7343 -0.1112
 5621TIP3    H138354   6.725   4.206   1.072 -0.9892  0.5263  0.9859
 5621TIP3    H238355   6.616   4.237   0.972  0.6051 -0.1352 -0.9847
 5622TIP3   OH238356   6.637   6.131  16.912 -0.4608  0.1043  0.1743
 5622TIP3    H138357   6.601   6.062  16.969  1.2881 -1.5737 -0.6778
 5622TIP3    H238358   6.650   6.087  16.828 -0.0675  1.7147 -0.6073
 5623TIP3   OH238359   0.296   0.058  12.882 -0.0275 -0.1400 -0.3683
 5623TIP3    H138360   0.369  -0.000  12.860 -1.1775 -2.0445  0.6771
 5623TIP3    H238361   0.314   0.139  12.834  2.3197 -0.8786 -0.7909
 5624TIP3   OH238362   2.421   2.757  15.047  0.0971 -0.3122  0.1132
 5624TIP3    H138363   2.327   2.742  15.046 -0.0602  0.6403 -1.5703
 5624TIP3    H238364   2.444   2.774  14.956  1.8349 -0.1412  0.5576
 5625TIP3   OH238365   5.662   5.986  13.146  0.4498 -0.5583 -0.2440
 5625TIP3    H138366   5.596   6.054  13.133  0.9673 -0.2288 -1.1770
 5625TIP3    H238367   5.745   6.034  13.147  0.7161 -1.0239  0.4858
 5626TIP3   OH238368   0.711   1.164  11.620 -0.0013  0.2167  0.1690
 5626TIP3    H138369   0.723   1.190  11.529  2.1940 -2.2676 -0.3141
 5626TIP3    H238370   0.778   1.097  11.635 -1.2150 -0.4081  3.2053
 5627TIP3   OH238371   6.327   5.231   3.774 -0.3018 -0.6018  0.8667
 5627TIP3    H138372   6.289   5.301   3.721  1.1995  0.1639  0.7871
 5627TIP3    H238373   6.255   5.170   3.788 -1.8192  1.2909  1.5122
 5628TIP3   OH238374   6.749   4.923   5.813 -0.3331 -0.1837 -0.0747
 5628TIP3    H138375   6.774   5.013   5.835 -0.1370 -0.0549 -0.8067
 5628TIP3    H238376   6.832   4.880   5.790 -0.2729 -0.8692  1.3469
 5629TIP3   OH238377   1.725   2.607  13.334 -0.3731 -0.4301  0.1383
 5629TIP3    H138378   1.742   2.644  13.420 -0.6995 -0.0322  0.0354
 5629TIP3    H238379   1.680   2.524  13.351 -1.6846  0.3005  0.3324
 5630TIP3   OH238380   4.262   6.434  12.623 -0.1108 -0.7849  0.2955
 5630TIP3    H138381   4.223   6.507  12.574 -0.7354 -1.3314 -0.0254
 5630TIP3    H238382   4.277   6.366  12.558 -1.9999 -1.9489  1.0199
 5631TIP3   OH238383   1.992   2.063   4.316  0.3611  0.2649 -0.7651
 5631TIP3    H138384   2.056   2.116   4.364  0.5696 -1.3885  0.8537
 5631TIP3    H238385   1.929   2.035   4.383 -1.1523  0.5233 -2.0486
 5632TIP3   OH238386   6.200   0.805   2.667  0.1761 -0.5833 -0.1482
 5632TIP3    H138387   6.284   0.763   2.689  0.3311 -0.4530 -0.4704
 5632TIP3    H238388   6.146   0.794   2.744  1.5765  2.1695  1.2985
 5633TIP3   OH238389   5.049   2.875   0.581  0.2461  0.2273 -0.8774
 5633TIP3    H138390   5.116   2.907   0.520 -0.8400 -0.4751 -2.4797
 5633TIP3    H238391   4.974   2.934   0.567 -0.4125 -0.6433 -1.0718
 5634TIP3   OH238392   0.740   0.611  16.787  0.0869  0.1216  0.0616
 5634TIP3    H138393   0.828   0.575  16.780  0.1837  0.6038 -1.4717
 5634TIP3    H238394   0.692   0.571  16.714 -0.7018  0.6144  0.3059
 5635TIP3   OH238395   5.520   3.647   5.792 -0.1711 -0.0871  0.2258
 5635TIP3    H138396   5.519   3.686   5.704 -1.3001  0.2819  0.3968
 5635TIP3    H238397   5.466   3.706   5.845  1.1652  0.1315  1.3689
 5636TIP3   OH238398   6.146   4.310   5.149  0.3978 -0.9050  0.4380
 5636TIP3    H138399   6.143   4.215   5.147  0.2251 -0.8894 -1.9094
 5636TIP3    H238400   6.061   4.338   5.117  1.1425  0.0101 -0.8100
 5637TIP3   OH238401   0.797   2.783   0.935  0.3539 -0.5808  0.1942
 5637TIP3    H138402   0.818   2.759   0.845 -0.6275 -0.2027 -0.1451
 5637TIP3    H238403   0.785   2.699   0.980  0.6501 -0.7659 -0.0687
 5638TIP3   OH238404   5.547   0.514  15.941  0.6657 -0.3430 -0.6334
 5638TIP3    H138405   5.565   0.504  15.848  0.4248  2.1843 -1.0035
 5638TIP3    H238406   5.590   0.597  15.965 -0.4082 -0.2734  1.1727
 5639TIP3   OH238407   4.181   5.403   4.288 -0.6222  0.0578  0.4261
 5639TIP3    H138408   4.106   5.415   4.229 -0.0002 -0.2757 -0.4337
 5639TIP3    H238409   4.232   5.483   4.278 -0.4615 -0.0438  0.4302
 5640TIP3   OH238410   2.147   2.745  15.008 -0.1596  0.2218  0.2580
 5640TIP3    H138411   2.116   2.725  14.919  0.3688  2.1590 -0.3845
 5640TIP3    H238412   2.079   2.710  15.065 -0.8908 -0.3589 -0.9396
 5641TIP3   OH238413   3.974   4.973   2.675 -0.2913 -0.2188 -0.5377
 5641TIP3    H138414   4.053   5.012   2.637  1.1973 -1.0460  1.5944
 5641TIP3    H238415   3.923   5.048   2.706  0.4773  0.2495 -0.3923
 5642TIP3   OH238416   4.066   5.577   0.094 -0.4998 -0.3746  0.0135
 5642TIP3    H138417   4.143   5.627   0.122  1.3462 -3.5586  0.7645
 5642TIP3    H238418   4.083   5.557   0.002 -1.2720  0.3903 -0.3047
 5643TIP3   OH238419   1.558   4.974   0.821 -0.1593 -0.2053 -0.6495
 5643TIP3    H138420   1.599   4.888   0.811  0.3880  0.2322 -2.2624
 5643TIP3    H238421   1.627   5.030   0.856 -0.8043 -0.6480  1.3977
 5644TIP3   OH238422   6.575   5.291  11.807 -0.0646 -0.3576 -0.0478
 5644TIP3    H138423   6.603   5.200  11.818 -0.2923 -0.5840 -1.2878
 5644TIP3    H238424   6.555   5.321  11.896  2.9001 -0.5900  0.7440
 5645TIP3   OH238425   0.583   5.856   1.229  0.7010  1.2679 -0.2500
 5645TIP3    H138426   0.654   5.793   1.243 -0.5767 -0.2706 -0.4751
 5645TIP3    H238427   0.539   5.862   1.314 -0.1356  0.6453 -0.6354
 5646TIP3   OH238428   3.875   0.861  12.445  0.0826 -0.2476 -0.0226
 5646TIP3    H138429   3.942   0.887  12.508 -0.7804  0.3802  0.6509
 5646TIP3    H238430   3.809   0.816  12.498 -1.4222  1.6956 -0.2197
 5647TIP3   OH238431   0.669   4.932  10.989  0.0317  0.0643 -0.0189
 5647TIP3    H138432   0.624   4.964  10.911  0.9694  1.0138 -0.1780
 5647TIP3    H238433   0.634   4.985  11.060  2.3391  2.2059 -0.4300
 5648TIP3   OH238434   0.557   3.581   1.587 -0.3816  0.0229 -0.3562
 5648TIP3    H138435   0.594   3.493   1.578 -1.4147 -0.6661  1.7379
 5648TIP3    H238436   0.487   3.571   1.652 -2.2230  1.8892 -2.0028
 5649TIP3   OH238437   5.486   0.871   4.180 -0.5109 -0.9037 -0.2040
 5649TIP3    H138438   5.489   0.875   4.085 -0.3024 -1.7067 -0.2393
 5649TIP3    H238439   5.525   0.786   4.202  0.2339 -0.3555  0.6400
 5650TIP3   OH238440   0.296   6.301  15.948 -0.0013  0.6787  0.1734
 5650TIP3    H138441   0.347   6.265  15.875 -0.2187  1.5182 -0.3996
 5650TIP3    H238442   0.308   6.238  16.019 -0.4982 -0.5947 -0.8587
 5651TIP3   OH238443   6.072   1.180   4.745  0.3644 -0.1470 -0.4423
 5651TIP3    H138444   6.011   1.125   4.793 -0.0150  0.2766 -0.4317
 5651TIP3    H238445   6.026   1.202   4.664  0.1508  0.8797 -0.0509
 5652TIP3   OH238446   6.034   1.963   6.810 -0.2162 -0.3545  0.1563
 5652TIP3    H138447   6.049   1.878   6.769 -1.0756 -0.3275 -0.2285
 5652TIP3    H238448   5.952   1.952   6.858 -0.5133  0.3650 -0.1887
 5653TIP3   OH238449   0.058   3.845   5.567  0.3477  0.9373  0.0502
 5653TIP3    H138450   0.142   3.808   5.540  0.8203  2.1187 -0.1264
 5653TIP3    H238451   0.080   3.912   5.632 -0.6056 -0.0622  1.4351
 5654TIP3   OH238452   2.960   4.866   2.577  0.0844  0.3218 -0.0384
 5654TIP3    H138453   2.950   4.840   2.486  2.0566 -2.6253  0.5127
 5654TIP3    H238454   3.016   4.799   2.615 -2.3031  0.3729  3.8521
 5655TIP3   OH238455   2.123   3.939  12.582 -0.2785  0.1511 -0.0226
 5655TIP3    H138456   2.030   3.951  12.563 -0.2706 -0.5831 -0.5540
 5655TIP3    H238457   2.164   4.022  12.555 -0.6106  0.0303 -0.9275
 5656TIP3   OH238458   2.911   2.929   1.895 -0.5382 -0.7191 -0.6865
 5656TIP3    H138459   2.968   2.945   1.820 -1.4188  0.2702 -1.1554
 5656TIP3    H238460   2.824   2.955   1.865 -0.8948 -0.3078  0.6664
 5657TIP3   OH238461   4.400   2.681   4.302  0.1286 -0.7062 -0.0160
 5657TIP3    H138462   4.463   2.745   4.268 -1.0255  0.2705 -0.3677
 5657TIP3    H238463   4.448   2.598   4.305  0.5966 -0.5883 -3.0163
 5658TIP3   OH238464   2.418   5.808   4.539  0.0104 -0.2395 -0.2340
 5658TIP3    H138465   2.483   5.738   4.538 -1.9289 -2.0941 -1.5213
 5658TIP3    H238466   2.412   5.837   4.448 -0.1844  0.6670  0.0602
 5659TIP3   OH238467   0.997   4.113   2.740 -0.3151  0.0309  0.3511
 5659TIP3    H138468   1.092   4.119   2.750 -0.3372  0.2092  0.4585
 5659TIP3    H238469   0.970   4.048   2.805 -0.2880  0.1169  0.4480
 5660TIP3   OH238470   5.254   4.087  17.107 -0.5419  0.3046  0.4183
 5660TIP3    H138471   5.312   4.068  17.180 -2.8086  0.5852  2.3449
 5660TIP3    H238472   5.232   4.001  17.071 -2.1452 -0.1188  2.2896
 5661TIP3   OH238473   2.590   4.719  14.908 -0.6509  0.3139 -0.6138
 5661TIP3    H138474   2.556   4.807  14.893 -1.2610  0.1678 -0.0564
 5661TIP3    H238475   2.615   4.718  15.000 -0.8425 -0.1728 -0.5689
 5662TIP3   OH238476   5.624   1.226  12.096 -0.0888 -0.3138  0.1771
 5662TIP3    H138477   5.602   1.225  12.189 -1.8990  1.0339 -0.2138
 5662TIP3    H238478   5.649   1.317  12.079  0.8214 -0.6859 -0.5385
 5663TIP3   OH238479   4.723   1.285  14.152  0.0198  0.0232 -0.0882
 5663TIP3    H138480   4.692   1.198  14.128 -0.6035  0.2689 -0.1846
 5663TIP3    H238481   4.644   1.333  14.178  0.3690  0.5294  0.0575
 5664TIP3   OH238482   4.443   5.428  14.522  0.5364  0.1406  0.1701
 5664TIP3    H138483   4.384   5.359  14.554  0.3010  1.4507  2.6392
 5664TIP3    H238484   4.525   5.383  14.504  0.3882 -0.8071  1.7638
 5665TIP3   OH238485   6.645   3.838   3.784  0.6647  0.2469 -0.0264
 5665TIP3    H138486   6.620   3.746   3.770 -0.1098  0.3681  0.5061
 5665TIP3    H238487   6.730   3.833   3.828 -0.1031 -0.2555  1.4493
 5666TIP3   OH238488   2.529   0.434   1.749  0.2041  0.6746  0.2694
 5666TIP3    H138489   2.478   0.462   1.674  2.4642  1.4781 -1.0179
 5666TIP3    H238490   2.477   0.364   1.789 -1.9791  1.6443 -0.8246
 5667TIP3   OH238491   2.404   4.882  13.927  0.8500  0.3395 -0.0474
 5667TIP3    H138492   2.404   4.955  13.988  0.7658  0.8340 -0.6407
 5667TIP3    H238493   2.383   4.920  13.842 -0.5594 -0.5866 -0.1225
 5668TIP3   OH238494   2.443   1.972   2.837 -0.3134  0.7812 -0.2657
 5668TIP3    H138495   2.384   2.012   2.773  0.4809  2.0786 -0.1918
 5668TIP3    H238496   2.461   2.041   2.901 -1.1992 -0.5447  1.4487
 5669TIP3   OH238497   2.667   2.305   4.925  0.7691 -0.0991  0.6066
 5669TIP3    H138498   2.706   2.392   4.924 -1.5927  1.0109 -2.1155
 5669TIP3    H238499   2.595   2.311   4.987  0.5399 -0.0789  0.3392
 5670TIP3   OH238500   5.753   6.033  15.363  0.0318 -0.0940 -0.3640
 5670TIP3    H138501   5.798   5.950  15.377 -1.3698 -0.9096 -0.5657
 5670TIP3    H238502   5.802   6.076  15.293  2.1960  0.3360  1.3859
 5671TIP3   OH238503   1.681   3.845  13.113 -0.4044  0.1486 -0.1549
 5671TIP3    H138504   1.609   3.859  13.051  0.8583 -0.0026 -1.6823
 5671TIP3    H238505   1.646   3.873  13.197 -1.9179  1.0276 -1.0619
 5672TIP3   OH238506   1.739   2.906   4.716 -0.4524  0.1190 -0.1030
 5672TIP3    H138507   1.725   2.911   4.621 -0.0832 -1.4271 -0.2436
 5672TIP3    H238508   1.833   2.891   4.726 -0.8046 -1.8811  0.4105
 5673TIP3   OH238509   4.052   1.046   5.307 -0.9609 -0.0626 -0.3960
 5673TIP3    H138510   4.065   0.977   5.372 -0.2737  0.0486 -0.4138
 5673TIP3    H238511   3.960   1.071   5.317 -1.1643 -0.8571 -0.2769
 5674TIP3   OH238512   3.559   1.582  14.994  0.1345  0.1322 -0.3697
 5674TIP3    H138513   3.616   1.607  14.921  0.3202  0.3776 -0.1418
 5674TIP3    H238514   3.602   1.620  15.071 -1.2113  1.7147 -0.3812
 5675TIP3   OH238515   2.476   4.750  14.338  0.4889 -0.5227 -0.5176
 5675TIP3    H138516   2.564   4.769  14.304  0.4651  0.5227 -0.0214
 5675TIP3    H238517   2.417   4.786  14.273  0.4212 -1.2064 -0.8399
 5676TIP3   OH238518   3.517   3.741   2.047 -0.2486 -0.2555  0.7001
 5676TIP3    H138519   3.587   3.772   2.105 -1.3823  1.5261  1.1759
 5676TIP3    H238520   3.439   3.739   2.102 -0.8978 -0.6806 -0.2140
 5677TIP3   OH238521   6.791   1.767   1.745 -0.1482  0.4391 -0.9065
 5677TIP3    H138522   6.872   1.735   1.783 -1.3403 -1.4316  0.1331
 5677TIP3    H238523   6.776   1.851   1.788  0.3633  0.0061  0.1200
 5678TIP3   OH238524   4.930   5.766   3.086 -0.1628 -0.0616 -0.3207
 5678TIP3    H138525   4.847   5.747   3.130 -0.3671 -0.2925 -0.8048
 5678TIP3    H238526   4.996   5.726   3.143 -0.4988 -1.1948 -0.7069
 5679TIP3   OH238527   5.569   5.008  13.248  0.2380  0.3902 -0.1353
 5679TIP3    H138528   5.572   5.104  13.242  0.3614  0.5030  1.3547
 5679TIP3    H238529   5.500   4.991  13.313  0.0504 -0.5411 -0.5777
 5680TIP3   OH238530   2.026   3.570  14.733 -0.0047 -0.2981  0.2092
 5680TIP3    H138531   2.000   3.505  14.668  0.3540 -0.0533 -0.1825
 5680TIP3    H238532   1.955   3.634  14.733  0.3666  0.1145 -0.5100
 5681TIP3   OH238533   0.979   4.557   1.455  0.7588 -0.3006  0.1480
 5681TIP3    H138534   1.012   4.643   1.478  1.4233 -0.2186 -1.0692
 5681TIP3    H238535   1.057   4.507   1.429  0.0788 -0.4081 -1.8192
 5682TIP3   OH238536   4.089   6.469   5.485  0.2574  0.1631  0.4352
 5682TIP3    H138537   4.065   6.533   5.552  1.3221  1.8439 -0.7687
 5682TIP3    H238538   4.035   6.393   5.505 -0.8199  1.3240  2.0695
 5683TIP3   OH238539   1.894   1.997   3.550  0.3117 -0.1037  0.0392
 5683TIP3    H138540   1.828   1.935   3.516  1.8047 -1.9294  0.3686
 5683TIP3    H238541   1.874   2.005   3.643  1.1727 -1.5161  0.3699
 5684TIP3   OH238542   3.949   6.179  13.832 -0.2075 -0.0555 -0.4126
 5684TIP3    H138543   3.870   6.136  13.800 -0.5293  1.0421 -1.1207
 5684TIP3    H238544   3.940   6.270  13.805 -0.6838  1.0347  3.1991
 5685TIP3   OH238545   3.713   3.059  11.343 -0.7417  0.0742  0.5139
 5685TIP3    H138546   3.643   3.021  11.396 -0.0880 -0.5556  0.9220
 5685TIP3    H238547   3.747   3.131  11.396 -0.0549 -0.5869  0.9653
 5686TIP3   OH238548   6.436   5.085  10.992 -0.0325  0.0106  0.3953
 5686TIP3    H138549   6.343   5.070  10.976 -0.0854  1.0000 -0.2877
 5686TIP3    H238550   6.469   5.122  10.910  0.8247  0.2524  0.8380
 5687TIP3   OH238551   0.100   3.768   3.481  0.1668 -0.4043 -0.1453
 5687TIP3    H138552   0.173   3.816   3.522 -0.1658  1.1463 -1.3099
 5687TIP3    H238553   0.077   3.701   3.545  1.2777  0.3993  1.1352
 5688TIP3   OH238554   3.489   2.060   2.488  0.5837 -1.0035 -0.6469
 5688TIP3    H138555   3.479   2.153   2.509  0.0366 -1.3498  0.6415
 5688TIP3    H238556   3.573   2.055   2.442 -0.9840  0.6228 -3.8149
 5689TIP3   OH238557   6.685   4.824   3.994  0.0615 -0.0644 -0.3794
 5689TIP3    H138558   6.708   4.859   4.080 -0.8643  1.3557 -0.6936
 5689TIP3    H238559   6.600   4.782   4.007  0.6230 -1.1767 -0.2683
 5690TIP3   OH238560   0.734   1.897   0.641 -0.1453  0.5274 -0.2565
 5690TIP3    H138561   0.649   1.855   0.653 -0.7660  1.9601  0.4199
 5690TIP3    H238562   0.728   1.940   0.556  0.3574 -0.3949 -0.7737
 5691TIP3   OH238563   3.414   6.677  12.493 -0.5404  0.4546  0.2430
 5691TIP3    H138564   3.440   6.762  12.456  2.6615 -1.2792 -1.7742
 5691TIP3    H238565   3.453   6.676  12.581  0.9544  0.4011 -0.4043
 5692TIP3   OH238566   5.488   0.371  15.463 -0.1446 -0.0765  0.8081
 5692TIP3    H138567   5.397   0.398  15.475 -0.7511 -1.2029 -1.0595
 5692TIP3    H238568   5.484   0.301  15.397  2.0372 -0.3478  0.9240
 5693TIP3   OH238569   1.453   4.728  16.228  0.6751 -0.3043  0.9243
 5693TIP3    H138570   1.402   4.788  16.282  0.7414  0.8697 -0.2828
 5693TIP3    H238571   1.544   4.742  16.255  0.9295  1.7906 -0.8803
 5694TIP3   OH238572   5.997   2.912  12.070 -0.1717  0.2328 -0.2641
 5694TIP3    H138573   5.946   2.852  12.124 -0.0294 -0.8640 -1.3144
 5694TIP3    H238574   6.085   2.908  12.107 -0.6920  1.7210  1.2174
 5695TIP3   OH238575   5.914   4.806  10.483  0.6233  0.5804  0.6278
 5695TIP3    H138576   5.967   4.766  10.553  1.2996 -1.6774 -1.1359
 5695TIP3    H238577   5.833   4.831  10.527 -0.1249 -3.3716  1.7125
 5696TIP3   OH238578   1.529   2.890   5.687  0.2828  0.1732 -0.3129
 5696TIP3    H138579   1.470   2.843   5.627 -1.1674 -0.8565  1.8424
 5696TIP3    H238580   1.615   2.882   5.648 -0.9581  1.6356 -3.5229
 5697TIP3   OH238581   1.601   5.860  11.202 -0.1739  0.3408 -0.3607
 5697TIP3    H138582   1.642   5.790  11.151  0.9544  0.4920  0.3117
 5697TIP3    H238583   1.507   5.845  11.192  0.0469 -1.9473  0.6778
 5698TIP3   OH238584   4.693   5.956   2.270 -0.3694 -0.2497  0.2923
 5698TIP3    H138585   4.766   5.903   2.238  0.2214  0.0615  1.1142
 5698TIP3    H238586   4.622   5.894   2.285  0.1994 -0.7457  0.9039
 5699TIP3   OH238587   1.692   2.918   4.027  0.2554 -0.2300 -0.3020
 5699TIP3    H138588   1.731   2.968   3.956  1.4325 -0.8688 -0.1218
 5699TIP3    H238589   1.598   2.928   4.015  0.4129  3.6907  0.9016
 5700TIP3   OH238590   4.883   5.416   5.002 -0.4644  0.7060  0.4479
 5700TIP3    H138591   4.812   5.455   5.053 -0.1034 -0.3361  1.7586
 5700TIP3    H238592   4.874   5.322   5.016  0.6409  0.5138 -0.0990
 5701TIP3   OH238593   4.057   0.607   3.201 -0.3658  0.2383  0.1573
 5701TIP3    H138594   4.100   0.691   3.185 -0.0891 -0.2604 -1.8153
 5701TIP3    H238595   3.969   0.618   3.165 -0.9860  0.3169  1.6629
 5702TIP3   OH238596   5.500   1.636   1.716  0.7543 -0.1346 -0.3913
 5702TIP3    H138597   5.556   1.638   1.794  1.3248  1.1168 -0.8125
 5702TIP3    H238598   5.424   1.583   1.742 -0.0119  1.8987  1.6586
 5703TIP3   OH238599   5.509   2.741   2.770  0.0199  0.4744  0.1224
 5703TIP3    H138600   5.498   2.775   2.682  1.0868 -0.8747 -0.5724
 5703TIP3    H238601   5.429   2.691   2.788  0.5145 -0.6569 -0.7660
 5704TIP3   OH238602   2.446   1.073  13.769 -0.2063  0.2624  0.3926
 5704TIP3    H138603   2.516   1.063  13.704  0.7262  1.2787  1.2221
 5704TIP3    H238604   2.454   0.996  13.825 -0.7688 -0.4248 -0.4608
 5705TIP3   OH238605   6.567   3.927  12.293 -0.8935 -0.2339 -0.1734
 5705TIP3    H138606   6.657   3.943  12.324 -0.3017 -2.3001 -0.6995
 5705TIP3    H238607   6.559   3.831  12.294 -2.6067 -0.1263 -1.5330
 5706TIP3   OH238608   0.406   3.816  12.591 -0.4362 -0.5837 -0.3093
 5706TIP3    H138609   0.414   3.906  12.624  1.8161 -0.3463 -1.4280
 5706TIP3    H238610   0.452   3.763  12.656 -3.4118 -1.2046  1.3533
 5707TIP3   OH238611   5.451   1.927   4.585  0.2711  0.0798 -0.1919
 5707TIP3    H138612   5.389   1.885   4.525  1.9094 -1.0220 -1.1843
 5707TIP3    H238613   5.489   1.999   4.533  1.2758 -0.5202 -0.3111
 5708TIP3   OH238614   4.104   1.417  14.484 -0.1931  0.3371  0.1176
 5708TIP3    H138615   4.079   1.475  14.555  0.8783  0.2804  0.5388
 5708TIP3    H238616   4.187   1.379  14.511 -0.2713 -0.4518 -0.7111
 5709TIP3   OH238617   3.086   0.336  11.578  0.6805  0.2601 -0.2763
 5709TIP3    H138618   3.090   0.249  11.538  0.6062  0.0417  0.1866
 5709TIP3    H238619   3.176   0.368  11.576  0.7408  0.0891 -0.2626
 5710TIP3   OH238620   2.144   3.974  13.064  0.0300 -0.1730 -0.3151
 5710TIP3    H138621   2.154   3.930  12.979  1.3389  0.2917 -0.4171
 5710TIP3    H238622   2.231   4.012  13.081 -0.6243  0.9626  0.5431
 5711TIP3   OH238623   6.235   1.726   4.854 -0.1425  0.5449 -0.0859
 5711TIP3    H138624   6.218   1.665   4.926 -1.1391  0.6265 -0.2465
 5711TIP3    H238625   6.222   1.674   4.775 -0.1609  0.7519 -0.2184
 5712TIP3   OH238626   2.795   4.105  14.692 -0.5200  0.2063 -0.4150
 5712TIP3    H138627   2.804   4.016  14.658  0.5625  0.4808 -0.8410
 5712TIP3    H238628   2.720   4.141  14.645 -0.4249 -0.1858 -0.8685
 5713TIP3   OH238629   5.585   2.282   5.767  0.5856 -0.1167 -0.3579
 5713TIP3    H138630   5.659   2.333   5.734  0.4058 -0.5495 -1.4538
 5713TIP3    H238631   5.624   2.201   5.801  0.7212  0.1175  0.0436
 5714TIP3   OH238632   3.390   6.281   1.309  0.4676  0.3357  0.4410
 5714TIP3    H138633   3.328   6.318   1.372  0.3302  1.8330 -0.5774
 5714TIP3    H238634   3.448   6.226   1.363  1.3908  2.9074  2.1536
 5715TIP3   OH238635   4.760   0.320   1.308 -0.0060  0.5938  0.0835
 5715TIP3    H138636   4.699   0.343   1.378 -0.0926  0.0271  0.1982
 5715TIP3    H238637   4.828   0.268   1.352  0.0948  0.4850 -0.2013
 5716TIP3   OH238638   6.135   1.059  12.281  0.1057 -0.5156  0.4468
 5716TIP3    H138639   6.175   0.974  12.302 -0.4537 -0.4066  1.9783
 5716TIP3    H238640   6.046   1.053  12.315 -0.5642 -0.0103 -1.1616
 5717TIP3   OH238641   0.240   6.248   4.103  0.1406  0.3782  0.1716
 5717TIP3    H138642   0.287   6.321   4.063  0.5733  0.4039  0.7114
 5717TIP3    H238643   0.267   6.171   4.053  2.0537  0.1469  1.4911
 5718TIP3   OH238644   2.947   3.803   3.439 -0.3508 -0.0510 -0.3919
 5718TIP3    H138645   3.003   3.812   3.516  0.0748 -0.8420 -0.6007
 5718TIP3    H238646   2.898   3.885   3.435 -1.4345 -0.5644  1.5664
 5719TIP3   OH238647   5.686   6.013   5.379  0.1130 -0.3457 -0.2313
 5719TIP3    H138648   5.737   6.046   5.305 -0.2940 -1.0056 -0.8129
 5719TIP3    H238649   5.595   6.021   5.351 -0.0496 -0.4805  0.2453
 5720TIP3   OH238650   4.759   3.812  12.160  0.2317  0.2611  0.1256
 5720TIP3    H138651   4.693   3.880  12.171 -0.2781 -0.0572 -0.8437
 5720TIP3    H238652   4.708   3.732  12.148  0.8251 -0.4908  2.3538
 5721TIP3   OH238653   5.116   1.172  15.095  0.1201  0.6756 -0.0181
 5721TIP3    H138654   5.201   1.171  15.051 -0.1446  1.5341 -0.5570
 5721TIP3    H238655   5.052   1.169  15.024 -0.2980 -0.2495  0.4006
 5722TIP3   OH238656   4.796   0.319  15.370  0.1276  0.1463  0.2086
 5722TIP3    H138657   4.812   0.257  15.441  0.5974  0.3351  0.2711
 5722TIP3    H238658   4.854   0.393  15.389  1.0774 -0.2779 -0.9582
 5723TIP3   OH238659   1.551   1.558   1.583  0.3533  0.2506 -0.4472
 5723TIP3    H138660   1.603   1.627   1.542 -0.6349  1.0382 -0.3942
 5723TIP3    H238661   1.578   1.558   1.675 -0.0892  0.9980 -0.3136
 5724TIP3   OH238662   5.158   5.065  13.342  0.2188 -0.2253  0.3875
 5724TIP3    H138663   5.157   5.016  13.424  0.4298  0.0107  0.5301
 5724TIP3    H238664   5.138   4.999  13.275  2.2636 -0.8841  0.3833
 5725TIP3   OH238665   4.743   4.160  15.836  0.0869 -0.4809 -0.2616
 5725TIP3    H138666   4.723   4.113  15.756 -0.2160  1.4644 -1.3642
 5725TIP3    H238667   4.663   4.154  15.888 -0.8454  0.9535 -1.4895
 5726TIP3   OH238668   5.911   5.150   5.291  0.4299  0.3063 -0.0481
 5726TIP3    H138669   5.825   5.191   5.280  1.0699  1.6692 -0.1284
 5726TIP3    H238670   5.961   5.213   5.343  1.8039  0.1449 -1.1503
 5727TIP3   OH238671   3.712   2.073   1.514 -0.5813  0.1240  0.4457
 5727TIP3    H138672   3.797   2.072   1.470 -1.4195  1.3147 -1.2487
 5727TIP3    H238673   3.718   2.146   1.576 -0.7342  0.9324 -0.4703
 5728TIP3   OH238674   2.298   5.453   6.434 -0.2281  0.1629 -0.1856
 5728TIP3    H138675   2.346   5.492   6.360  0.2700  2.4085  1.2657
 5728TIP3    H238676   2.213   5.497   6.433 -0.7213 -0.7891 -0.2302
 5729TIP3   OH238677   0.043   1.944   4.069 -0.2219 -0.1321 -0.5941
 5729TIP3    H138678  -0.042   1.981   4.093 -0.2357 -0.1267 -0.6524
 5729TIP3    H238679   0.048   1.862   4.118  0.8559  1.1217  1.4746
 5730TIP3   OH238680   3.702   5.628   6.004 -0.2077 -0.4060  0.2206
 5730TIP3    H138681   3.662   5.593   5.924 -0.6624 -0.5663  0.5170
 5730TIP3    H238682   3.710   5.553   6.062  1.0167 -0.4747 -0.0332
 5731TIP3   OH238683   4.494   2.967   2.099 -0.1944 -0.2302  0.3003
 5731TIP3    H138684   4.584   2.937   2.082  0.2262  1.4978 -0.5939
 5731TIP3    H238685   4.494   2.990   2.191 -0.4924 -2.8286  0.9849
 5732TIP3   OH238686   6.545   1.656  14.100 -0.3263 -0.6508 -0.4487
 5732TIP3    H138687   6.583   1.735  14.060  0.0835 -0.3870  0.4382
 5732TIP3    H238688   6.600   1.584  14.069 -0.2711 -0.4983 -0.7023
 5733TIP3   OH238689   2.170   6.532  17.278  0.1752 -0.3296 -0.3172
 5733TIP3    H138690   2.130   6.467  17.220 -0.3300  0.4121 -0.7916
 5733TIP3    H238691   2.103   6.549  17.344 -0.4689  1.2487 -1.3678
 5734TIP3   OH238692   4.005   4.306  12.923  0.0970 -0.3554  0.4742
 5734TIP3    H138693   4.013   4.351  13.007 -1.0029 -1.0820  0.9714
 5734TIP3    H238694   4.073   4.346  12.868 -0.7405  1.8088  0.9620
 5735TIP3   OH238695   4.158   0.836   2.760 -0.4127  0.0403 -0.1264
 5735TIP3    H138696   4.172   0.756   2.710 -2.7374  0.0162 -0.7871
 5735TIP3    H238697   4.073   0.825   2.801 -1.3715  2.6978 -1.2648
 5736TIP3   OH238698   0.400   4.010  16.974 -0.5593  0.8099  0.5056
 5736TIP3    H138699   0.375   4.081  16.915  1.8952  1.7027  0.4999
 5736TIP3    H238700   0.426   3.938  16.917 -0.5427  0.8168  0.5041
 5737TIP3   OH238701   4.312   3.580   0.362  0.1845  0.2867 -0.2373
 5737TIP3    H138702   4.335   3.498   0.407  0.6803  0.4969 -0.1004
 5737TIP3    H238703   4.217   3.587   0.370  0.1222 -0.3659 -0.4025
 5738TIP3   OH238704   2.993   2.571   6.420  0.4812  0.3895  0.0307
 5738TIP3    H138705   2.981   2.478   6.403 -0.9322  0.7401 -0.9927
 5738TIP3    H238706   2.905   2.607   6.419  0.9700  1.6525  0.9832
 5739TIP3   OH238707   4.845   5.121   0.113  0.0438  0.6574 -0.2984
 5739TIP3    H138708   4.868   5.172   0.035  0.5623  0.3751 -0.3381
 5739TIP3    H238709   4.929   5.109   0.159 -0.3567  1.3651  0.6339
 5740TIP3   OH238710   0.977   2.512   2.999  0.4150  0.0642  0.3220
 5740TIP3    H138711   0.995   2.605   3.008  0.4484  0.1513 -0.5752
 5740TIP3    H238712   0.894   2.499   3.045  0.6611  0.4396  0.8739
 5741TIP3   OH238713   2.445   5.479  16.966  0.5297 -0.0044 -0.0633
 5741TIP3    H138714   2.504   5.544  16.927 -0.3452  1.6216  1.2973
 5741TIP3    H238715   2.452   5.493  17.060 -1.4672 -0.2780  0.1474
 5742TIP3   OH238716   1.869   3.510   5.391  0.1904  0.1918 -0.0271
 5742TIP3    H138717   1.830   3.562   5.321 -1.2516 -0.3187  0.3635
 5742TIP3    H238718   1.830   3.423   5.381 -0.7749  0.3649  1.9485
 5743TIP3   OH238719   6.186   5.573   1.254  1.1994 -0.4195 -0.3006
 5743TIP3    H138720   6.135   5.613   1.183  0.3305  0.3655  0.7389
 5743TIP3    H238721   6.166   5.480   1.249  0.5533 -0.2694 -0.6400
 5744TIP3   OH238722   1.970   5.337  13.774 -0.2529  0.7818  0.4555
 5744TIP3    H138723   2.010   5.260  13.734 -0.2741  1.6111 -1.2476
 5744TIP3    H238724   1.884   5.308  13.804  0.3252 -0.2081  1.1780
 5745TIP3   OH238725   4.342   3.273   3.262 -0.2216 -0.0737  0.2497
 5745TIP3    H138726   4.343   3.367   3.280  0.4066  0.0486 -0.4162
 5745TIP3    H238727   4.430   3.254   3.230  0.0154 -1.1078  1.4781
 5746TIP3   OH238728   3.745   4.584   3.416 -0.1632 -0.2752 -0.5488
 5746TIP3    H138729   3.651   4.571   3.401 -0.0574 -0.9074 -0.6879
 5746TIP3    H238730   3.784   4.497   3.401  0.4604  0.0144 -0.6290
 5747TIP3   OH238731   5.255   0.856   2.314  0.4454 -0.2632 -0.0677
 5747TIP3    H138732   5.349   0.853   2.331  0.4692 -1.4792 -0.3715
 5747TIP3    H238733   5.238   0.778   2.262 -0.4472  0.8274 -1.4719
 5748TIP3   OH238734   2.390   0.745   0.397 -0.1456 -0.3355 -0.4672
 5748TIP3    H138735   2.460   0.802   0.365 -1.6152  0.6046 -2.1060
 5748TIP3    H238736   2.418   0.657   0.375  1.2656 -0.1073  0.3557
 5749TIP3   OH238737   5.825   4.452  14.816 -0.0407 -0.2797 -0.1489
 5749TIP3    H138738   5.855   4.513  14.749 -1.0814  0.1210 -0.2585
 5749TIP3    H238739   5.882   4.469  14.891  0.2250  0.2267 -0.4662
 5750TIP3   OH238740   5.441   3.060   2.726  0.0337  0.1962 -0.1947
 5750TIP3    H138741   5.477   3.146   2.747  1.6409 -0.4919  0.0064
 5750TIP3    H238742   5.439   3.013   2.809  0.7366 -0.5090 -0.5655
 5751TIP3   OH238743   6.080   3.672  14.733 -0.4273  0.8274  0.0707
 5751TIP3    H138744   6.132   3.731  14.679  0.7359  1.0988  1.4570
 5751TIP3    H238745   5.991   3.706  14.727 -0.1838  1.3063 -1.0400
 5752TIP3   OH238746   5.138   3.324  12.218  0.2974  0.3870 -0.0050
 5752TIP3    H138747   5.121   3.353  12.308 -0.2994  0.1093 -0.0278
 5752TIP3    H238748   5.230   3.345  12.204  0.3741  0.5179  0.6406
 5753TIP3   OH238749   4.447   3.184  12.500  0.2024 -0.2980  0.3987
 5753TIP3    H138750   4.392   3.200  12.423 -0.9599 -0.0205  1.2724
 5753TIP3    H238751   4.452   3.269  12.544  0.1835 -0.6353  1.0623
 5754TIP3   OH238752   1.441   4.291   3.318 -0.8333 -0.2753  1.0125
 5754TIP3    H138753   1.500   4.364   3.295 -0.8065 -0.8705 -0.8310
 5754TIP3    H238754   1.390   4.325   3.391 -0.4189  1.4088  0.5559
 5755TIP3   OH238755   0.366   1.032  14.807 -0.4172 -0.5967 -0.3045
 5755TIP3    H138756   0.339   1.121  14.827  2.7135  0.4027 -0.1736
 5755TIP3    H238757   0.445   1.043  14.753  0.4550 -3.2702  0.3663
 5756TIP3   OH238758   4.241   3.695   4.733 -0.2405 -0.1618 -0.7964
 5756TIP3    H138759   4.299   3.741   4.795 -2.7896  0.8057  0.9591
 5756TIP3    H238760   4.206   3.765   4.678 -3.0821 -0.0950  1.0004
 5757TIP3   OH238761   3.262   0.860   1.583  0.4197  0.3654  0.1667
 5757TIP3    H138762   3.251   0.945   1.625  1.5771  0.9669 -0.7086
 5757TIP3    H238763   3.175   0.820   1.586  0.3303  0.6996  2.4501
 5758TIP3   OH238764   1.079   2.107  11.751  0.4750 -0.4431  0.5457
 5758TIP3    H138765   1.104   2.090  11.660 -0.7975  0.5919 -0.0168
 5758TIP3    H238766   1.157   2.145  11.791  0.5785  0.5605 -0.5599
 5759TIP3   OH238767   1.091   0.817  16.206  0.1196 -0.0620 -0.3248
 5759TIP3    H138768   1.094   0.820  16.302  1.5026  0.8577 -0.3757
 5759TIP3    H238769   0.998   0.809  16.185 -0.3259  1.2116  1.0632
 5760TIP3   OH238770   5.845   1.836   4.761  0.2235 -0.0767 -0.1174
 5760TIP3    H138771   5.771   1.891   4.786  0.2370 -0.2601  0.3278
 5760TIP3    H238772   5.908   1.896   4.721  1.3858  0.6735  2.7446
 5761TIP3   OH238773   3.851   1.170   4.080 -0.4272  0.7054  0.3121
 5761TIP3    H138774   3.938   1.145   4.113 -0.4449  0.0814 -0.1223
 5761TIP3    H238775   3.811   1.088   4.052 -1.9111  0.7106  2.2766
 5762TIP3   OH238776   4.225   3.604   0.114 -0.5590  0.3327 -0.5263
 5762TIP3    H138777   4.260   3.628   0.200  0.7036  1.8676 -1.4513
 5762TIP3    H238778   4.168   3.677   0.090 -0.7160  0.0225 -1.0957
 5763TIP3   OH238779   5.816   4.478   5.233 -0.2895 -0.3827  0.8600
 5763TIP3    H138780   5.835   4.569   5.209 -2.2385 -0.5276 -1.3117
 5763TIP3    H238781   5.723   4.478   5.255 -0.5181 -2.0276 -0.0467
 5764TIP3   OH238782   0.965   4.121  13.736 -0.3445 -0.7019 -0.2331
 5764TIP3    H138783   1.001   4.070  13.664 -1.7293 -2.0711  0.0266
 5764TIP3    H238784   1.039   4.136  13.795  0.2264 -1.8106 -0.6656
 5765TIP3   OH238785   0.263   5.559   1.687  0.4106  0.2235  0.2602
 5765TIP3    H138786   0.228   5.648   1.678 -0.0887 -0.2230 -2.7323
 5765TIP3    H238787   0.186   5.502   1.676  0.9760 -0.6349  0.6550
 5766TIP3   OH238788   3.009   3.270   2.114  0.3247  0.2390 -0.1211
 5766TIP3    H138789   2.916   3.278   2.136  0.2086 -1.3452  0.0879
 5766TIP3    H238790   3.055   3.286   2.196  0.1412 -0.5671  0.1488
 5767TIP3   OH238791   4.905   2.392   4.549  0.0376 -0.8344 -0.2430
 5767TIP3    H138792   4.880   2.484   4.541  2.0054 -0.3127 -0.4931
 5767TIP3    H238793   4.821   2.345   4.552 -0.9684  0.8481 -1.3450
 5768TIP3   OH238794   0.392   4.708  16.833  0.1544 -0.1822  0.3083
 5768TIP3    H138795   0.351   4.779  16.785 -0.5274 -0.9458 -0.2505
 5768TIP3    H238796   0.456   4.672  16.771  1.5481  0.8778  1.1033
 5769TIP3   OH238797   2.221   2.933  14.005  0.9363 -0.1974 -0.0242
 5769TIP3    H138798   2.263   2.850  13.982 -1.5639 -1.9598  1.5099
 5769TIP3    H238799   2.208   2.978  13.921  3.8286 -0.5746 -0.7122
 5770TIP3   OH238800   0.632   6.590   3.613  0.4093 -0.2444  0.6120
 5770TIP3    H138801   0.578   6.512   3.603 -0.1622  0.1062  0.9188
 5770TIP3    H238802   0.573   6.663   3.591  0.3222  0.2391  2.3725
 5771TIP3   OH238803   0.456   1.531  11.093  0.0370  0.2541  0.1041
 5771TIP3    H138804   0.424   1.442  11.106  2.5064 -0.8259 -1.0001
 5771TIP3    H238805   0.380   1.579  11.061 -0.8863 -1.8599 -0.9487
 5772TIP3   OH238806   6.269   2.652  11.575  0.0006 -0.1553 -0.0606
 5772TIP3    H138807   6.213   2.591  11.527 -0.7751  2.1050 -2.1478
 5772TIP3    H238808   6.358   2.619  11.560 -0.4092 -0.8098 -1.1193
 5773TIP3   OH238809   6.065   1.219   6.217  0.0218 -0.4923  0.1617
 5773TIP3    H138810   6.065   1.263   6.132  0.6423  1.1988  1.0000
 5773TIP3    H238811   6.065   1.126   6.197 -3.2085 -0.1478 -1.6766
 5774TIP3   OH238812   2.159   6.175  11.714 -0.0428 -0.2185  0.0698
 5774TIP3    H138813   2.103   6.098  11.722 -0.5226  0.1180 -0.0237
 5774TIP3    H238814   2.245   6.140  11.690 -0.7316 -0.5914 -1.9132
 5775TIP3   OH238815   5.307   6.668  15.462 -0.4913 -0.1878  0.2282
 5775TIP3    H138816   5.241   6.605  15.433 -0.2269 -1.3625  2.0649
 5775TIP3    H238817   5.388   6.616  15.468  0.2004  0.8237 -0.3201
 5776TIP3   OH238818   4.942   5.524   0.183  0.0000 -0.1705 -0.2560
 5776TIP3    H138819   4.995   5.590   0.139 -0.8862  0.2857 -0.6682
 5776TIP3    H238820   4.993   5.498   0.260  1.1155 -0.2543 -1.0293
 5777TIP3   OH238821   1.848   2.510   5.434  0.1401 -0.1844  0.0512
 5777TIP3    H138822   1.867   2.431   5.485 -1.0716 -1.2302 -1.0772
 5777TIP3    H238823   1.763   2.540   5.466 -0.2169 -0.3468 -0.7211
 5778TIP3   OH238824   2.299   2.087  16.430  0.2823 -0.8940 -0.1107
 5778TIP3    H138825   2.274   2.154  16.366  1.0913  2.0543  2.5188
 5778TIP3    H238826   2.218   2.066  16.476  0.3901 -0.1460  0.4380
 5779TIP3   OH238827   3.609   2.581  13.191  0.2495 -0.0981  0.6568
 5779TIP3    H138828   3.652   2.522  13.129  0.3590  0.7455 -0.0729
 5779TIP3    H238829   3.560   2.522  13.249 -1.6186 -0.7906 -1.5541
 5780TIP3   OH238830   3.170   0.145  15.262  0.0220  0.6425 -0.3142
 5780TIP3    H138831   3.120   0.132  15.343  0.5500  1.3292  0.1279
 5780TIP3    H238832   3.244   0.200  15.288 -0.1786  1.4431 -1.4072
 5781TIP3   OH238833   0.044   3.584  14.667 -0.0271  0.0184 -0.3763
 5781TIP3    H138834   0.039   3.496  14.629 -1.1934  0.0778 -0.3641
 5781TIP3    H238835   0.030   3.570  14.760 -1.0059  0.3029 -0.4785
 5782TIP3   OH238836   5.673   6.175   1.715 -0.2400 -0.2247 -0.2329
 5782TIP3    H138837   5.756   6.161   1.761  0.4396 -0.2969 -1.4335
 5782TIP3    H238838   5.607   6.137   1.772  0.7048 -1.3191  0.1607
 5783TIP3   OH238839   1.338   1.852   4.792  0.4320  0.6353 -0.4793
 5783TIP3    H138840   1.424   1.830   4.828 -0.1814 -0.9912  0.0371
 5783TIP3    H238841   1.349   1.939   4.754  2.7838 -0.2886 -2.0134
 5784TIP3   OH238842   5.424   4.938  16.586  0.4494 -0.5331  0.0941
 5784TIP3    H138843   5.471   4.916  16.505  2.5273 -0.3239  1.2081
 5784TIP3    H238844   5.377   4.858  16.608  0.0626 -0.6722 -1.1933
 5785TIP3   OH238845   2.654   6.308   3.779 -0.5372 -0.4889  0.0514
 5785TIP3    H138846   2.687   6.229   3.737 -1.2583 -0.3361 -0.7966
 5785TIP3    H238847   2.733   6.352   3.811  0.1785  0.1344 -2.4321
 5786TIP3   OH238848   2.287   3.950   4.669 -0.5733  0.5487  0.3311
 5786TIP3    H138849   2.276   3.886   4.599 -0.6361  0.8061  0.1073
 5786TIP3    H238850   2.333   4.023   4.629 -1.2969  1.0258  0.3602
 5787TIP3   OH238851   2.124   6.225   0.435 -0.1228  0.4960  0.6937
 5787TIP3    H138852   2.218   6.222   0.449  0.0421 -1.9206 -0.6020
 5787TIP3    H238853   2.094   6.298   0.489  2.7053  2.4907 -0.3336
 5788TIP3   OH238854   6.244   0.716  15.763 -0.4840  0.2566 -0.0378
 5788TIP3    H138855   6.230   0.769  15.685 -0.6683 -0.4045 -0.4524
 5788TIP3    H238856   6.323   0.753  15.803  1.3800 -1.3034 -2.1631
 5789TIP3   OH238857   0.710   6.153  12.583 -0.5679  0.0935 -0.1164
 5789TIP3    H138858   0.668   6.154  12.669  1.2663 -1.9712  0.8171
 5789TIP3    H238859   0.705   6.062  12.554  0.6170  0.3947 -1.3303
 5790TIP3   OH238860   6.786   5.346  16.387 -0.1466 -0.0441  0.1133
 5790TIP3    H138861   6.730   5.424  16.379 -0.4023 -0.1410  0.9164
 5790TIP3    H238862   6.870   5.373  16.350 -0.1713  0.6859  0.5673
 5791TIP3   OH238863   1.750   3.273  17.285 -0.5947  0.4081  0.4399
 5791TIP3    H138864   1.673   3.242  17.238 -1.1180  1.2634  0.7174
 5791TIP3    H238865   1.787   3.194  17.325 -1.1534 -0.0531  0.0590
 5792TIP3   OH238866   2.931   4.773  15.597 -0.6760  0.0460  0.2582
 5792TIP3    H138867   2.987   4.817  15.532  0.6855  1.1074  2.1167
 5792TIP3    H238868   2.899   4.695  15.551  1.9987 -0.3708 -1.0267
 5793TIP3   OH238869   3.191   4.914   4.602  0.0990  0.1979  0.2339
 5793TIP3    H138870   3.208   4.941   4.511  1.2110 -3.7338 -0.8467
 5793TIP3    H238871   3.277   4.889   4.636 -0.6847 -0.9652  1.4300
 5794TIP3   OH238872   3.856   6.552   6.668 -0.6506 -0.1131 -0.3715
 5794TIP3    H138873   3.941   6.593   6.652 -0.0955  0.7651  4.1112
 5794TIP3    H238874   3.875   6.459   6.675  0.0529  0.1105  0.9143
 5795TIP3   OH238875   5.323   2.011   2.513  0.8338  0.3997 -0.1271
 5795TIP3    H138876   5.255   2.074   2.535  0.2418  0.4673 -2.1152
 5795TIP3    H238877   5.402   2.047   2.554 -0.4965 -0.2571  3.1308
 5796TIP3   OH238878   0.047   2.202  15.253  0.2472  0.0584  0.4319
 5796TIP3    H138879  -0.006   2.247  15.187  0.5377  0.3004  0.3641
 5796TIP3    H238880  -0.008   2.200  15.331  0.0507  0.1093  0.2961
 5797TIP3   OH238881   6.474   6.004  12.850  1.0055  0.2018 -0.3350
 5797TIP3    H138882   6.385   6.025  12.878  0.9017  0.5656 -0.9271
 5797TIP3    H238883   6.517   5.972  12.929  0.7948  1.4602  0.3035
 5798TIP3   OH238884   3.540   4.354   4.664 -0.2101 -0.2190  0.3167
 5798TIP3    H138885   3.586   4.337   4.582 -0.5954 -1.0839  0.2791
 5798TIP3    H238886   3.531   4.450   4.667  1.4234 -0.0488  0.2361
 5799TIP3   OH238887   3.369   0.474  16.317 -0.0785  0.4703  0.0415
 5799TIP3    H138888   3.378   0.437  16.404 -0.7341 -2.0494 -0.9360
 5799TIP3    H238889   3.277   0.501  16.312 -0.2663 -0.2235 -0.2038
 5800TIP3   OH238890   4.112   1.482  14.000  0.0924 -0.0718  0.4211
 5800TIP3    H138891   4.104   1.559  13.944 -2.6919  0.6765  1.7791
 5800TIP3    H238892   4.041   1.424  13.972 -0.0485 -0.5752  1.7562
 5801TIP3   OH238893   6.652   5.176   2.809 -0.6779 -0.4914  0.2469
 5801TIP3    H138894   6.647   5.224   2.892 -0.3286 -1.3313  0.7624
 5801TIP3    H238895   6.561   5.160   2.785 -0.7645 -0.9816  0.9025
 5802TIP3   OH238896   3.371   2.873   3.958 -0.0045  0.3435  0.2032
 5802TIP3    H138897   3.365   2.798   3.899 -0.7310 -0.1948  0.9539
 5802TIP3    H238898   3.310   2.853   4.029 -0.6764  1.9200  0.1069
 5803TIP3   OH238899   5.558   4.541  15.732  0.5702  0.3700  0.0440
 5803TIP3    H138900   5.623   4.499  15.788 -1.1814 -2.8600 -0.2593
 5803TIP3    H238901   5.514   4.604  15.789  1.2275 -0.3219  1.3243
 5804TIP3   OH238902   3.471   2.581  14.878 -0.0363  0.0858 -0.2007
 5804TIP3    H138903   3.541   2.642  14.902  0.0453  0.0557 -0.3673
 5804TIP3    H238904   3.412   2.632  14.823 -0.3332  0.2144  0.2267
 5805TIP3   OH238905   1.616   5.588  13.118  0.0686 -0.1241  0.2410
 5805TIP3    H138906   1.591   5.603  13.209  0.5208  3.0650 -0.1128
 5805TIP3    H238907   1.533   5.586  13.070 -0.0174  1.7501  0.2690
 5806TIP3   OH238908   3.996   1.276   5.521  0.4098 -0.1952 -0.4032
 5806TIP3    H138909   4.038   1.243   5.601 -2.8805 -0.4862  1.2622
 5806TIP3    H238910   4.001   1.202   5.460  2.8068 -0.0261 -0.4886
 5807TIP3   OH238911   5.592   4.777   2.662  0.7943  0.0496 -0.3575
 5807TIP3    H138912   5.650   4.701   2.659 -0.9156 -1.4117  1.5726
 5807TIP3    H238913   5.552   4.781   2.575 -0.5541 -2.4784  0.0960
 5808TIP3   OH238914   4.754   5.838  16.654  0.2190 -0.4178  0.2504
 5808TIP3    H138915   4.728   5.920  16.611  1.0324  0.7908  1.9912
 5808TIP3    H238916   4.693   5.829  16.727  0.3934 -1.1438  0.3077
 5809TIP3   OH238917   6.667   1.553   5.819 -0.7126 -0.2790 -0.5834
 5809TIP3    H138918   6.748   1.510   5.848  0.2573  1.5774 -0.4837
 5809TIP3    H238919   6.665   1.635   5.868 -3.2953 -0.8236  0.3198
 5810TIP3   OH238920   1.446   1.489   5.968  0.5307 -0.1059 -0.3209
 5810TIP3    H138921   1.442   1.545   6.046  0.5439  0.0349 -0.4209
 5810TIP3    H238922   1.432   1.549   5.895 -1.4287 -0.5141 -0.3321
 5811TIP3   OH238923   0.742   1.430   5.992 -0.3423 -0.5027  0.2461
 5811TIP3    H138924   0.818   1.377   5.968  0.4099  0.1268  1.1808
 5811TIP3    H238925   0.699   1.380   6.062 -0.1660 -0.3369  0.4743
 5812TIP3   OH238926   3.943   2.294  15.364 -0.0976  0.4830  0.3727
 5812TIP3    H138927   3.993   2.367  15.400  1.4266 -0.0836 -0.5458
 5812TIP3    H238928   4.001   2.256  15.298 -1.0026 -1.3679  0.6315
 5813TIP3   OH238929   2.739   3.437   0.864 -0.1680 -0.7699 -0.0443
 5813TIP3    H138930   2.733   3.358   0.811  2.6782  0.1468 -1.8288
 5813TIP3    H238931   2.664   3.490   0.835 -1.6408 -2.4233  0.6173
 5814TIP3   OH238932   2.245   6.542   4.466  0.3513  0.0497  0.5375
 5814TIP3    H138933   2.263   6.474   4.402 -0.1191 -0.0397  0.5014
 5814TIP3    H238934   2.150   6.542   4.476  0.2693  1.3416 -0.1765
 5815TIP3   OH238935   3.994   3.938  12.943 -0.2451  0.2917 -0.6508
 5815TIP3    H138936   3.954   3.993  13.010  0.0552 -1.9663  1.4172
 5815TIP3    H238937   3.925   3.876  12.918  0.0197  0.3520 -1.5846
 5816TIP3   OH238938   0.012   5.574  11.825  0.1072 -0.3055 -0.3126
 5816TIP3    H138939  -0.044   5.524  11.885 -0.0608  0.9599  0.6104
 5816TIP3    H238940  -0.021   5.664  11.831  1.3397  0.1967 -0.8236
 5817TIP3   OH238941   6.345   5.786   1.225 -0.3657 -0.1578  0.1264
 5817TIP3    H138942   6.301   5.701   1.217 -1.6995  0.4734  0.5747
 5817TIP3    H238943   6.334   5.810   1.316  0.6410  0.1704  0.1659
 5818TIP3   OH238944   5.560   2.792   6.096  0.3416 -0.0505 -0.3329
 5818TIP3    H138945   5.580   2.865   6.154  0.4827 -0.0700 -0.3566
 5818TIP3    H238946   5.492   2.825   6.037  3.1080  1.3389 -2.8829
 5819TIP3   OH238947   1.553   3.136   4.705 -0.0586  0.3127 -0.9029
 5819TIP3    H138948   1.580   3.223   4.675  1.6469  0.4001  0.7674
 5819TIP3    H238949   1.635   3.091   4.725 -0.9969 -0.9664  0.1445
 5820TIP3   OH238950   3.037   5.567  12.841  0.2694  0.3635  0.3848
 5820TIP3    H138951   2.961   5.524  12.879 -0.9659 -1.0915 -3.4747
 5820TIP3    H238952   3.102   5.497  12.833  0.0373  0.3110 -1.2906
 5821TIP3   OH238953   3.702   3.752  13.327 -0.2795 -0.3562  0.5968
 5821TIP3    H138954   3.646   3.784  13.256  0.8161 -0.1975 -0.2077
 5821TIP3    H238955   3.654   3.775  13.407 -0.3844  1.6432 -0.0176
 5822TIP3   OH238956   4.085   4.844   0.171 -0.0229  0.1293 -0.1628
 5822TIP3    H138957   4.132   4.884   0.098 -2.2639 -0.6525 -2.0756
 5822TIP3    H238958   3.994   4.870   0.158 -0.8069 -1.8908  1.0946
 5823TIP3   OH238959   1.370   1.660   5.439 -0.2124 -0.0279 -0.2461
 5823TIP3    H138960   1.316   1.635   5.364 -1.3917  0.8008  0.3134
 5823TIP3    H238961   1.426   1.584   5.455  0.4962  0.0130 -2.3457
 5824TIP3   OH238962   5.150   0.660  16.949  0.0677  0.8026 -0.5131
 5824TIP3    H138963   5.147   0.617  17.035 -3.1501  1.2994 -0.3257
 5824TIP3    H238964   5.188   0.746  16.967 -0.9260  1.0409  0.5125
 5825TIP3   OH238965   3.886   6.176   2.623 -0.6329  0.0818  0.8478
 5825TIP3    H138966   3.943   6.227   2.681  0.2276 -1.4987  1.4402
 5825TIP3    H238967   3.844   6.241   2.568  0.8880  1.3907  1.1706
 5826TIP3   OH238968   2.547   1.808   3.732 -0.0331 -0.1111 -0.2967
 5826TIP3    H138969   2.584   1.870   3.669  1.1712 -0.8090 -0.2823
 5826TIP3    H238970   2.572   1.722   3.698  0.0661 -0.5134  0.7934
 5827TIP3   OH238971   6.573   0.877   3.366  0.2439 -0.0021  0.0692
 5827TIP3    H138972   6.555   0.868   3.459  0.2130  1.0325  0.1642
 5827TIP3    H238973   6.533   0.961   3.341  0.2262 -0.2815 -0.8742
 5828TIP3   OH238974   1.713   0.635   4.833  0.0194  0.1047  0.1372
 5828TIP3    H138975   1.792   0.643   4.780 -0.3276 -2.2000 -0.7673
 5828TIP3    H238976   1.641   0.628   4.770 -0.7794  0.8237  0.9396
 5829TIP3   OH238977   4.961   0.193   5.451  0.3361 -0.0479 -0.3680
 5829TIP3    H138978   4.901   0.119   5.441  1.0880 -1.0426  1.9728
 5829TIP3    H238979   4.982   0.220   5.362 -3.1361 -0.0168 -1.2656
 5830TIP3   OH238980   5.273   4.344  15.657  0.4338  0.3638 -0.0758
 5830TIP3    H138981   5.264   4.250  15.675  0.6392  0.2507 -0.5604
 5830TIP3    H238982   5.326   4.377  15.729 -0.3003  0.2556  0.5196
 5831TIP3   OH238983   2.328   3.673   1.893  0.1703  0.4272  0.5387
 5831TIP3    H138984   2.296   3.662   1.983 -1.8482  0.3420 -0.1618
 5831TIP3    H238985   2.296   3.759   1.867 -0.0968  0.0357 -0.4273
 5832TIP3   OH238986   4.873   4.973  15.356  0.5238 -0.5338 -0.4389
 5832TIP3    H138987   4.857   4.908  15.288  1.2551 -1.1649 -0.0049
 5832TIP3    H238988   4.795   5.029  15.353 -0.1819 -1.5051 -0.7145
 5833TIP3   OH238989   3.152   5.556   6.136 -0.3413  0.0651  0.2799
 5833TIP3    H138990   3.171   5.573   6.044 -1.5359 -0.6166 -0.1053
 5833TIP3    H238991   3.096   5.478   6.135  0.0278 -0.2256  1.6087
 5834TIP3   OH238992   4.947   4.359   2.338 -0.4299  0.2491  0.1420
 5834TIP3    H138993   4.989   4.425   2.283 -0.3317 -0.2392 -0.3749
 5834TIP3    H238994   4.854   4.371   2.321 -0.5130  1.3374  1.2947
 5835TIP3   OH238995   0.885   2.932   0.054  0.3079  0.6620 -0.0381
 5835TIP3    H138996   0.917   2.911  -0.034 -0.9259  1.1915 -0.6214
 5835TIP3    H238997   0.872   2.846   0.095  2.3926  0.4273  0.2087
 5836TIP3   OH238998   6.527   4.482  12.949  0.0115  0.3271 -0.0164
 5836TIP3    H138999   6.571   4.476  13.034 -0.0349  0.5450  0.0240
 5836TIP3    H239000   6.434   4.492  12.971  0.0428  0.7777 -0.0864
 5837TIP3   OH239001   1.726   3.617   5.185 -0.5141 -0.0879  0.5770
 5837TIP3    H139002   1.719   3.607   5.091  0.0504 -1.0699  0.6405
 5837TIP3    H239003   1.635   3.626   5.215 -0.5628  2.8867 -0.3310
 5838TIP3   OH239004   1.487   2.326  16.868 -0.4220 -0.0131 -0.3262
 5838TIP3    H139005   1.511   2.397  16.809 -0.0445  1.7911  1.9309
 5838TIP3    H239006   1.392   2.323  16.865 -0.4700  1.0763  0.1216
 5839TIP3   OH239007   6.148   1.548   0.955 -0.6138 -0.1450  0.4838
 5839TIP3    H139008   6.213   1.527   1.021  0.0265 -0.9259 -0.3884
 5839TIP3    H239009   6.168   1.638   0.929  2.9198 -1.8050 -2.9413
 5840TIP3   OH239010   1.998   4.967   6.585 -0.4204 -0.0775 -0.0405
 5840TIP3    H139011   2.090   4.941   6.580 -0.1788  0.5643  0.9334
 5840TIP3    H239012   1.955   4.893   6.628 -0.6261 -0.9790 -1.7267
 5841TIP3   OH239013   5.853   5.073   3.814 -0.2079 -0.1850 -0.0617
 5841TIP3    H139014   5.831   4.992   3.860 -1.2559 -0.0137 -0.2439
 5841TIP3    H239015   5.808   5.141   3.864 -0.9427  0.0594 -1.0574
 5842TIP3   OH239016   6.192   5.237   1.186 -0.1090 -0.6898 -0.6886
 5842TIP3    H139017   6.123   5.250   1.251 -0.0057 -0.2366 -0.6681
 5842TIP3    H239018   6.194   5.142   1.172 -0.5230 -0.7343 -0.4594
 5843TIP3   OH239019   2.357   5.390  15.112 -0.0426  0.3068 -0.5151
 5843TIP3    H139020   2.287   5.349  15.162 -0.3389 -1.3995 -2.2656
 5843TIP3    H239021   2.345   5.484  15.127 -2.2898  0.0050 -0.2473
 5844TIP3   OH239022   3.724   6.669   4.056  0.7629 -0.0047 -0.5389
 5844TIP3    H139023   3.689   6.738   4.113  1.5063  0.5822 -0.7775
 5844TIP3    H239024   3.776   6.614   4.115  0.2266 -0.3191 -0.3602
 5845TIP3   OH239025   3.394   1.447   5.927  0.5217  0.2814 -0.3405
 5845TIP3    H139026   3.435   1.363   5.904 -0.6981 -0.1048 -1.1991
 5845TIP3    H239027   3.421   1.464   6.017  1.4207 -0.6470 -0.4292
 5846TIP3   OH239028   6.228   5.882  10.528  0.0394  0.1079  0.0345
 5846TIP3    H139029   6.222   5.880  10.433 -0.8630 -2.5137  0.0949
 5846TIP3    H239030   6.305   5.828  10.548 -0.0951  0.1865  0.7962
 5847TIP3   OH239031   6.630   0.744  15.194 -0.0031 -0.2927 -0.2435
 5847TIP3    H139032   6.670   0.818  15.241  1.6985  0.2026 -2.3712
 5847TIP3    H239033   6.615   0.777  15.106 -1.9938 -1.5977 -0.4253
 5848TIP3   OH239034   0.110   0.527  16.416  0.0598 -0.1448  0.0224
 5848TIP3    H139035   0.167   0.558  16.486  0.0426 -0.8101  0.3344
 5848TIP3    H239036   0.025   0.515  16.458 -0.2335  0.5722 -0.3800
 5849TIP3   OH239037   6.214   4.885  16.010 -0.1580 -0.0205  0.0134
 5849TIP3    H139038   6.204   4.793  15.986 -1.1727  0.1358 -0.2082
 5849TIP3    H239039   6.286   4.916  15.956  0.4188 -0.7757  0.3509
 5850TIP3   OH239040   1.353   5.997   2.907 -0.1602  0.4108  0.4003
 5850TIP3    H139041   1.362   6.087   2.937 -1.7456  1.1810 -1.3746
 5850TIP3    H239042   1.293   5.957   2.970 -0.7257  1.0483  0.2716
 5851TIP3   OH239043   0.278   1.817  16.241  0.2749  0.2264  0.0867
 5851TIP3    H139044   0.264   1.832  16.147 -0.0542  0.9898  0.2589
 5851TIP3    H239045   0.300   1.724  16.247 -3.0196 -0.6506 -0.3995
 5852TIP3   OH239046   2.800   2.967   3.842  0.0946 -0.5138  0.2592
 5852TIP3    H139047   2.843   2.960   3.927  0.3506  0.6158  0.2314
 5852TIP3    H239048   2.863   2.930   3.780  0.5726  0.1293  0.3591
 5853TIP3   OH239049   4.623   1.947   1.158  0.4079  0.0273  0.2329
 5853TIP3    H139050   4.550   2.008   1.143  0.4849  0.5395  1.8382
 5853TIP3    H239051   4.627   1.895   1.078 -0.5599  1.2037 -0.6106
 5854TIP3   OH239052   2.040   0.050   4.961 -0.1418 -0.7593 -0.3488
 5854TIP3    H139053   2.016  -0.015   5.027 -0.0395 -1.6222 -1.1468
 5854TIP3    H239054   2.105   0.105   5.004 -2.2114  0.5058  1.2424
 5855TIP3   OH239055   3.509   0.401   1.514  0.2668 -0.1883 -0.1978
 5855TIP3    H139056   3.446   0.357   1.457 -1.0506  0.5790  0.6349
 5855TIP3    H239057   3.595   0.370   1.484 -0.6289 -4.5987  1.3639
 5856TIP3   OH239058   5.153   4.303   2.941 -0.4739  0.6181  0.2320
 5856TIP3    H139059   5.068   4.342   2.963 -1.5204 -2.0235  1.0930
 5856TIP3    H239060   5.177   4.253   3.019  0.1165 -1.5830 -1.3105
 5857TIP3   OH239061   6.218   6.094  12.926 -0.7125 -0.5977 -0.1675
 5857TIP3    H139062   6.166   6.134  12.856 -0.3703 -0.2820 -0.2407
 5857TIP3    H239063   6.178   6.008  12.939  0.0473 -1.2021 -1.6899
 5858TIP3   OH239064   2.402   4.419   2.367 -0.0005 -0.4176 -0.0414
 5858TIP3    H139065   2.341   4.467   2.423  0.5257 -1.0778  1.1115
 5858TIP3    H239066   2.424   4.340   2.417  2.4342  0.1999 -0.0761
 5859TIP3   OH239067   3.374   3.967   1.750 -0.1155 -0.4255  0.3007
 5859TIP3    H139068   3.455   3.919   1.735 -0.0481  0.0215 -0.7899
 5859TIP3    H239069   3.305   3.905   1.728 -0.0267  0.0093 -1.2815
 5860TIP3   OH239070   1.787   4.232   2.835  0.1060  0.2696 -0.0653
 5860TIP3    H139071   1.814   4.193   2.918 -0.0138  0.1726 -0.0717
 5860TIP3    H239072   1.796   4.326   2.849 -1.2329  0.3222  0.5160
 5861TIP3   OH239073   2.923   1.063  13.832  0.0359  0.2530 -0.2263
 5861TIP3    H139074   2.988   1.133  13.832 -0.0120  0.3106  1.0579
 5861TIP3    H239075   2.935   1.019  13.917 -0.4494 -0.8072 -0.6977
 5862TIP3   OH239076   5.701   6.013  12.761 -0.2167 -0.1514  0.0476
 5862TIP3    H139077   5.645   5.951  12.715  2.0431 -2.5511  0.3606
 5862TIP3    H239078   5.708   5.977  12.850  1.4714  0.3194  0.1213
 5863TIP3   OH239079   2.608   2.855   0.272  0.4045  0.0805  0.7700
 5863TIP3    H139080   2.570   2.879   0.357 -1.0692  1.2562 -0.2031
 5863TIP3    H239081   2.592   2.761   0.265 -0.6944  0.2234  1.2140
 5864TIP3   OH239082   0.162   3.447   2.163 -0.3682  0.0155 -0.1571
 5864TIP3    H139083   0.152   3.418   2.072 -0.4899  2.0842 -0.8305
 5864TIP3    H239084   0.138   3.540   2.161 -1.3561 -0.1529  2.1820
 5865TIP3   OH239085   5.580   0.569   5.294 -0.6597  0.5749 -0.0835
 5865TIP3    H139086   5.553   0.641   5.352 -0.3815  0.2558  0.4468
 5865TIP3    H239087   5.532   0.585   5.212  1.1031  2.6368 -0.7606
 5866TIP3   OH239088   0.897   4.890   2.510 -0.5524  0.1687  0.4893
 5866TIP3    H139089   0.948   4.816   2.476 -0.4277 -0.8235  2.7513
 5866TIP3    H239090   0.806   4.861   2.503 -0.5196 -0.0812  1.1261
 5867TIP3   OH239091   2.005   0.404  13.714 -0.7728  0.6211 -0.1188
 5867TIP3    H139092   1.917   0.366  13.720  0.2840 -2.0713 -1.0351
 5867TIP3    H239093   2.025   0.402  13.620  0.8753 -0.2116  0.2407
 5868TIP3   OH239094   4.123   6.632   6.595  0.2442  0.1509 -1.0538
 5868TIP3    H139095   4.163   6.713   6.563  0.5721 -0.4001 -2.0717
 5868TIP3    H239096   4.188   6.594   6.654  0.7817 -0.1916 -1.8555
 5869TIP3   OH239097   1.043   5.884   6.058 -0.3464  0.2344 -0.5337
 5869TIP3    H139098   1.114   5.911   6.116 -0.1451 -1.5078  0.0422
 5869TIP3    H239099   0.963   5.904   6.106 -0.1665 -2.7394  1.0829
 5870TIP3   OH239100   1.955   6.377   4.977  0.0866  0.2895 -0.6321
 5870TIP3    H139101   1.948   6.308   4.911 -0.6102 -0.1565 -0.0913
 5870TIP3    H239102   2.049   6.386   4.992  0.3077  0.9355 -2.2516
 5871TIP3   OH239103   3.148   0.809   5.721 -0.0194 -0.4317  0.5893
 5871TIP3    H139104   3.214   0.876   5.703 -1.1737  0.1622 -1.5903
 5871TIP3    H239105   3.199   0.733   5.751  1.5276  0.4585  0.2972
 5872TIP3   OH239106   6.069   4.036  14.595 -0.1003  0.1030 -0.0259
 5872TIP3    H139107   6.041   4.128  14.590  1.2398  0.6484  1.8563
 5872TIP3    H239108   6.058   4.013  14.687  3.0025 -0.4707  0.2697
 5873TIP3   OH239109   4.006   4.696  12.519  0.0076 -0.3885 -0.2400
 5873TIP3    H139110   3.949   4.675  12.445 -1.7537  2.1282  0.3750
 5873TIP3    H239111   4.078   4.746  12.480  0.4101 -1.2113 -0.5873
 5874TIP3   OH239112   3.468   3.861  14.988 -1.0934  0.0079  0.0064
 5874TIP3    H139113   3.453   3.899  14.901  2.9018 -0.0685 -0.7922
 5874TIP3    H239114   3.390   3.885  15.038 -3.3765  0.2897 -3.4989
 5875TIP3   OH239115   0.292   6.591   4.172  0.2992 -0.2251  0.3045
 5875TIP3    H139116   0.283   6.687   4.175  1.0505 -0.1748  0.9545
 5875TIP3    H239117   0.229   6.560   4.237 -0.3556 -0.2034 -0.3111
 5876TIP3   OH239118   5.693   4.004  12.976  0.1247 -0.1290  0.2017
 5876TIP3    H139119   5.632   4.029  13.045 -1.1386 -1.0336 -0.5570
 5876TIP3    H239120   5.699   4.081  12.920 -1.1976 -0.3925 -0.3251
 5877TIP3   OH239121   2.709   1.365  13.393  0.2388  0.6615  0.0974
 5877TIP3    H139122   2.749   1.367  13.481  2.5546  3.2064 -0.9369
 5877TIP3    H239123   2.637   1.427  13.398  0.5482  1.0236  0.1563
 5878TIP3   OH239124   0.927   0.086   5.432 -0.0390  0.9454 -0.1302
 5878TIP3    H139125   0.964   0.056   5.349  0.2156  0.4929  0.1469
 5878TIP3    H239126   0.998   0.073   5.496 -0.3923  0.8682  0.2439
 5879TIP3   OH239127   1.868   0.404  15.526  0.0583 -0.4035 -0.6405
 5879TIP3    H139128   1.801   0.394  15.593  0.4662 -1.0581 -0.3287
 5879TIP3    H239129   1.899   0.494  15.536  0.2381 -0.5527  0.1706
 5880TIP3   OH239130   3.627   2.540  16.584  0.0900  0.4499  0.3699
 5880TIP3    H139131   3.558   2.480  16.613  1.0867 -0.2516  1.3237
 5880TIP3    H239132   3.591   2.627  16.600 -0.4768  0.0958  1.0742
 5881TIP3   OH239133   0.367   1.289  15.850  1.0853 -0.1995 -0.2799
 5881TIP3    H139134   0.413   1.207  15.865  0.7755 -0.6271 -1.5340
 5881TIP3    H239135   0.436   1.355  15.842  1.4436 -0.6713 -1.1692
 5882TIP3   OH239136   4.308   3.324   4.510  0.4798 -0.0598  0.1386
 5882TIP3    H139137   4.253   3.317   4.587 -0.9466 -0.5326 -0.9068
 5882TIP3    H239138   4.379   3.261   4.525 -0.6616 -1.3176  0.3550
 5883TIP3   OH239139   2.237   5.398  11.983  0.0330 -0.3954 -0.3050
 5883TIP3    H139140   2.232   5.421  11.890 -0.8827 -0.0132 -0.1602
 5883TIP3    H239141   2.270   5.308  11.983 -0.5481 -0.6152 -1.0235
 5884TIP3   OH239142   4.138   2.355   4.354  0.3442 -0.3416  0.7480
 5884TIP3    H139143   4.049   2.383   4.376  0.8436  1.7517  0.1632
 5884TIP3    H239144   4.141   2.356   4.259  0.3622 -2.5043  0.7022
 5885TIP3   OH239145   4.146   3.506  12.137  0.1718 -0.2586  0.4182
 5885TIP3    H139146   4.190   3.455  12.206  0.7766  1.0517  1.0054
 5885TIP3    H239147   4.157   3.453  12.058  0.8311 -1.0262  1.0141
 5886TIP3   OH239148   4.550   0.964  16.062 -0.0314  0.4777 -0.3040
 5886TIP3    H139149   4.619   0.897  16.060 -1.6428 -1.2403 -0.2716
 5886TIP3    H239150   4.544   0.994  15.972 -0.5560 -0.7829 -0.7079
 5887TIP3   OH239151   0.768   2.524   6.233  0.0471 -0.0193  0.7923
 5887TIP3    H139152   0.690   2.487   6.274  0.0413 -0.4134  0.4350
 5887TIP3    H239153   0.735   2.592   6.175 -0.1154 -0.7796 -0.0263
 5888TIP3   OH239154   5.520   0.607  12.050 -0.0768 -0.0751  0.0832
 5888TIP3    H139155   5.508   0.697  12.020 -0.1491  0.5887  2.0527
 5888TIP3    H239156   5.502   0.610  12.144  2.2258 -1.6966  0.6195
 5889TIP3   OH239157   1.144   6.602  15.716  0.0425  0.5817  0.3511
 5889TIP3    H139158   1.118   6.564  15.800 -0.7642 -0.3870 -0.3233
 5889TIP3    H239159   1.168   6.692  15.737  0.9567  0.0149  1.8022
 5890TIP3   OH239160   4.417   5.434   1.838  0.5390  0.1654  0.8092
 5890TIP3    H139161   4.403   5.520   1.799  0.3516  0.5502  1.6978
 5890TIP3    H239162   4.365   5.374   1.785 -0.7266  0.8688  1.2433
 5891TIP3   OH239163   5.231   6.170  11.934 -0.5995  0.5028  0.0242
 5891TIP3    H139164   5.240   6.124  11.851  1.1495 -0.7859  0.8818
 5891TIP3    H239165   5.302   6.234  11.934 -0.3516  0.2365  0.6693
 5892TIP3   OH239166   0.895   3.079  12.524  0.1642 -0.2269 -0.4360
 5892TIP3    H139167   0.832   3.132  12.573  1.4284 -0.4362  1.4792
 5892TIP3    H239168   0.900   3.120  12.438  1.7563  3.3263  1.2400
 5893TIP3   OH239169   5.620   0.913  11.647 -0.0822 -0.2946  0.0979
 5893TIP3    H139170   5.646   0.926  11.556  2.4528 -0.7963  0.7371
 5893TIP3    H239171   5.588   0.999  11.675  2.8114  0.9090 -0.1135
 5894TIP3   OH239172   4.469   2.949   3.397 -0.4428 -0.5271 -0.9545
 5894TIP3    H139173   4.541   2.956   3.335 -1.4445 -2.5604 -2.4258
 5894TIP3    H239174   4.511   2.942   3.483  1.0604 -0.5779 -1.6867
 5895TIP3   OH239175   5.057   4.970  16.769  0.1445  0.4080  0.6110
 5895TIP3    H139176   5.127   5.019  16.811  0.2198 -0.6917  1.7740
 5895TIP3    H239177   5.084   4.879  16.774  0.0125  0.2239 -1.5594
 5896TIP3   OH239178   4.871   6.349  16.538  0.5738 -0.2017  0.7774
 5896TIP3    H139179   4.824   6.413  16.483 -0.1307 -1.2993  0.0833
 5896TIP3    H239180   4.963   6.372  16.527  0.3489  0.5293  0.3243
 5897TIP3   OH239181   4.573   6.540   2.683 -0.0353  0.0772 -0.5038
 5897TIP3    H139182   4.624   6.539   2.764 -0.7121 -1.0550 -0.0739
 5897TIP3    H239183   4.631   6.505   2.616  0.4857  0.9051 -0.4986
 5898TIP3   OH239184   5.998   0.610  14.476 -0.2249  0.7460  0.4850
 5898TIP3    H139185   5.997   0.557  14.555 -0.9330  1.5645  1.0439
 5898TIP3    H239186   5.993   0.700  14.508  0.5832  1.1248 -0.4552
 5899TIP3   OH239187   2.610   1.859  16.236 -0.4769  0.2942 -0.0496
 5899TIP3    H139188   2.599   1.771  16.273  1.3363 -0.7778 -1.9149
 5899TIP3    H239189   2.628   1.914  16.312 -0.3919 -1.1808  1.0431
 5900TIP3   OH239190   1.840   3.278  11.320 -0.0148  0.5105  0.6148
 5900TIP3    H139191   1.896   3.344  11.280  0.6862 -0.5983 -0.2531
 5900TIP3    H239192   1.752   3.300  11.290  0.4941 -0.2706 -1.4981
 5901TIP3   OH239193   6.686   1.247   4.228  0.0104 -0.8945  0.0440
 5901TIP3    H139194   6.697   1.251   4.323  1.6537 -2.6777 -0.0180
 5901TIP3    H239195   6.624   1.316   4.207  2.2298  1.7998  2.0230
 5902TIP3   OH239196   0.140   2.212  12.922 -0.3191 -0.3040  0.4733
 5902TIP3    H139197   0.223   2.252  12.896 -0.1675  0.0402  1.4516
 5902TIP3    H239198   0.099   2.277  12.979 -0.6121 -1.0555  1.1372
 5903TIP3   OH239199   5.381   1.637  14.609 -0.2939 -0.0205 -0.5870
 5903TIP3    H139200   5.442   1.592  14.550 -1.2112  0.0178 -1.5764
 5903TIP3    H239201   5.295   1.619  14.573 -0.8660  0.0510  0.7255
 5904TIP3   OH239202   4.589   2.460   5.136  0.2992 -0.2733  0.6467
 5904TIP3    H139203   4.644   2.517   5.082 -1.4315 -0.5074 -1.4426
 5904TIP3    H239204   4.617   2.371   5.114  0.1156 -0.3507  0.7255
 5905TIP3   OH239205   5.891   4.602   4.452  0.8046 -0.5675  0.0138
 5905TIP3    H139206   5.932   4.687   4.467 -1.6307  0.3491  1.6829
 5905TIP3    H239207   5.821   4.620   4.390  1.1949 -1.6343 -0.7446
 5906TIP3   OH239208   0.309   1.125   1.149 -0.3017 -0.2952  0.2416
 5906TIP3    H139209   0.402   1.146   1.151 -0.6651  1.2382  1.5987
 5906TIP3    H239210   0.278   1.140   1.238 -1.8599 -0.7752 -0.1911
 5907TIP3   OH239211   5.602   1.759   2.640 -0.0327  0.1636  0.1355
 5907TIP3    H139212   5.652   1.811   2.701 -0.0877 -0.5004  0.7493
 5907TIP3    H239213   5.630   1.789   2.553  1.6881 -0.4621  0.4665
 5908TIP3   OH239214   0.943   0.197   5.836 -0.0938  0.2324 -0.2653
 5908TIP3    H139215   0.945   0.292   5.829 -2.0990  0.1843 -2.0289
 5908TIP3    H239216   1.035   0.171   5.846  0.3739  2.4031  1.3177
 5909TIP3   OH239217   2.946   5.810   1.233  0.6404  0.1645  0.2546
 5909TIP3    H139218   2.928   5.736   1.174 -1.4421  0.5605  0.3712
 5909TIP3    H239219   2.899   5.788   1.314  0.0635  1.6062  0.3117
 5910TIP3   OH239220   1.274   2.518   2.718  0.8321 -0.0647 -0.2951
 5910TIP3    H139221   1.293   2.440   2.770 -0.3308 -0.8064 -0.9772
 5910TIP3    H239222   1.299   2.494   2.629 -0.4627  0.0054 -0.6733
 5911TIP3   OH239223   2.632   2.204   0.772  0.4156  0.5948 -0.1297
 5911TIP3    H139224   2.657   2.295   0.793 -1.1343  0.8052  0.8390
 5911TIP3    H239225   2.619   2.205   0.677  1.0254  1.2324 -0.2174
 5912TIP3   OH239226   0.823   6.745  15.516 -0.3502  0.2262  0.8156
 5912TIP3    H139227   0.912   6.715  15.498 -0.3861  0.1343  0.7921
 5912TIP3    H239228   0.773   6.722  15.437 -0.0824  1.5359  0.2521
 5913TIP3   OH239229   4.257   0.243  12.634 -0.2683 -0.3547 -0.4067
 5913TIP3    H139230   4.257   0.173  12.569 -0.0577 -1.4704  0.7667
 5913TIP3    H239231   4.341   0.235  12.679 -0.1840  0.7449 -0.3410
 5914TIP3   OH239232   0.577   6.660   0.105  0.0290 -0.1057 -0.0128
 5914TIP3    H139233   0.568   6.617   0.190  0.5383  3.0979  1.7699
 5914TIP3    H239234   0.659   6.626   0.069 -0.7184 -2.2668  0.3114
 5915TIP3   OH239235   0.815   1.448   6.323  0.1679  0.2626 -0.0245
 5915TIP3    H139236   0.757   1.390   6.273 -0.1097 -0.4531  1.1269
 5915TIP3    H239237   0.773   1.534   6.316 -0.8685 -0.1904  0.5389
 5916TIP3   OH239238   6.059   0.434  14.172 -0.0356 -0.3220  0.2576
 5916TIP3    H139239   5.992   0.450  14.106  1.2581 -1.1503 -1.2747
 5916TIP3    H239240   6.015   0.382  14.239 -0.4209 -2.5133 -1.6673
 5917TIP3   OH239241   3.039   3.863   3.095  0.3514 -0.2813 -0.7294
 5917TIP3    H139242   2.979   3.905   3.033 -1.0680 -0.8539  0.2224
 5917TIP3    H239243   3.091   3.935   3.131  1.4116  0.0161 -2.7862
 5918TIP3   OH239244   0.399   1.407   3.900 -0.3314 -0.4659 -0.2979
 5918TIP3    H139245   0.439   1.412   3.813  0.6104  0.2082  0.1596
 5918TIP3    H239246   0.354   1.323   3.901  0.5733 -0.9705 -1.0486
 5919TIP3   OH239247   5.835   2.793   0.268 -0.3814 -0.6501 -0.1458
 5919TIP3    H139248   5.748   2.800   0.228 -0.6476 -0.4233  0.4551
 5919TIP3    H239249   5.826   2.839   0.352  0.6031  0.2827 -0.5363
 5920TIP3   OH239250   3.828   1.448   3.345 -0.5018 -0.0366 -0.2348
 5920TIP3    H139251   3.782   1.528   3.321 -0.9220 -0.3177 -0.3629
 5920TIP3    H239252   3.793   1.381   3.286 -0.7889 -0.5099  0.4684
 5921TIP3   OH239253   3.238   0.694   1.020  0.1929  0.1657  0.0719
 5921TIP3    H139254   3.190   0.739   1.090 -1.8263  0.6805 -1.5857
 5921TIP3    H239255   3.296   0.633   1.066 -0.1800  1.3822  2.2154
 5922TIP3   OH239256   1.315   0.905  15.271  0.7304 -0.2418  1.0944
 5922TIP3    H139257   1.298   0.843  15.342 -1.7660 -1.6059 -0.5942
 5922TIP3    H239258   1.379   0.862  15.215 -0.4294 -1.0330  0.3356
 5923TIP3   OH239259   5.287   6.062   1.097  0.1632  0.4531  0.2004
 5923TIP3    H139260   5.199   6.046   1.063  0.4807 -1.0384  0.0370
 5923TIP3    H239261   5.287   6.020   1.184  0.0120  2.4255  1.1846
 5924TIP3   OH239262   0.745   5.872  14.696 -0.4076  0.0850  0.4409
 5924TIP3    H139263   0.782   5.895  14.781 -1.7032 -0.7415  1.2412
 5924TIP3    H239264   0.822   5.851  14.642  0.4271  0.6780  1.3756
 5925TIP3   OH239265   4.262   0.046   0.056 -0.4221  0.8370 -0.5245
 5925TIP3    H139266   4.179   0.093   0.049 -0.4723  0.7542 -0.4935
 5925TIP3    H239267   4.310   0.092   0.125 -0.8798  0.2399  0.1984
 5926TIP3   OH239268   6.688   2.504   6.293 -0.1164 -0.0311 -0.1136
 5926TIP3    H139269   6.762   2.469   6.342  1.2449  1.4924 -1.0257
 5926TIP3    H239270   6.631   2.542   6.360  1.3249  1.2983  0.3983
 5927TIP3   OH239271   2.465   5.571   2.275 -0.5175 -0.2212  0.2823
 5927TIP3    H139272   2.543   5.548   2.225 -0.3535  2.9750 -1.0100
 5927TIP3    H239273   2.498   5.626   2.346 -1.2306 -1.5657  1.6810
 5928TIP3   OH239274   0.528   5.275   4.060  0.0455  0.1410 -0.0711
 5928TIP3    H139275   0.456   5.315   4.012 -0.6783 -0.4591  0.4931
 5928TIP3    H239276   0.519   5.181   4.042 -0.0509 -0.0567  0.9819
 5929TIP3   OH239277   2.992   4.456   2.696 -0.2310 -0.3644 -0.4048
 5929TIP3    H139278   3.032   4.435   2.780  0.0430  1.5355 -0.0351
 5929TIP3    H239279   2.902   4.424   2.704 -0.0529 -0.6717  0.4223
 5930TIP3   OH239280   5.311   4.651   2.903 -0.1263  0.4584 -0.3904
 5930TIP3    H139281   5.306   4.728   2.847 -1.3516  0.7695  0.1208
 5930TIP3    H239282   5.298   4.686   2.992 -1.6620 -0.4276 -0.2390
 5931TIP3   OH239283   4.567   1.173   3.992 -0.0946  0.3411  0.7130
 5931TIP3    H139284   4.605   1.255   4.022 -0.3356  0.8606 -0.3849
 5931TIP3    H239285   4.490   1.198   3.941 -0.8711 -0.6246  1.3742
 5932TIP3   OH239286   1.605   4.705   4.707 -0.6883  0.1446 -0.1581
 5932TIP3    H139287   1.529   4.758   4.732 -0.1818  1.2422 -0.9072
 5932TIP3    H239288   1.679   4.750   4.747 -0.5575 -1.7520  1.8405
 5933TIP3   OH239289   3.983   5.441   4.106  0.8290  0.6534  0.7278
 5933TIP3    H139290   3.918   5.423   4.173  0.8277  0.2147  0.6090
 5933TIP3    H239291   3.938   5.499   4.044 -0.3058 -1.6818 -0.7114
 5934TIP3   OH239292   5.829   1.311  15.725  0.2086  0.4541  0.7087
 5934TIP3    H139293   5.861   1.249  15.791 -1.7332 -0.7348  0.5961
 5934TIP3    H239294   5.833   1.262  15.643  1.6473  1.5834  0.0912
 5935TIP3   OH239295   5.633   2.340   1.024 -0.5775  0.7649  0.6267
 5935TIP3    H139296   5.710   2.395   1.012 -0.5077  1.2164  3.0353
 5935TIP3    H239297   5.583   2.382   1.094 -0.9614 -1.7170  1.8999
 5936TIP3   OH239298   4.026   6.761   3.893  0.1148 -0.1622  0.3570
 5936TIP3    H139299   3.958   6.788   3.830  1.2423  0.2795 -0.6926
 5936TIP3    H239300   4.109   6.779   3.848  0.9308 -1.2457  1.3954
 5937TIP3   OH239301   1.722   5.217  11.062 -0.4633  0.5377 -0.3942
 5937TIP3    H139302   1.786   5.216  10.990 -1.0307  0.6227 -0.9076
 5937TIP3    H239303   1.663   5.289  11.040 -1.5378 -0.3920 -0.6452
 5938TIP3   OH239304   5.743   2.621  12.521 -0.4018 -0.0613 -0.2894
 5938TIP3    H139305   5.832   2.594  12.542 -0.2972 -0.2806 -1.0137
 5938TIP3    H239306   5.744   2.716  12.530 -0.0256 -0.0401 -0.5578
 5939TIP3   OH239307   2.443   0.471   1.476  0.2331 -0.4197  0.3619
 5939TIP3    H139308   2.436   0.375   1.475  2.1418 -0.5780  0.2629
 5939TIP3    H239309   2.502   0.491   1.403  0.6719  0.7518  1.0253
 5940TIP3   OH239310   0.694   1.448  12.949 -0.4622  0.1806  0.1125
 5940TIP3    H139311   0.735   1.478  12.868  0.3178 -0.7706  0.1401
 5940TIP3    H239312   0.762   1.396  12.993 -1.7091 -1.5397  0.0946
 5941TIP3   OH239313   0.407   4.799   3.266  0.3090  0.2061 -0.4291
 5941TIP3    H139314   0.377   4.875   3.316  0.9907 -0.2091  0.6381
 5941TIP3    H239315   0.345   4.729   3.290 -0.3317  0.4186 -1.4257
 5942TIP3   OH239316   4.390   5.539  16.201  0.2995  0.3153  0.3786
 5942TIP3    H139317   4.350   5.608  16.148  0.0032  1.3381  1.9058
 5942TIP3    H239318   4.470   5.516  16.155 -1.0033 -0.3365 -1.6516
 5943TIP3   OH239319   6.399   1.924  14.147 -0.1982 -0.1003  0.0396
 5943TIP3    H139320   6.485   1.929  14.188  0.3600  1.2832 -1.2432
 5943TIP3    H239321   6.416   1.888  14.060 -0.9499 -0.1726 -0.0800
 5944TIP3   OH239322   4.596   2.273   5.631  0.3847 -0.1309  0.1037
 5944TIP3    H139323   4.678   2.309   5.664  0.4596 -1.1880  1.0969
 5944TIP3    H239324   4.617   2.241   5.544  0.5758  1.2346 -0.3689
 5945TIP3   OH239325   0.490   1.463  12.594 -0.2919 -0.6020 -0.5686
 5945TIP3    H139326   0.472   1.370  12.584  0.6031 -0.7343 -0.9534
 5945TIP3    H239327   0.584   1.468  12.611 -0.2769  0.2475 -0.8677
 5946TIP3   OH239328   5.463   6.166  10.633 -0.5070  0.0976 -0.3603
 5946TIP3    H139329   5.457   6.259  10.608 -0.7886  0.2949  0.4382
 5946TIP3    H239330   5.372   6.136  10.637 -0.4325 -0.1070 -0.2035
 5947TIP3   OH239331   3.050   3.475   4.796 -0.2192 -0.0282  0.0404
 5947TIP3    H139332   3.024   3.548   4.853 -0.7222 -0.2897  0.1543
 5947TIP3    H239333   3.131   3.504   4.755  0.5482 -0.1209  1.4333
 5948TIP3   OH239334   1.250   6.088  16.927  0.4427  0.1562  0.1166
 5948TIP3    H139335   1.156   6.074  16.922  0.3185  0.7443  0.7451
 5948TIP3    H239336   1.288   6.021  16.871 -0.4951  1.6584 -2.3711
 5949TIP3   OH239337   0.498   5.538  12.974 -0.4377  0.4903  0.0458
 5949TIP3    H139338   0.447   5.614  13.000  0.9147  0.8086  1.8117
 5949TIP3    H239339   0.508   5.486  13.054 -0.7376 -1.1984 -0.9692
 5950TIP3   OH239340   1.612   0.048   2.059  0.6125  0.1615 -0.2701
 5950TIP3    H139341   1.657  -0.005   1.994 -1.9981 -1.4317 -0.8291
 5950TIP3    H239342   1.605  -0.009   2.136 -0.2808  0.4528 -0.1301
 5951TIP3   OH239343   5.993   4.634  12.235  0.4872  0.6376 -0.1411
 5951TIP3    H139344   6.037   4.557  12.272  0.8635  0.9283  0.0174
 5951TIP3    H239345   6.026   4.639  12.145 -0.6344 -0.2275 -0.6083
 5952TIP3   OH239346   3.204   3.802  13.600 -0.3268  0.0154 -0.2708
 5952TIP3    H139347   3.205   3.790  13.505 -0.0343 -0.5915 -0.1926
 5952TIP3    H239348   3.131   3.748  13.631  0.0032 -0.3247 -0.0813
 5953TIP3   OH239349   5.835   3.174   1.504  0.3961  0.2637 -0.2959
 5953TIP3    H139350   5.743   3.171   1.479 -0.1470 -0.9155  1.6673
 5953TIP3    H239351   5.882   3.137   1.429 -1.0434 -2.0821 -0.1019
 5954TIP3   OH239352   0.559   2.503  15.567 -0.4440  0.0544  0.1540
 5954TIP3    H139353   0.582   2.439  15.635 -1.2665  1.4330  1.7843
 5954TIP3    H239354   0.472   2.534  15.592 -0.9125  0.3193 -1.7514
 5955TIP3   OH239355   4.285   6.375  11.399  0.1946  0.3167 -0.5953
 5955TIP3    H139356   4.335   6.329  11.467  2.0538  1.3003 -1.2530
 5955TIP3    H239357   4.256   6.305  11.339  1.1140 -0.2413 -0.3981
 5956TIP3   OH239358   5.583   4.478  17.178  0.0208  0.7503 -0.4627
 5956TIP3    H139359   5.674   4.457  17.198  0.2266  0.8447 -1.2972
 5956TIP3    H239360   5.532   4.419  17.234  0.5857  0.9620  0.2870
 5957TIP3   OH239361   3.459   2.347  15.081  0.3682  0.6168  0.0886
 5957TIP3    H139362   3.462   2.423  15.024  2.8680  0.6843  0.2626
 5957TIP3    H239363   3.550   2.327  15.100 -0.2532 -2.1264  0.4582
 5958TIP3   OH239364   3.635   5.313   2.701  0.3357 -0.2945  0.6306
 5958TIP3    H139365   3.630   5.391   2.646  0.9952 -2.2257 -2.3349
 5958TIP3    H239366   3.548   5.272   2.692  0.6550 -0.9508  0.4575
 5959TIP3   OH239367   1.360   1.963  12.383 -0.2711 -0.0718 -0.0267
 5959TIP3    H139368   1.334   2.039  12.330  0.4044  0.9083  1.0147
 5959TIP3    H239369   1.280   1.910  12.388 -0.9265  0.8675 -0.2733
 5960TIP3   OH239370   2.594   0.004   6.108 -0.8693 -0.5748 -0.0081
 5960TIP3    H139371   2.638  -0.053   6.045  0.0349  1.7470 -1.5636
 5960TIP3    H239372   2.651   0.003   6.185  0.1239 -0.3383 -0.7223
 5961TIP3   OH239373   2.256   1.979   2.120  0.1161  0.2210  0.1727
 5961TIP3    H139374   2.287   2.039   2.187 -1.6550  0.3422  0.9222
 5961TIP3    H239375   2.293   1.894   2.144 -1.7279 -0.0487  2.2051
 5962TIP3   OH239376   2.908   1.318  14.312 -0.1554  0.0175  0.2629
 5962TIP3    H139377   2.861   1.399  14.333  0.2420 -0.0484  1.4211
 5962TIP3    H239378   2.937   1.285  14.397  0.3373 -0.9448 -0.2819
 5963TIP3   OH239379   1.159   2.581  13.529 -0.6461  0.1365  0.8582
 5963TIP3    H139380   1.198   2.498  13.557 -1.0649 -0.4183 -0.1709
 5963TIP3    H239381   1.201   2.600  13.445 -1.2187  0.4928  0.6487
 5964TIP3   OH239382   2.681   4.091   4.436  0.4490 -0.2729 -0.8121
 5964TIP3    H139383   2.774   4.076   4.456  0.2670  0.1383  0.3521
 5964TIP3    H239384   2.682   4.164   4.373  0.8956  0.0113 -0.4823
 5965TIP3   OH239385   2.723   3.992  12.337  0.4301 -0.3560 -0.2272
 5965TIP3    H139386   2.668   3.921  12.303  2.9031 -0.9101 -3.3591
 5965TIP3    H239387   2.671   4.071  12.325 -1.1766 -1.2716  0.5054
 5966TIP3   OH239388   1.197   4.868  15.535  0.2123 -0.1389 -0.0134
 5966TIP3    H139389   1.129   4.908  15.481  0.3389  0.9892  0.6541
 5966TIP3    H239390   1.267   4.933  15.539 -0.9314  0.9641  3.7522
 5967TIP3   OH239391   0.971   3.969   1.972 -0.2720 -0.2344 -0.2046
 5967TIP3    H139392   1.064   3.992   1.966 -0.1545 -0.4440  0.8174
 5967TIP3    H239393   0.971   3.876   1.991 -0.7013 -0.2564 -0.3163
 5968TIP3   OH239394   3.303   6.015  14.188  0.3872 -0.0015 -0.1242
 5968TIP3    H139395   3.226   5.974  14.226  1.7797 -0.3264  2.5039
 5968TIP3    H239396   3.271   6.097  14.150 -1.0840  0.3456  1.8151
 5969TIP3   OH239397   1.658   2.374   0.884  0.0686 -0.0319 -0.1262
 5969TIP3    H139398   1.576   2.325   0.890  0.3372 -0.6173 -1.0116
 5969TIP3    H239399   1.647   2.428   0.805 -0.8177  2.4858  1.6692
 5970TIP3   OH239400   2.341   2.922   1.581 -0.4744 -0.0448  0.7371
 5970TIP3    H139401   2.352   3.007   1.540  2.3374 -0.7776 -0.1341
 5970TIP3    H239402   2.280   2.875   1.524  0.5589  0.2216 -0.5991
 5971TIP3   OH239403   2.496   1.835   0.493  0.1388  0.4850  0.1528
 5971TIP3    H139404   2.557   1.765   0.470  0.8940  1.3544 -0.5444
 5971TIP3    H239405   2.412   1.792   0.504  0.3261 -0.3341 -1.5791
 5972TIP3   OH239406   4.003   6.762  11.050  0.5167  0.3747  0.1482
 5972TIP3    H139407   4.065   6.782  10.979  1.1067  1.4190  0.9376
 5972TIP3    H239408   4.009   6.838  11.108 -2.0785  0.8244 -0.1546
 5973TIP3   OH239409   1.308   6.322  13.192 -0.1579 -0.2063 -0.5922
 5973TIP3    H139410   1.318   6.334  13.286  0.0597 -0.9392 -0.5186
 5973TIP3    H239411   1.215   6.304  13.179 -0.9354  3.6354 -0.9445
 5974TIP3   OH239412   0.293   0.519   5.390  0.2295 -0.8672  0.3776
 5974TIP3    H139413   0.267   0.571   5.314 -0.4645 -0.7071  0.7120
 5974TIP3    H239414   0.242   0.438   5.382 -0.1150 -0.7049  0.8455
 5975TIP3   OH239415   5.448   2.520   1.184 -0.4225  0.2678  0.2356
 5975TIP3    H139416   5.363   2.564   1.183 -0.0438  1.0229  0.8510
 5975TIP3    H239417   5.460   2.492   1.274 -0.2071 -0.2214  0.0571
 5976TIP3   OH239418   5.786   2.271  14.649  0.5051  0.5429  0.7889
 5976TIP3    H139419   5.809   2.215  14.575 -0.5110 -0.5447  1.3001
 5976TIP3    H239420   5.763   2.211  14.720  0.6577  1.5843  1.7424
 5977TIP3   OH239421   4.165   0.506  13.332  0.2660 -0.0319  0.0938
 5977TIP3    H139422   4.164   0.447  13.407 -1.0342  0.8613  0.7999
 5977TIP3    H239423   4.086   0.482  13.282  0.2986  0.4180 -0.1743
 5978TIP3   OH239424   0.279   1.190   5.351 -0.6383 -0.2534 -0.0377
 5978TIP3    H139425   0.318   1.250   5.288 -0.8787  0.4851  0.5060
 5978TIP3    H239426   0.218   1.137   5.299  0.4728 -0.8713 -0.7399
 5979TIP3   OH239427   0.899   1.881  17.122  0.1021 -0.0715  0.6734
 5979TIP3    H139428   0.920   1.968  17.088  1.6832 -0.8759 -0.5060
 5979TIP3    H239429   0.854   1.897  17.204  0.8642  1.8547  0.7299
 5980TIP3   OH239430   5.563   6.437  15.284 -0.8597 -0.3171 -1.0537
 5980TIP3    H139431   5.619   6.381  15.229  2.0786  1.8622 -0.4056
 5980TIP3    H239432   5.588   6.414  15.373 -0.7382  0.9507 -0.7638
 5981TIP3   OH239433   2.245   5.405  15.825 -0.0350  0.2313  0.1688
 5981TIP3    H139434   2.260   5.493  15.860 -0.5437  0.4648 -0.1909
 5981TIP3    H239435   2.251   5.348  15.901  2.0582  0.3697  0.1328
 5982TIP3   OH239436   3.468   5.281  15.300  0.2051  0.0471 -0.0475
 5982TIP3    H139437   3.515   5.274  15.384 -0.1247 -0.4921  0.0879
 5982TIP3    H239438   3.538   5.292  15.235  0.5507 -1.3675  0.0862
 5983TIP3   OH239439   6.747   0.958  15.337  0.0993  0.1577  0.5231
 5983TIP3    H139440   6.842   0.956  15.351  0.3288  2.5853 -0.3247
 5983TIP3    H239441   6.737   1.004  15.254 -1.7895 -0.8664  0.1770
 5984TIP3   OH239442   4.886   0.402  12.895  0.5457 -0.1314 -0.1529
 5984TIP3    H139443   4.945   0.367  12.961  2.8772  1.5021 -1.2914
 5984TIP3    H239444   4.800   0.368  12.919  1.4628 -0.2214  3.2453
 5985TIP3   OH239445   0.597   5.318  13.164 -0.0814  0.2548  0.3170
 5985TIP3    H139446   0.521   5.300  13.109 -0.7406 -2.2085  1.9228
 5985TIP3    H239447   0.582   5.265  13.243  3.2098 -0.1693  0.7290
 5986TIP3   OH239448   2.661   5.520  15.589 -0.7110 -0.1782  0.0077
 5986TIP3    H139449   2.574   5.487  15.615  0.1510 -3.1713 -0.6795
 5986TIP3    H239450   2.656   5.530  15.494 -0.6319  0.6705  0.0920
 5987TIP3   OH239451   2.382   1.298   1.620 -0.1858 -0.0463 -0.5767
 5987TIP3    H139452   2.349   1.250   1.696 -0.9727  0.8846 -0.3191
 5987TIP3    H239453   2.472   1.320   1.642  0.0963 -1.1784 -0.5905
 5988TIP3   OH239454   3.691   0.047   2.835 -0.3536 -0.4299 -0.2921
 5988TIP3    H139455   3.615   0.028   2.780 -1.4733  0.4574  0.9183
 5988TIP3    H239456   3.753   0.090   2.776 -1.1836 -0.2920 -1.0788
 5989TIP3   OH239457   1.685   1.509  14.460 -0.2099  0.9205 -0.5709
 5989TIP3    H139458   1.717   1.583  14.409  0.6698 -0.3008 -1.8100
 5989TIP3    H239459   1.653   1.446  14.395 -0.8094  0.1414  0.4586
 5990TIP3   OH239460   2.918   1.804  15.407 -0.0066 -0.3198 -0.1002
 5990TIP3    H139461   2.925   1.850  15.323  0.3492 -0.9855 -0.4441
 5990TIP3    H239462   2.999   1.827  15.454 -1.2388  1.8674  1.0042
 5991TIP3   OH239463   0.213   0.978  12.351  0.3370 -0.0827 -0.2230
 5991TIP3    H139464   0.212   1.057  12.406 -1.1461 -0.1143 -0.1919
 5991TIP3    H239465   0.127   0.939  12.364  0.9065 -1.4855 -0.5805
 5992TIP3   OH239466   0.623   2.180   3.515  0.1378 -0.4592  0.2443
 5992TIP3    H139467   0.611   2.086   3.521  3.2399 -0.9143 -0.2054
 5992TIP3    H239468   0.655   2.206   3.601 -1.1468  0.2931  0.5176
 5993TIP3   OH239469   0.495   0.959  16.129 -0.0270 -0.3318  0.0604
 5993TIP3    H139470   0.534   0.992  16.210 -2.4363  1.6003  0.4801
 5993TIP3    H239471   0.505   0.863  16.135  0.9813 -0.1336  1.9998
 5994TIP3   OH239472   6.212   3.767  12.497  0.0705 -0.2024  0.5068
 5994TIP3    H139473   6.155   3.725  12.562  0.8546 -1.4690  0.3898
 5994TIP3    H239474   6.295   3.781  12.542 -0.6981  2.8163  1.0673
 5995TIP3   OH239475   3.029   0.593   4.726 -0.2147 -1.0607  0.1578
 5995TIP3    H139476   3.057   0.508   4.761 -1.3927 -0.4142  2.8490
 5995TIP3    H239477   2.981   0.634   4.799  1.9781  2.7279 -0.4053
 5996TIP3   OH239478   1.106   1.347   5.027 -0.7879  0.4335 -0.1918
 5996TIP3    H139479   1.099   1.325   4.934 -2.0008  0.8855 -0.2146
 5996TIP3    H239480   1.185   1.301   5.056 -1.5013 -1.3265 -0.9649
 5997TIP3   OH239481   1.258   3.634  11.366  0.0259 -0.3403 -0.2578
 5997TIP3    H139482   1.190   3.642  11.433  1.7149 -3.8146  2.0000
 5997TIP3    H239483   1.212   3.597  11.290 -0.8889 -1.5336  0.8378
 5998TIP3   OH239484   3.961   5.562   5.282 -0.0624  0.3498  0.1133
 5998TIP3    H139485   4.023   5.634   5.271  0.0610  0.1135 -0.7300
 5998TIP3    H239486   3.917   5.555   5.198 -0.3864 -0.2712  0.3349
 5999TIP3   OH239487   5.994   3.431   4.501  0.2604 -0.0626  0.2967
 5999TIP3    H139488   5.982   3.437   4.406  1.1904 -1.9511  0.0292
 5999TIP3    H239489   5.957   3.346   4.525  1.3753 -0.2598  1.3817
 6000TIP3   OH239490   6.436   2.572   2.778 -0.0592  0.0210  0.4521
 6000TIP3    H139491   6.447   2.660   2.815 -1.4618  0.3671  0.0555
 6000TIP3    H239492   6.358   2.579   2.723  0.9605 -0.9533 -1.1491
 6001TIP3   OH239493   2.701   0.032   4.404 -0.0011 -0.2250  0.9750
 6001TIP3    H139494   2.773  -0.024   4.434  0.0697  0.1140  1.4298
 6001TIP3    H239495   2.626  -0.027   4.398  0.4541 -0.7197 -0.0937
 6002TIP3   OH239496   2.243   5.957   0.881  0.0646  0.6223  0.4654
 6002TIP3    H139497   2.160   5.929   0.845  0.5027  1.9224 -1.6041
 6002TIP3    H239498   2.229   6.048   0.908  1.1616  1.2961 -1.1441
 6003TIP3   OH239499   2.903   1.221  13.014 -0.1383 -0.8520  0.2017
 6003TIP3    H139500   2.998   1.231  13.009 -0.1973 -1.0795 -1.5006
 6003TIP3    H239501   2.887   1.129  12.992 -0.9260 -0.2226 -1.8934
 6004TIP3   OH239502   4.262   3.458   5.013 -0.6861 -0.1114  0.4367
 6004TIP3    H139503   4.219   3.466   5.098 -1.7523  0.6167 -0.1648
 6004TIP3    H239504   4.257   3.364   4.992 -0.3519 -0.3034  1.1990
 6005TIP3   OH239505   4.999   4.337  10.464  0.5936 -0.2746  0.0259
 6005TIP3    H139506   4.933   4.336  10.395  0.5848 -1.6732  0.0446
 6005TIP3    H239507   5.068   4.395  10.431 -0.0580  0.1708 -0.5449
 6006TIP3   OH239508   1.327   3.761  13.197 -0.0226  0.9186 -0.0269
 6006TIP3    H139509   1.312   3.703  13.123 -0.7754  1.2605 -0.1474
 6006TIP3    H239510   1.371   3.706  13.262 -0.4161  0.3084 -0.2755
 6007TIP3   OH239511   3.538   5.045   5.201  0.5101  0.3580  0.4833
 6007TIP3    H139512   3.486   4.993   5.263  0.6297 -0.8324 -0.3982
 6007TIP3    H239513   3.507   5.135   5.213 -0.4404 -0.0645  1.2817
 6008TIP3   OH239514   3.759   1.526  14.120  0.2388 -0.2814 -0.1185
 6008TIP3    H139515   3.821   1.460  14.150 -0.9986 -0.7952  1.4244
 6008TIP3    H239516   3.696   1.477  14.067  1.1998  0.2491 -1.7497
 6009TIP3   OH239517   3.247   3.442   2.485 -0.1200 -0.4993 -0.6021
 6009TIP3    H139518   3.200   3.465   2.565 -2.0783 -0.6134 -1.6984
 6009TIP3    H239519   3.291   3.360   2.505  0.1092 -0.0781  0.6361
 6010TIP3   OH239520   0.631   4.522  12.889 -0.6603  0.0978  0.2380
 6010TIP3    H139521   0.550   4.475  12.907 -1.2365  0.6970 -0.7665
 6010TIP3    H239522   0.608   4.614  12.892  0.1673  0.2981  0.7844
 6011TIP3   OH239523   2.886   3.696   2.933 -0.2610  0.0837  0.1163
 6011TIP3    H139524   2.935   3.720   2.854 -0.2759  0.2048  0.1433
 6011TIP3    H239525   2.937   3.735   3.004  0.1479 -0.6393  0.2258
 6012TIP3   OH239526   1.357   1.011  11.342 -0.3775 -0.7034 -0.1413
 6012TIP3    H139527   1.420   0.945  11.374 -0.5543 -0.0202  1.6975
 6012TIP3    H239528   1.281   1.001  11.399 -0.6742  0.6359 -0.2868
 6013TIP3   OH239529   4.620   0.193   2.854  0.0295 -0.3746  0.3879
 6013TIP3    H139530   4.529   0.206   2.826 -0.0054 -0.3446  0.5179
 6013TIP3    H239531   4.664   0.163   2.774 -0.4515 -2.0368  0.7386
 6014TIP3   OH239532   0.604   1.932   1.841 -0.0188 -0.0036  0.3610
 6014TIP3    H139533   0.597   1.984   1.922 -1.2011 -3.0309  2.2933
 6014TIP3    H239534   0.653   1.988   1.781  2.6702  1.5941  3.8328
 6015TIP3   OH239535   6.627   5.938   5.685  0.0276  0.6142 -0.7499
 6015TIP3    H139536   6.547   5.935   5.632  1.1581 -1.1518 -2.4277
 6015TIP3    H239537   6.607   5.886   5.762 -0.9801  1.5247 -0.3922
 6016TIP3   OH239538   4.271   2.679   3.130  0.2168 -0.5258 -0.1039
 6016TIP3    H139539   4.255   2.742   3.201 -0.7413 -2.8597  1.8476
 6016TIP3    H239540   4.351   2.711   3.088 -0.1557  1.8947  0.9264
 6017TIP3   OH239541   1.165   5.077   1.367 -0.2133 -0.1598  0.0397
 6017TIP3    H139542   1.181   5.069   1.273  0.7436  0.3117  0.1643
 6017TIP3    H239543   1.069   5.075   1.374 -0.2718 -1.1967 -0.8518
 6018TIP3   OH239544   6.487   3.102   0.585  0.1134  0.4266  0.0804
 6018TIP3    H139545   6.564   3.049   0.602  0.8481  1.5475  0.3006
 6018TIP3    H239546   6.521   3.188   0.562 -1.0619  0.8916  0.0171
 6019TIP3   OH239547   1.169   4.094   4.653  0.3366  0.3407 -0.0856
 6019TIP3    H139548   1.083   4.127   4.626 -0.3700 -1.0407  0.4277
 6019TIP3    H239549   1.213   4.072   4.570  2.3834  6.1131 -0.7536
 6020TIP3   OH239550   3.635   2.366  11.726  0.1811 -0.8908  0.3154
 6020TIP3    H139551   3.725   2.333  11.723  0.9507  1.0476  0.9654
 6020TIP3    H239552   3.634   2.427  11.799 -0.8585  1.3847 -1.5119
 6021TIP3   OH239553   3.886   2.386   3.582 -0.0548 -0.8145 -0.3393
 6021TIP3    H139554   3.855   2.397   3.492 -2.8156 -0.7218  0.5619
 6021TIP3    H239555   3.926   2.470   3.605  0.9590 -0.9574 -1.5790
 6022TIP3   OH239556   4.938   0.888  17.170  0.1408 -0.2131  0.1735
 6022TIP3    H139557   4.982   0.973  17.165 -0.7359  0.2080 -0.5876
 6022TIP3    H239558   4.896   0.877  17.085 -1.7157 -0.3133  1.0527
 6023TIP3   OH239559   4.827   2.674  15.042  0.2662  0.8685 -0.2978
 6023TIP3    H139560   4.855   2.593  15.085 -0.0262  0.3909 -0.9965
 6023TIP3    H239561   4.736   2.685  15.068 -0.0938  0.2540 -1.2680
 6024TIP3   OH239562   1.909   1.771  14.892  0.1776 -0.3744  0.7685
 6024TIP3    H139563   1.909   1.861  14.858 -1.4943 -0.2510  1.0375
 6024TIP3    H239564   1.993   1.762  14.936  0.3297  1.1031  0.8168
 6025TIP3   OH239565   0.982   4.587  12.348 -0.5316  0.1905  0.1450
 6025TIP3    H139566   0.986   4.670  12.394 -2.8872  0.0564  0.6240
 6025TIP3    H239567   0.973   4.611  12.256  2.5589  0.4470 -0.1443
 6026TIP3   OH239568   6.538   5.484  12.677  0.4784  0.1515 -0.6188
 6026TIP3    H139569   6.517   5.390  12.679  0.7309  0.0996  0.4256
 6026TIP3    H239570   6.565   5.501  12.587  3.1840 -1.4273 -0.1918
 6027TIP3   OH239571   5.587   2.246   1.316  0.2545 -0.0804 -0.1998
 6027TIP3    H139572   5.583   2.162   1.361 -1.3465  0.1146  0.0379
 6027TIP3    H239573   5.586   2.224   1.223  0.5984 -0.3434 -0.1447
 6028TIP3   OH239574   2.799   0.776   3.784 -0.0975  0.4756 -0.2854
 6028TIP3    H139575   2.710   0.791   3.817 -0.4553  0.5981 -1.2924
 6028TIP3    H239576   2.840   0.722   3.851 -1.3087 -0.5888 -0.3838
 6029TIP3   OH239577   1.524   4.863   1.480  0.1103  0.6957 -0.1732
 6029TIP3    H139578   1.608   4.866   1.526  1.9246 -0.3449 -3.2141
 6029TIP3    H239579   1.478   4.942   1.508  1.5616  0.6464  2.5042
 6030TIP3   OH239580   4.099   4.860  16.581 -0.1089  0.3537  0.0443
 6030TIP3    H139581   4.148   4.887  16.660 -1.3096 -0.2291  1.0062
 6030TIP3    H239582   4.111   4.933  16.520  0.4393  1.0405  0.9429
 6031TIP3   OH239583   5.956   4.537  13.597 -0.4679  0.4796  0.4980
 6031TIP3    H139584   6.042   4.506  13.570 -0.5934 -0.6211  1.3328
 6031TIP3    H239585   5.936   4.486  13.675 -1.7741  0.9100  0.4488
 6032TIP3   OH239586   6.102   4.305   3.747  0.1498  0.5904 -0.0914
 6032TIP3    H139587   6.091   4.302   3.842 -0.7996 -3.0220 -0.2698
 6032TIP3    H239588   6.026   4.354   3.716  0.4065  1.7027  0.9506
 6033TIP3   OH239589   6.715   1.518   1.959 -0.2583  0.0987 -0.3583
 6033TIP3    H139590   6.657   1.593   1.968 -1.3728 -0.5277 -2.1222
 6033TIP3    H239591   6.725   1.506   1.865  2.0985 -0.3090 -0.0827
 6034TIP3   OH239592   2.515   6.544  16.573 -0.1478  0.9182  0.7409
 6034TIP3    H139593   2.611   6.551  16.576 -0.1609  0.8079  1.5674
 6034TIP3    H239594   2.489   6.606  16.505  0.6187 -0.2450 -0.6348
 6035TIP3   OH239595   5.996   2.652  15.426 -0.3475 -0.1292  0.3482
 6035TIP3    H139596   6.035   2.601  15.355  1.0092  0.2155  0.8414
 6035TIP3    H239597   6.057   2.724  15.440 -2.0609  1.4307 -0.0823
 6036TIP3   OH239598   2.337   4.895   4.582  0.0386  0.1894  0.5566
 6036TIP3    H139599   2.360   4.987   4.591  0.7649  0.1937 -1.2980
 6036TIP3    H239600   2.365   4.871   4.494 -0.4792 -1.7108  0.8863
 6037TIP3   OH239601   0.785   5.747   2.210 -0.4559 -0.5103 -0.6192
 6037TIP3    H139602   0.861   5.751   2.152 -1.1503  0.9259 -1.4662
 6037TIP3    H239603   0.723   5.809   2.172 -0.7551  0.8367  1.9496
 6038TIP3   OH239604   3.025   2.210   5.749 -0.4096  0.7698  0.2485
 6038TIP3    H139605   3.014   2.303   5.729  0.1213  0.3631 -2.0542
 6038TIP3    H239606   2.939   2.172   5.731 -0.9137  0.9597  2.1657
 6039TIP3   OH239607   4.520   4.733   2.489  0.1340  0.0835 -0.0329
 6039TIP3    H139608   4.525   4.639   2.504 -0.9940  0.2850  1.7867
 6039TIP3    H239609   4.427   4.752   2.481  0.4391  0.7792 -2.4209
 6040TIP3   OH239610   1.137   0.031   5.580 -0.3099 -0.3823 -0.1652
 6040TIP3    H139611   1.215  -0.005   5.537 -0.5620 -0.3691 -0.6385
 6040TIP3    H239612   1.170   0.106   5.629 -0.0166 -0.3898 -0.3467
 6041TIP3   OH239613   5.744   6.762   4.353  0.1709  0.1395 -0.0578
 6041TIP3    H139614   5.731   6.842   4.303 -0.8378  0.1918  0.2857
 6041TIP3    H239615   5.795   6.789   4.429 -0.8803  0.6159  0.4867
 6042TIP3   OH239616   2.508   4.461  14.833  0.7694 -0.5823  0.4542
 6042TIP3    H139617   2.523   4.556  14.836 -1.8088 -0.0284 -1.9658
 6042TIP3    H239618   2.448   4.444  14.906 -1.6618  0.2945 -1.2824
 6043TIP3   OH239619   5.499   0.906   1.080  0.2571  0.2853  0.2922
 6043TIP3    H139620   5.515   0.872   1.168 -2.6327 -0.0532  0.7409
 6043TIP3    H239621   5.547   0.847   1.022  0.4349 -0.7702  1.4972
 6044TIP3   OH239622   0.951   1.265   5.937 -0.1061 -0.0587  0.6393
 6044TIP3    H139623   1.004   1.344   5.936 -0.1525 -0.0355  0.0146
 6044TIP3    H239624   1.000   1.204   5.993  1.3984 -0.6013 -1.2020
 6045TIP3   OH239625   1.402   1.708  11.209 -0.1912  0.1379 -0.4671
 6045TIP3    H139626   1.334   1.764  11.172 -0.5218 -0.4186 -0.7093
 6045TIP3    H239627   1.383   1.706  11.303 -1.9001 -1.8539 -0.8087
 6046TIP3   OH239628   2.428   4.535   1.327 -0.4105 -0.0952  0.2718
 6046TIP3    H139629   2.422   4.612   1.272  1.0115 -0.4067 -0.3385
 6046TIP3    H239630   2.401   4.463   1.271 -1.3912 -0.0960  0.7343
 6047TIP3   OH239631   0.426   4.693  14.517  0.4467  0.2808 -0.0114
 6047TIP3    H139632   0.384   4.608  14.528 -0.0178  0.2438 -1.9124
 6047TIP3    H239633   0.383   4.750  14.581 -2.0131  0.0622 -1.4150
 6048TIP3   OH239634   1.804   6.077  14.100 -0.4156  0.5047 -0.0873
 6048TIP3    H139635   1.873   6.075  14.166  0.5263  3.0446 -0.9392
 6048TIP3    H239636   1.828   6.008  14.038  0.5305  0.3837  0.4133
 6049TIP3   OH239637   6.482   4.320   5.170  0.0995 -0.1179 -0.2701
 6049TIP3    H139638   6.478   4.353   5.260  0.6206 -0.4042 -0.1441
 6049TIP3    H239639   6.392   4.329   5.138  0.0540  0.6227  0.0505
 6050TIP3   OH239640   4.516   5.251   2.872  0.1704 -0.2656 -0.2622
 6050TIP3    H139641   4.562   5.231   2.791 -0.6152  0.2597 -0.8422
 6050TIP3    H239642   4.556   5.332   2.903 -0.9564  0.6731 -1.2322
 6051TIP3   OH239643   0.457   0.046   2.823 -0.5799 -0.0709  0.7958
 6051TIP3    H139644   0.514   0.113   2.785 -2.3298  1.9914  1.7256
 6051TIP3    H239645   0.418   0.002   2.748 -2.1790  2.3802  0.1251
 6052TIP3   OH239646   6.633   5.344  12.432 -1.0422 -0.4040 -0.2128
 6052TIP3    H139647   6.569   5.284  12.470 -0.8096 -0.3874  0.2133
 6052TIP3    H239648   6.717   5.305  12.454 -0.9094 -0.5393 -0.9623
 6053TIP3   OH239649   4.979   1.322  16.674 -0.3817 -0.0498 -0.5175
 6053TIP3    H139650   5.000   1.259  16.743 -1.4256  0.7784  0.5912
 6053TIP3    H239651   5.064   1.350  16.640  0.2201  0.8407  1.6480
 6054TIP3   OH239652   6.507   0.934   0.076 -0.1279  0.0743  0.1132
 6054TIP3    H139653   6.453   0.964   0.150 -1.8430 -0.5964 -0.8481
 6054TIP3    H239654   6.557   0.860   0.111  0.3854  0.8684  1.0856
 6055TIP3   OH239655   2.224   0.369   2.549 -0.5680 -0.2327  0.0628
 6055TIP3    H139656   2.289   0.433   2.520 -0.0850 -0.5983  0.3493
 6055TIP3    H239657   2.182   0.410   2.624  0.7576 -0.8706  1.1647
 6056TIP3   OH239658   0.378   4.364  11.274  0.3291 -0.1760  0.5642
 6056TIP3    H139659   0.327   4.329  11.202  0.6007  0.5120  0.0288
 6056TIP3    H239660   0.468   4.364  11.242  0.2609  1.5978  0.2937
 6057TIP3   OH239661   1.860   2.409   1.821  0.4904  0.2325  0.7238
 6057TIP3    H139662   1.787   2.448   1.870  1.4483  0.0537  2.3252
 6057TIP3    H239663   1.921   2.379   1.888  1.0488 -1.5852 -0.5521
 6058TIP3   OH239664   2.359   4.630  14.000 -0.3144 -0.0552 -0.5105
 6058TIP3    H139665   2.443   4.605  13.961 -0.4761  0.2634 -1.0670
 6058TIP3    H239666   2.356   4.726  13.992 -1.7005 -0.2360 -2.4751
 6059TIP3   OH239667   5.645   3.580  14.315  0.0129 -0.1045  0.5747
 6059TIP3    H139668   5.593   3.597  14.394 -0.1947  1.2454  0.1632
 6059TIP3    H239669   5.587   3.605  14.243  0.0273 -1.7935 -0.0368
 6060TIP3   OH239670   0.447   5.174   2.108 -0.6706  0.1527  0.2507
 6060TIP3    H139671   0.488   5.147   2.190 -2.6841  0.4902  1.4201
 6060TIP3    H239672   0.511   5.231   2.066  0.6854 -0.6280  1.2233
 6061TIP3   OH239673   3.242   4.887   2.363 -0.3709  0.1957 -0.2982
 6061TIP3    H139674   3.260   4.820   2.429  0.2191  0.7814  0.1445
 6061TIP3    H239675   3.164   4.933   2.396 -0.0973  0.4650 -0.0178
 6062TIP3   OH239676   5.914   1.103  13.063 -0.3389 -0.2385  0.1833
 6062TIP3    H139677   5.919   1.060  13.148 -2.5266 -0.7569  0.0837
 6062TIP3    H239678   5.993   1.074  13.017 -0.3939 -1.9484  1.1299
 6063TIP3   OH239679   0.974   4.457  12.575  0.9324 -0.3865 -0.1375
 6063TIP3    H139680   0.888   4.418  12.592  0.2533  1.5931  1.1546
 6063TIP3    H239681   0.963   4.503  12.491  0.4157  0.7224  0.5321
 6064TIP3   OH239682   5.185   4.960   1.355  0.5218 -0.0328  0.0065
 6064TIP3    H139683   5.218   4.951   1.266  0.7421 -0.3916  0.1226
 6064TIP3    H239684   5.155   5.051   1.361  0.6302  0.0287 -0.3887
 6065TIP3   OH239685   6.339   0.077   2.410  0.6598  0.2804  0.5624
 6065TIP3    H139686   6.361   0.102   2.500  0.5280  1.0157  0.3992
 6065TIP3    H239687   6.248   0.046   2.416  1.3012 -1.5533  1.0155
 6066TIP3   OH239688   2.780   1.530  15.537  0.3832  0.3402 -0.1757
 6066TIP3    H139689   2.809   1.502  15.624  0.1496  1.8756  0.4196
 6066TIP3    H239690   2.853   1.508  15.479  0.7523 -0.2276  0.4914
 6067TIP3   OH239691   2.504   5.405  11.690 -0.3741 -0.1023 -0.3191
 6067TIP3    H139692   2.421   5.450  11.702 -0.6334 -0.7336  0.3205
 6067TIP3    H239693   2.481   5.312  11.686  0.4882 -0.4819  2.2270
 6068TIP3   OH239694   1.968   2.887  14.119 -0.3726 -0.3214 -0.4343
 6068TIP3    H139695   1.946   2.975  14.149 -0.3643 -0.4966  0.0910
 6068TIP3    H239696   2.052   2.897  14.074  0.7359 -0.4275  1.5646
 6069TIP3   OH239697   5.768   1.116   3.958  0.1910 -0.3988  0.4402
 6069TIP3    H139698   5.820   1.062   4.016  1.7269  1.3265  0.7232
 6069TIP3    H239699   5.829   1.142   3.888 -1.1031 -0.8309 -0.8902
 6070TIP3   OH239700   1.804   4.934   2.609  0.4519  0.1380  0.1889
 6070TIP3    H139701   1.835   5.022   2.629 -0.8067  0.8242 -0.7616
 6070TIP3    H239702   1.824   4.922   2.516 -0.5444 -0.0514 -0.0177
 6071TIP3   OH239703   6.181   2.691   0.091 -0.1525 -0.0948  0.0587
 6071TIP3    H139704   6.185   2.774   0.043  0.8225 -0.4672 -0.5327
 6071TIP3    H239705   6.269   2.681   0.128  0.3425 -1.7734 -1.4748
 6072TIP3   OH239706   3.875   4.100   3.965 -0.1314  0.2203 -0.8817
 6072TIP3    H139707   3.966   4.079   3.987 -0.8932 -1.9451  0.3093
 6072TIP3    H239708   3.869   4.195   3.977  1.1238 -0.0348  2.3020
 6073TIP3   OH239709   6.789   4.326   0.591  0.1286 -0.1334  0.4229
 6073TIP3    H139710   6.872   4.324   0.544  0.8482  0.0039  1.6703
 6073TIP3    H239711   6.787   4.412   0.634 -0.5639 -0.2118  0.5653
 6074TIP3   OH239712   5.380   5.391  12.168 -0.4260 -0.2432  0.0709
 6074TIP3    H139713   5.382   5.364  12.076 -0.8160 -1.3487  0.3847
 6074TIP3    H239714   5.460   5.353  12.206 -0.3049  0.1470  0.2087
 6075TIP3   OH239715   0.885   2.950   5.594  0.1387  0.1654 -0.4070
 6075TIP3    H139716   0.858   2.945   5.503  0.3572 -0.6695 -0.4285
 6075TIP3    H239717   0.980   2.947   5.591  0.1349 -0.2030 -0.1271
 6076TIP3   OH239718   4.297   1.623   1.072 -0.0439 -0.1671 -0.2176
 6076TIP3    H139719   4.335   1.608   1.159  0.7677 -2.1305 -0.8755
 6076TIP3    H239720   4.371   1.646   1.017 -0.3007 -0.6021 -0.7520
 6077TIP3   OH239721   5.274   4.942   4.793  0.4215 -0.0026  0.0472
 6077TIP3    H139722   5.233   5.028   4.800 -0.0335  0.2886 -4.4868
 6077TIP3    H239723   5.365   4.957   4.818 -0.4165  0.9820  2.6992
 6078TIP3   OH239724   3.051   2.533  14.354  0.1221 -0.2905 -0.1878
 6078TIP3    H139725   2.984   2.602  14.355  1.5441  1.1310  1.0163
 6078TIP3    H239726   3.127   2.575  14.313  1.4994 -0.6400  1.9308
 6079TIP3   OH239727   6.568   4.863   0.720 -0.0417 -0.2512  0.0743
 6079TIP3    H139728   6.563   4.856   0.816 -2.1017  2.5165  0.2641
 6079TIP3    H239729   6.487   4.822   0.689 -0.2015  0.3750 -0.3493
 6080TIP3   OH239730   3.340   4.263   6.038  0.1685 -0.6159  0.8998
 6080TIP3    H139731   3.346   4.335   6.100 -0.7165 -0.7339  1.1333
 6080TIP3    H239732   3.405   4.199   6.068  0.8046 -0.0151  0.8098
 6081TIP3   OH239733   2.921   2.638  11.089 -0.7304 -0.0721  0.1295
 6081TIP3    H139734   2.967   2.636  11.005 -2.3634 -1.5001 -0.7522
 6081TIP3    H239735   2.838   2.594  11.073 -1.1595 -0.2087  2.4605
 6082TIP3   OH239736   2.600   3.699   0.199 -0.5119 -0.1422 -0.5005
 6082TIP3    H139737   2.536   3.731   0.135 -0.7554 -0.8845 -0.6370
 6082TIP3    H239738   2.588   3.604   0.199  1.0959 -0.3613 -1.0777
 6083TIP3   OH239739   0.158   3.806   4.410 -0.0318 -0.4602  0.2444
 6083TIP3    H139740   0.086   3.867   4.391  0.8767  0.2636 -0.9502
 6083TIP3    H239741   0.129   3.722   4.375  0.3653  0.1937 -1.7199
 6084TIP3   OH239742   6.251   5.782   3.740  0.0032  0.0115 -0.1133
 6084TIP3    H139743   6.174   5.750   3.693  1.5591 -4.2675  0.0607
 6084TIP3    H239744   6.223   5.786   3.832 -0.6987  0.8619 -0.3520
 6085TIP3   OH239745   1.363   0.429  12.763  0.5272  0.3153  0.2361
 6085TIP3    H139746   1.297   0.438  12.695 -1.4173 -1.4385  1.8338
 6085TIP3    H239747   1.407   0.346  12.744  1.4918  0.8939 -0.1270
 6086TIP3   OH239748   2.688   5.977   0.441  0.4791 -0.4606 -0.2573
 6086TIP3    H139749   2.702   6.071   0.453  0.5676 -0.8530  3.2129
 6086TIP3    H239750   2.596   5.970   0.416  0.2391  0.4961  0.3246
 6087TIP3   OH239751   6.541   0.790  13.251 -0.6830 -0.4452  0.1843
 6087TIP3    H139752   6.544   0.791  13.347 -1.8418 -0.5243  0.2200
 6087TIP3    H239753   6.496   0.871  13.228 -1.5935 -1.0758 -0.2551
 6088TIP3   OH239754   2.690   0.019   5.665  0.7577  0.0054 -0.1546
 6088TIP3    H139755   2.668   0.081   5.595  1.5259  1.4424  0.8574
 6088TIP3    H239756   2.783   0.001   5.652 -0.2537 -4.0393 -2.8282
 6089TIP3   OH239757   1.467   1.836   1.885  0.4322 -0.0870  0.7214
 6089TIP3    H139758   1.456   1.925   1.852  3.0287  0.3212  0.8940
 6089TIP3    H239759   1.522   1.792   1.819 -0.8509 -1.5941  0.6122
 6090TIP3   OH239760   2.207   1.087   4.489  0.0342  0.1362  0.0140
 6090TIP3    H139761   2.231   1.179   4.491  1.4576 -0.2414  1.1630
 6090TIP3    H239762   2.290   1.041   4.475 -0.5151 -1.0157  0.4920
 6091TIP3   OH239763   6.314   0.766  14.643 -0.4927 -0.5347  0.4571
 6091TIP3    H139764   6.323   0.723  14.728 -1.0433 -2.1947 -0.2974
 6091TIP3    H239765   6.361   0.709  14.582 -2.4466 -0.8752 -0.8058
 6092TIP3   OH239766   1.812   1.493   1.263 -0.2918  0.7263  0.2729
 6092TIP3    H139767   1.734   1.549   1.258  0.1349  1.2469 -0.9083
 6092TIP3    H239768   1.872   1.540   1.321 -0.3653  0.9635  0.1581
 6093TIP3   OH239769   6.543   3.765  16.436 -0.1945  0.1934  0.2740
 6093TIP3    H139770   6.599   3.842  16.444 -1.4160  1.3535 -1.7866
 6093TIP3    H239771   6.539   3.748  16.342  0.1187 -2.4567  0.6971
 6094TIP3   OH239772   0.520   6.492   5.135 -0.5891 -0.1222  0.3573
 6094TIP3    H139773   0.512   6.586   5.114 -1.4010 -0.0176  1.1274
 6094TIP3    H239774   0.584   6.460   5.072 -1.2040  0.6991 -0.7169
 6095TIP3   OH239775   6.447   3.250  14.819 -0.1331  0.0603  0.2319
 6095TIP3    H139776   6.384   3.285  14.756  1.1287 -1.3092 -1.8494
 6095TIP3    H239777   6.507   3.323  14.835 -0.8042  0.6015  0.3371
 6096TIP3   OH239778   3.288   0.722   1.861  0.4123 -0.3661  0.3349
 6096TIP3    H139779   3.216   0.678   1.816  0.6803 -0.1144 -0.3401
 6096TIP3    H239780   3.366   0.702   1.809  0.5677  0.7273  0.1208
 6097TIP3   OH239781   4.815   4.290   1.606 -0.1104 -0.2012  0.2100
 6097TIP3    H139782   4.793   4.357   1.540 -0.4856 -0.6054 -0.0827
 6097TIP3    H239783   4.842   4.214   1.554  1.7479  0.1913  0.5660
 6098TIP3   OH239784   2.541   1.461   5.721 -0.2662 -0.4383  0.1300
 6098TIP3    H139785   2.452   1.426   5.717 -0.4639 -0.0261  0.8071
 6098TIP3    H239786   2.598   1.383   5.720 -0.6881 -0.7720  1.2504
 6099TIP3   OH239787   4.719   4.491   2.808 -0.3000  0.4403 -0.4407
 6099TIP3    H139788   4.802   4.513   2.766 -1.2118  2.4411 -1.2595
 6099TIP3    H239789   4.670   4.442   2.742 -0.0527 -0.1180 -0.2105
 6100TIP3   OH239790   6.144   0.721  11.269  0.7789  0.4858 -0.6295
 6100TIP3    H139791   6.087   0.652  11.234  2.6595 -2.1827  1.3786
 6100TIP3    H239792   6.208   0.736  11.200  1.1894 -0.8019 -0.5448
 6101TIP3   OH239793   0.020   5.680   3.195  0.0435 -0.4023  0.8546
 6101TIP3    H139794  -0.051   5.662   3.256 -0.9338 -0.4659 -0.2850
 6101TIP3    H239795   0.004   5.769   3.165  2.7232  1.1135  3.6057
 6102TIP3   OH239796   4.921   1.850   3.171 -0.1181  0.9832  0.1849
 6102TIP3    H139797   4.892   1.820   3.257  0.0762  1.3578  0.3842
 6102TIP3    H239798   5.015   1.864   3.181 -0.5670  4.0121  0.8254
 6103TIP3   OH239799   6.718   2.892  16.501  0.3463  0.0166 -0.8034
 6103TIP3    H139800   6.744   2.982  16.484 -1.4288  0.4333 -1.4512
 6103TIP3    H239801   6.636   2.881  16.453 -1.1749 -0.9275  1.9185
 6104TIP3   OH239802   6.393   4.775  12.190 -0.6690 -0.6682 -0.0255
 6104TIP3    H139803   6.363   4.717  12.120  0.0801 -2.7223  1.3100
 6104TIP3    H239804   6.488   4.774  12.182 -0.6673  0.5994 -0.1585
 6105TIP3   OH239805   5.357   5.851   1.289  0.7927  0.1190  0.1800
 6105TIP3    H139806   5.382   5.781   1.350  0.3954 -0.4526 -0.2984
 6105TIP3    H239807   5.437   5.872   1.242  0.9493  0.0825  0.4329
 6106TIP3   OH239808   0.478   4.988   3.079 -0.1586  0.2518  0.5105
 6106TIP3    H139809   0.441   4.918   3.134  1.0422 -0.2723  0.6682
 6106TIP3    H239810   0.402   5.028   3.037 -0.7157 -2.8904 -1.6807
 6107TIP3   OH239811   1.548   1.019  14.276 -0.9183 -0.6221 -0.3516
 6107TIP3    H139812   1.516   0.931  14.258  0.5606 -1.1580 -0.4586
 6107TIP3    H239813   1.529   1.034  14.368  1.8895 -2.4359  0.6013
 6108TIP3   OH239814   0.261   0.540   2.299 -0.5979  0.1586 -0.1279
 6108TIP3    H139815   0.308   0.457   2.295  0.0809  0.5177  0.3058
 6108TIP3    H239816   0.174   0.520   2.265 -1.4428 -1.4388  2.7530
 6109TIP3   OH239817   6.344   0.980  12.709 -0.2725 -0.3846 -0.4639
 6109TIP3    H139818   6.360   0.925  12.632 -0.5463 -0.7387 -0.2725
 6109TIP3    H239819   6.271   1.037  12.683 -0.4458 -0.5874 -0.4300
 6110TIP3   OH239820   6.232   0.581   1.069 -0.4725 -0.0656  0.2874
 6110TIP3    H139821   6.149   0.533   1.063 -0.9565  0.6526  1.0758
 6110TIP3    H239822   6.251   0.608   0.979 -0.1652 -1.7723 -0.1703
 6111TIP3   OH239823   5.994   0.823   1.903  0.7923  0.2996 -0.0824
 6111TIP3    H139824   5.919   0.831   1.963 -0.1199  1.3499 -1.3318
 6111TIP3    H239825   6.063   0.784   1.957 -0.6239 -0.6489  1.1120
 6112TIP3   OH239826   2.515   2.216  14.125  0.0750 -0.3791 -0.7582
 6112TIP3    H139827   2.421   2.218  14.111 -0.1387 -0.2623  0.6197
 6112TIP3    H239828   2.535   2.125  14.144  0.3059 -0.4759 -1.4546
 6113TIP3   OH239829   3.780   2.883  15.746  0.5052  0.3874  0.9531
 6113TIP3    H139830   3.778   2.956  15.684 -0.8348 -1.2201 -0.9340
 6113TIP3    H239831   3.871   2.853  15.746  0.2143 -0.5533 -1.3983
 6114TIP3   OH239832   5.989   1.819   1.825  0.7194  0.2343  0.5002
 6114TIP3    H139833   6.050   1.745   1.828 -0.6111 -0.9184 -0.5250
 6114TIP3    H239834   5.959   1.822   1.735 -0.8360  0.7085  1.0180
 6115TIP3   OH239835   3.538   0.506   3.857 -0.3394 -0.4441 -0.6204
 6115TIP3    H139836   3.605   0.556   3.903  0.1278 -1.5159 -0.1320
 6115TIP3    H239837   3.525   0.428   3.910 -1.4743 -0.5771 -1.0834
 6116TIP3   OH239838   4.270   3.629   1.154  0.1133  0.1905 -0.1202
 6116TIP3    H139839   4.276   3.542   1.115 -0.1720 -0.2373  0.7780
 6116TIP3    H239840   4.221   3.681   1.090 -0.8045 -0.6318 -0.0998
 6117TIP3   OH239841   0.739   5.509   5.692 -0.3471  0.1989  0.5985
 6117TIP3    H139842   0.701   5.587   5.650  1.1016  1.5906  1.8063
 6117TIP3    H239843   0.774   5.541   5.775  0.2056 -1.7719  1.1524
 6118TIP3   OH239844   3.600   6.603  14.354  0.4603  0.2036  0.7997
 6118TIP3    H139845   3.621   6.515  14.323 -0.6775 -0.4530  1.8475
 6118TIP3    H239846   3.505   6.604  14.361  0.2702  2.2916 -1.3990
 6119TIP3   OH239847   3.498   6.063  12.941  0.3593  0.3564 -0.7378
 6119TIP3    H139848   3.491   5.975  12.978 -0.2460  0.5477 -0.3901
 6119TIP3    H239849   3.571   6.104  12.988  0.5172  0.1093 -0.7677
 6120TIP3   OH239850   1.388   6.385   3.496 -0.1319 -0.0270 -0.7919
 6120TIP3    H139851   1.422   6.295   3.493 -1.4055 -0.6129  1.4422
 6120TIP3    H239852   1.294   6.374   3.512  0.0536  1.7496  1.6413
 6121TIP3   OH239853   1.997   2.639   6.687 -0.3474  0.2134 -0.0125
 6121TIP3    H139854   2.075   2.608   6.640 -2.1616 -1.6665 -1.9157
 6121TIP3    H239855   1.941   2.674   6.618 -0.7359  2.6966  1.4849
 6122TIP3   OH239856   2.615   0.416  10.628 -0.1357 -0.2778  0.1827
 6122TIP3    H139857   2.666   0.413  10.546 -0.7659 -0.3490 -0.2095
 6122TIP3    H239858   2.532   0.374  10.606 -0.6470  0.4928  0.6134
 6123TIP3   OH239859   3.871   6.422   1.125 -0.1491  0.2190  0.3162
 6123TIP3    H139860   3.929   6.384   1.191 -2.5034 -0.7916  1.9156
 6123TIP3    H239861   3.920   6.496   1.089  2.0553 -0.5282  1.6591
 6124TIP3   OH239862   6.552   6.681   5.957  0.0288  0.5425 -0.4695
 6124TIP3    H139863   6.577   6.773   5.953 -0.0484  0.5576 -0.6317
 6124TIP3    H239864   6.632   6.633   5.937  0.3890  0.5337  0.9452
 6125TIP3   OH239865   2.978   4.832  14.355 -0.0879  0.1984 -0.6311
 6125TIP3    H139866   3.071   4.855  14.352 -0.6343  2.2750 -2.7097
 6125TIP3    H239867   2.965   4.775  14.280 -0.3794 -0.6006  0.0182
 6126TIP3   OH239868   2.547   6.595   2.250 -0.0993 -0.5825 -0.4092
 6126TIP3    H139869   2.461   6.583   2.290  0.2397 -2.1658 -0.1169
 6126TIP3    H239870   2.559   6.518   2.195  0.7525  0.0737 -1.1697
 6127TIP3   OH239871   0.693   5.949  12.072  0.2627 -0.3998 -0.3820
 6127TIP3    H139872   0.614   5.985  12.113  1.1405  0.0490  0.9546
 6127TIP3    H239873   0.681   5.854  12.077  0.7599 -0.3911  1.8109
 6128TIP3   OH239874   2.697   6.028  10.925 -0.3671 -0.5531 -0.2892
 6128TIP3    H139875   2.706   5.988  11.012  0.4625  0.3069  0.0224
 6128TIP3    H239876   2.611   6.000  10.895 -1.2296  0.2684  1.3861
 6129TIP3   OH239877   3.423   4.284   5.445 -0.1710  0.1641 -0.2474
 6129TIP3    H139878   3.502   4.232   5.443 -2.3508 -3.2479 -1.2169
 6129TIP3    H239879   3.366   4.240   5.509 -1.6547  2.0221 -0.2055
 6130TIP3   OH239880   2.368   4.771   4.299  0.2257 -0.2683  0.5307
 6130TIP3    H139881   2.325   4.736   4.221  1.8766  1.1944 -1.1110
 6130TIP3    H239882   2.426   4.701   4.328 -0.2786 -0.7680  0.3416
 6131TIP3   OH239883   2.739   3.613  12.284 -0.8003 -0.0176  0.4819
 6131TIP3    H139884   2.817   3.608  12.338 -1.0532 -0.2463  0.8276
 6131TIP3    H239885   2.772   3.607  12.194 -0.3498  0.8108  0.5894
 6132TIP3   OH239886   6.783   1.311  15.274  0.3439 -0.1068 -0.1723
 6132TIP3    H139887   6.787   1.246  15.204 -0.2649 -0.5939  0.2368
 6132TIP3    H239888   6.760   1.260  15.352 -1.6283  0.8018 -0.1313
 6133TIP3   OH239889   3.144   4.076   3.438  0.1682  0.5560 -0.2043
 6133TIP3    H139890   3.230   4.116   3.425  1.3487 -1.9227 -0.2789
 6133TIP3    H239891   3.124   4.091   3.530  2.3105 -1.9229  0.6915
 6134TIP3   OH239892   0.339   4.213  14.802  0.5793 -0.0028 -0.2729
 6134TIP3    H139893   0.392   4.292  14.803 -0.4884  0.7148  1.6200
 6134TIP3    H239894   0.259   4.239  14.754 -0.2258  0.3870  1.2597
 6135TIP3   OH239895   6.155   0.690  17.194  0.0259 -0.1620 -0.0553
 6135TIP3    H139896   6.075   0.735  17.166  0.2820 -1.4345 -3.0381
 6135TIP3    H239897   6.221   0.759  17.197 -0.2789  0.2130 -1.5395
 6136TIP3   OH239898   6.499   0.523  11.138 -0.2127  0.2989  0.0112
 6136TIP3    H139899   6.468   0.607  11.172 -0.1440  0.0111  0.7974
 6136TIP3    H239900   6.421   0.481  11.103  0.0134  1.3666 -1.8670
 6137TIP3   OH239901   4.685   2.922   1.541  0.1447 -0.1018  0.2801
 6137TIP3    H139902   4.685   2.918   1.636 -0.5105 -0.1718  0.2788
 6137TIP3    H239903   4.595   2.901   1.516  0.2264  0.2654 -0.3366
 6138TIP3   OH239904   5.125   2.469  14.534 -0.2114  0.3462 -0.0435
 6138TIP3    H139905   5.152   2.379  14.520  1.0095  0.6945 -0.0230
 6138TIP3    H239906   5.095   2.472  14.625  1.3821  0.3420  0.4955
 6139TIP3   OH239907   1.398   2.095   3.658 -0.0512  0.3605  0.5461
 6139TIP3    H139908   1.318   2.101   3.710 -1.3658 -1.1033 -1.2520
 6139TIP3    H239909   1.431   2.007   3.673  1.0626  0.8323  0.9957
 6140TIP3   OH239910   1.445   3.781   6.341 -0.2594  0.8227  0.0183
 6140TIP3    H139911   1.505   3.706   6.339 -0.2934  0.7989 -0.1025
 6140TIP3    H239912   1.360   3.744   6.320 -0.3148  0.8592  0.1762
 6141TIP3   OH239913   4.947   4.738   5.009 -0.3711  0.2664  0.7484
 6141TIP3    H139914   4.903   4.731   4.924  0.5955  0.4541  0.2330
 6141TIP3    H239915   4.879   4.713   5.072 -0.7828 -0.9667 -0.1462
 6142TIP3   OH239916   1.736   0.048   4.362 -0.1478 -0.1090 -0.0973
 6142TIP3    H139917   1.752   0.126   4.309  0.1191 -0.2610 -0.2412
 6142TIP3    H239918   1.643   0.054   4.386 -0.0196  0.4959  0.2860
 6143TIP3   OH239919   0.900   0.997  10.279  0.4436 -0.1124 -0.1919
 6143TIP3    H139920   0.851   1.006  10.361 -0.5904  0.6577 -0.8882
 6143TIP3    H239921   0.990   0.979  10.307  0.0441 -0.1179  1.1101
 6144TIP3   OH239922   4.317   4.989   4.378 -0.6091 -0.3418  0.2431
 6144TIP3    H139923   4.283   5.036   4.302 -1.2987  0.8149  1.2616
 6144TIP3    H239924   4.330   4.899   4.347 -0.9572  0.1057 -1.2120
 6145TIP3   OH239925   6.503   3.352   4.485 -0.4091  0.7387  0.0204
 6145TIP3    H139926   6.424   3.333   4.435  0.2773 -0.5199 -0.6177
 6145TIP3    H239927   6.474   3.411   4.555 -2.1415 -0.6383  0.5039
 6146TIP3   OH239928   4.552   1.951  12.332 -0.3712  0.7492 -0.1007
 6146TIP3    H139929   4.524   1.916  12.248 -1.0806  0.0642  0.4124
 6146TIP3    H239930   4.550   2.046  12.321  2.8674  0.6718 -1.9263
 6147TIP3   OH239931   3.283   5.596  12.205 -0.2048 -0.5605  0.2889
 6147TIP3    H139932   3.316   5.648  12.132 -2.9744  4.6349  2.4017
 6147TIP3    H239933   3.193   5.573  12.179 -0.5816 -0.2371  1.2714
 6148TIP3   OH239934   4.111   4.550  11.269  0.0629  0.2045 -0.3509
 6148TIP3    H139935   4.146   4.509  11.190 -0.4588 -0.2241 -0.3557
 6148TIP3    H239936   4.016   4.543  11.261  0.0092 -0.2312  0.5195
 6149TIP3   OH239937   1.674   2.356  13.663  0.7746 -0.3155  0.2932
 6149TIP3    H139938   1.616   2.421  13.703  0.5853  0.4543 -1.2282
 6149TIP3    H239939   1.675   2.284  13.726 -0.8254  0.1971  0.9319
 6150TIP3   OH239940   6.063   0.577  16.183 -0.5244  0.1084  0.4393
 6150TIP3    H139941   6.060   0.528  16.265  1.7952 -2.3063 -0.8547
 6150TIP3    H239942   6.150   0.616  16.182 -0.1452 -0.7223 -1.3061
 6151TIP3   OH239943   1.636   1.292  13.622  0.1494 -0.4198  0.2716
 6151TIP3    H139944   1.700   1.331  13.563 -0.8971  0.0070 -0.6065
 6151TIP3    H239945   1.686   1.269  13.701  1.1486  0.9274  0.0498
 6152TIP3   OH239946   1.194   0.524   3.600  0.4056  0.6081  0.1144
 6152TIP3    H139947   1.255   0.578   3.649  1.3532 -0.0260 -0.3551
 6152TIP3    H239948   1.220   0.434   3.620 -0.7484  0.3135  0.3782
 6153TIP3   OH239949   0.383   5.286   0.938 -0.0012  0.3078 -0.3901
 6153TIP3    H139950   0.413   5.199   0.966 -0.1298  0.1321 -0.7839
 6153TIP3    H239951   0.306   5.304   0.992 -0.9837 -0.5619 -1.4590
 6154TIP3   OH239952   4.270   4.521  13.711  0.1804 -0.1277 -0.1074
 6154TIP3    H139953   4.233   4.598  13.754 -0.1164 -0.7871  0.8394
 6154TIP3    H239954   4.194   4.467  13.689  0.3859 -0.1475 -0.7809
 6155TIP3   OH239955   1.921   0.590  14.511 -0.0830 -0.1375 -0.1839
 6155TIP3    H139956   1.868   0.649  14.457 -0.2425 -0.2798 -0.1837
 6155TIP3    H239957   1.943   0.517  14.453 -0.7163 -0.5592  0.0973
 6156TIP3   OH239958   2.468   4.502   6.292  0.4493  0.2248 -0.0358
 6156TIP3    H139959   2.448   4.549   6.373 -0.0347  0.6425 -0.3907
 6156TIP3    H239960   2.458   4.409   6.315 -0.7240  0.3730  0.1253
 6157TIP3   OH239961   6.743   6.243  10.419  0.0622 -0.0301  0.2591
 6157TIP3    H139962   6.794   6.283  10.489 -0.4266  0.6754  0.2139
 6157TIP3    H239963   6.694   6.315  10.380 -4.5361 -1.3306  3.2861
 6158TIP3   OH239964   1.712   4.328   2.419  0.3183  0.4719 -0.0488
 6158TIP3    H139965   1.669   4.412   2.406 -0.9086 -0.0225  0.7950
 6158TIP3    H239966   1.804   4.346   2.399  0.1561  2.1291  0.6030
 6159TIP3   OH239967   1.629   1.705   5.709 -0.3338  0.2738  0.0854
 6159TIP3    H139968   1.723   1.689   5.702  0.0904  3.5351 -3.0465
 6159TIP3    H239969   1.588   1.627   5.670  1.2110  0.3546 -1.7614
 6160TIP3   OH239970   6.672   0.868  11.992 -0.0792 -0.5362  0.5064
 6160TIP3    H139971   6.765   0.847  11.989 -0.3085 -1.7168  1.4266
 6160TIP3    H239972   6.646   0.875  11.900  1.0628  0.5345  0.2390
 6161TIP3   OH239973   4.858   5.888  15.161 -0.1537  0.3020 -0.0658
 6161TIP3    H139974   4.912   5.954  15.204 -0.6430  0.2167  0.6858
 6161TIP3    H239975   4.893   5.883  15.072 -1.1174  2.7284 -0.6163
 6162TIP3   OH239976   1.544   5.142   4.811  0.1749 -0.1554 -0.3284
 6162TIP3    H139977   1.597   5.151   4.732 -0.6360 -0.8536 -0.9555
 6162TIP3    H239978   1.496   5.224   4.817  0.0613 -0.1964 -0.6869
 6163TIP3   OH239979   1.021   0.116  16.558 -0.1283  0.4191  0.0306
 6163TIP3    H139980   0.951   0.168  16.519  0.1970  1.8763  1.3599
 6163TIP3    H239981   1.101   0.146  16.515 -0.0773  0.1463 -0.0692
 6164TIP3   OH239982   2.194   5.872  12.951 -0.3437 -0.0304  0.0960
 6164TIP3    H139983   2.171   5.873  12.858 -1.1340  1.0145  0.2896
 6164TIP3    H239984   2.110   5.883  12.996  0.1671  0.5681  0.9091
 6165TIP3   OH239985   4.146   0.881   3.214  0.0147  0.8050  0.2916
 6165TIP3    H139986   4.204   0.903   3.142  0.0445  0.4812  0.2167
 6165TIP3    H239987   4.078   0.948   3.211 -0.3374  0.4252 -0.4383
 6166TIP3   OH239988   4.814   2.741  16.393  0.2289 -0.0111 -0.0512
 6166TIP3    H139989   4.760   2.784  16.327  0.6887 -0.2140 -0.5630
 6166TIP3    H239990   4.800   2.792  16.473 -0.8660 -0.1850 -0.1272
 6167TIP3   OH239991   0.529   6.111  16.746  0.1106 -0.5429  0.6060
 6167TIP3    H139992   0.591   6.163  16.695  0.4290 -0.7693  0.7642
 6167TIP3    H239993   0.540   6.022  16.713 -2.2929 -0.1009 -1.5107
 6168TIP3   OH239994   3.839   1.800  14.053 -0.1427  0.3842 -0.1707
 6168TIP3    H139995   3.897   1.743  14.001  0.9952 -0.5378  2.0634
 6168TIP3    H239996   3.758   1.750  14.061  0.3067 -0.2530  0.4547
 6169TIP3   OH239997   2.386   3.281   0.752  0.2391  0.3775 -0.0860
 6169TIP3    H139998   2.379   3.348   0.684 -0.1215 -0.7052 -1.1266
 6169TIP3    H239999   2.348   3.321   0.830 -0.0991  1.3237 -0.7344
 6170TIP3   OH240000   0.740   2.551  15.776  0.0974  0.1848 -0.7591
 6170TIP3    H140001   0.766   2.595  15.857  0.8263 -0.4776 -0.6231
 6170TIP3    H240002   0.665   2.601  15.744  0.4607  1.0808 -0.2291
 6171TIP3   OH240003   0.087   6.013   4.363 -0.1243 -0.0955 -0.2939
 6171TIP3    H140004   0.178   6.037   4.341  0.4537  0.7707  2.8838
 6171TIP3    H240005   0.090   5.918   4.375  0.3302 -0.0922 -0.3382
 6172TIP3   OH240006   1.348   0.762   4.847 -0.1741 -0.4539  0.3827
 6172TIP3    H140007   1.371   0.672   4.871 -0.0231 -0.4892  0.1139
 6172TIP3    H240008   1.399   0.779   4.767  0.2847  0.0932  0.7899
 6173TIP3   OH240009   6.302   1.007   0.281  0.0031 -0.0161  0.4186
 6173TIP3    H140010   6.279   1.035   0.370 -1.4408 -1.7695  0.6299
 6173TIP3    H240011   6.284   0.913   0.281  0.5038 -0.1163 -1.5743
 6174TIP3   OH240012   4.009   2.649  11.150 -0.2463 -0.3350  0.0490
 6174TIP3    H140013   3.943   2.690  11.094  1.2570  1.3844 -0.5610
 6174TIP3    H240014   4.078   2.622  11.088  1.5312  1.7707  1.0127
 6175TIP3   OH240015   4.681   1.906  16.371 -0.0854  1.1807 -0.5499
 6175TIP3    H140016   4.694   1.907  16.276  0.1982  0.5344 -0.5164
 6175TIP3    H240017   4.586   1.916  16.382 -0.4301 -1.2286 -0.9816
 6176TIP3   OH240018   4.492   3.355  11.818  0.2835 -0.1602 -0.5926
 6176TIP3    H140019   4.434   3.306  11.876 -1.5822  2.0523 -0.4987
 6176TIP3    H240020   4.433   3.411  11.767  2.2545  1.6364 -0.9897
 6177TIP3   OH240021   0.878   5.379  11.807  0.3136  0.1074 -0.0604
 6177TIP3    H140022   0.866   5.471  11.826  1.8849 -0.2914  3.1728
 6177TIP3    H240023   0.819   5.333  11.866  1.6154 -1.0224  0.4217
 6178TIP3   OH240024   6.517   5.854   3.297 -0.5187 -0.5085  0.2522
 6178TIP3    H140025   6.529   5.759   3.298 -0.9088 -0.5795 -1.2371
 6178TIP3    H240026   6.565   5.884   3.221  0.3425  0.6109  1.2253
 6179TIP3   OH240027   2.923   5.408   0.315 -0.1768  0.2024 -0.2976
 6179TIP3    H140028   2.950   5.316   0.320 -2.4978 -0.4323  1.3083
 6179TIP3    H240029   2.980   5.446   0.248  2.8761 -1.6602  1.1486
 6180TIP3   OH240030   1.398   6.649  15.559  0.3125  0.0303  0.0440
 6180TIP3    H140031   1.375   6.716  15.624 -1.0716 -1.3534  1.0117
 6180TIP3    H240032   1.342   6.575  15.581  1.7755 -1.4156 -1.0649
 6181TIP3   OH240033   4.135   5.604  14.446 -0.1810  0.5913 -0.3169
 6181TIP3    H140034   4.073   5.618  14.375 -2.3372  0.1301  1.4116
 6181TIP3    H240035   4.204   5.551  14.408 -0.4355  1.7632 -2.4962
 6182TIP3   OH240036   5.758   5.719   1.671  0.4735  0.4823  0.2004
 6182TIP3    H140037   5.693   5.756   1.611  0.5673 -0.5722 -0.5755
 6182TIP3    H240038   5.832   5.697   1.615  0.5984 -0.4377  0.7155
 6183TIP3   OH240039   0.198   4.276  12.321  0.8059  0.1863  0.0128
 6183TIP3    H140040   0.152   4.360  12.329 -0.5842 -0.3304 -2.0898
 6183TIP3    H240041   0.285   4.293  12.358 -0.2327  1.8770  1.7892
 6184TIP3   OH240042   5.655   6.388  14.946  0.3073 -0.1671 -0.3257
 6184TIP3    H140043   5.659   6.480  14.920 -1.2668 -0.0698 -0.2525
 6184TIP3    H240044   5.746   6.364  14.964  1.1938  0.3327 -3.8588
 6185TIP3   OH240045   2.584   4.809   3.547  0.4925  0.2922 -0.2745
 6185TIP3    H140046   2.532   4.832   3.470  0.4822 -3.2199 -1.3915
 6185TIP3    H240047   2.613   4.894   3.582 -4.0543  2.2627 -0.8777
 6186TIP3   OH240048   5.299   5.819  16.648 -0.4483 -0.3254 -0.1653
 6186TIP3    H140049   5.368   5.858  16.596 -0.9630 -1.6539 -1.9029
 6186TIP3    H240050   5.256   5.893  16.691  1.3501  0.5949  0.0751
 6187TIP3   OH240051   1.175   4.171   4.234  0.2333  0.5196  0.0792
 6187TIP3    H140052   1.249   4.195   4.289  0.8710 -1.5700  0.1807
 6187TIP3    H240053   1.162   4.247   4.177 -0.0703  2.4844  2.6588
 6188TIP3   OH240054   1.510   3.652  16.433  0.3196  0.3976 -0.2766
 6188TIP3    H140055   1.512   3.621  16.343 -1.3654  1.4447 -0.7094
 6188TIP3    H240056   1.439   3.717  16.434  0.8792  1.0142  1.5977
 6189TIP3   OH240057   6.685   1.384   6.145 -0.1850 -0.8367 -0.2659
 6189TIP3    H140058   6.728   1.348   6.223 -0.9796 -0.2723  0.4455
 6189TIP3    H240059   6.757   1.412   6.089  0.4128  0.7040  1.1932
 6190TIP3   OH240060   5.424   6.193   4.532  0.1867  0.0861  0.0921
 6190TIP3    H140061   5.511   6.214   4.497 -0.0080 -0.7416 -0.8987
 6190TIP3    H240062   5.366   6.258   4.492  0.2554  0.2781  0.3027
 6191TIP3   OH240063   0.734   0.579   3.425 -0.1565  1.0438 -0.2621
 6191TIP3    H140064   0.653   0.629   3.429 -1.3209 -0.8171  0.2913
 6191TIP3    H240065   0.790   0.629   3.365 -2.4665  1.3168 -2.2967
 6192TIP3   OH240066   5.706   3.055  16.580 -0.2698 -0.5512  0.4780
 6192TIP3    H140067   5.619   3.096  16.585 -0.1941  0.0899 -2.5556
 6192TIP3    H240068   5.689   2.962  16.594 -1.5773 -0.5152 -0.6906
 6193TIP3   OH240069   0.518   4.234   3.694 -0.0031  0.0447 -0.1074
 6193TIP3    H140070   0.438   4.215   3.743 -0.0433 -2.1640 -0.9530
 6193TIP3    H240071   0.585   4.247   3.761 -1.0051  1.6819  0.5960
 6194TIP3   OH240072   3.156   5.572  13.767  0.0591 -0.0144  0.1968
 6194TIP3    H140073   3.085   5.512  13.741  0.4321 -1.5741  2.5998
 6194TIP3    H240074   3.113   5.637  13.822  0.1482  0.2340 -0.0271
 6195TIP3   OH240075   2.132   1.714   5.224 -0.4461 -0.5000 -0.1976
 6195TIP3    H140076   2.209   1.716   5.282 -1.2205 -0.3995  0.8480
 6195TIP3    H240077   2.090   1.631   5.244 -0.3981 -0.7389 -1.0644
 6196TIP3   OH240078   0.654   1.931  13.844  0.0553  0.2897 -0.0373
 6196TIP3    H140079   0.658   1.927  13.749  1.2864  1.2367 -0.0438
 6196TIP3    H240080   0.580   1.989  13.863 -0.0751  0.2481 -0.4327
 6197TIP3   OH240081   1.307   1.790  11.486 -0.0461 -0.3332 -0.2300
 6197TIP3    H140082   1.382   1.793  11.545 -0.9294  1.2351  0.8325
 6197TIP3    H240083   1.266   1.876  11.494 -2.3540 -1.3952 -0.2710
 6198TIP3   OH240084   1.045   6.597  11.351  0.7427  0.5644 -0.6269
 6198TIP3    H140085   1.102   6.665  11.389  0.7384  0.5792 -0.6475
 6198TIP3    H240086   1.074   6.516  11.392 -0.3635  0.7915  0.6579
 6199TIP3   OH240087   0.230   1.214   2.213 -0.4216  0.8370 -0.0510
 6199TIP3    H140088   0.321   1.222   2.241 -0.5321  1.4208  0.1457
 6199TIP3    H240089   0.181   1.204   2.294 -0.6857  2.0099 -0.0521
 6200TIP3   OH240090   6.190   0.116  16.171  0.0348  0.1280 -0.2568
 6200TIP3    H140091   6.131   0.145  16.241  2.3131  0.6535  1.4930
 6200TIP3    H240092   6.143   0.137  16.090 -0.6914  3.8092  1.0249
 6201TIP3   OH240093   3.514   1.586   4.255 -0.2179 -0.0649 -0.4231
 6201TIP3    H140094   3.556   1.633   4.327 -0.3308  1.3819 -1.2948
 6201TIP3    H240095   3.585   1.542   4.209 -0.0991 -0.6594  0.3113
 6202TIP3   OH240096   4.206   1.238   2.316 -0.1216  0.1108  0.0681
 6202TIP3    H140097   4.193   1.144   2.328 -0.1992 -0.1002 -1.5496
 6202TIP3    H240098   4.118   1.273   2.305  0.0361  0.0691 -1.3699
 6203TIP3   OH240099   5.027   5.540  11.218  0.0315 -0.3890 -0.1754
 6203TIP3    H140100   4.945   5.586  11.235 -0.2907 -0.5230 -1.3748
 6203TIP3    H240101   5.066   5.586  11.143  1.3079 -0.0022  0.6886
 6204TIP3   OH240102   0.653   1.448  13.344 -0.6338  0.6386 -0.3826
 6204TIP3    H140103   0.623   1.373  13.293 -1.1289  0.9462 -0.5524
 6204TIP3    H240104   0.572   1.490  13.375 -0.3306  0.0832  1.2072
 6205TIP3   OH240105   1.146   1.259  16.111 -0.1555  0.5107 -0.6301
 6205TIP3    H140106   1.192   1.189  16.158 -1.9209 -0.0288  0.3248
 6205TIP3    H240107   1.070   1.278  16.165 -0.2172  2.5227 -1.3746
 6206TIP3   OH240108   5.800   0.210   2.928 -0.5750  0.4315  0.4461
 6206TIP3    H140109   5.841   0.125   2.944 -1.4384 -0.0879 -0.0654
 6206TIP3    H240110   5.747   0.197   2.849  0.1098  1.7316 -0.2400
 6207TIP3   OH240111   4.336   4.784  17.164  0.7881 -0.1099 -0.0230
 6207TIP3    H140112   4.368   4.755  17.079  1.3806  0.6165 -0.0503
 6207TIP3    H240113   4.248   4.745  17.171  1.8195 -2.4710  0.2566
 6208TIP3   OH240114   6.741   1.593  10.494 -0.3384 -0.0090  0.2804
 6208TIP3    H140115   6.656   1.562  10.524 -1.7103  2.1871 -1.1945
 6208TIP3    H240116   6.733   1.689  10.494  0.6649  0.1667 -3.9071
 6209TIP3   OH240117   4.369   0.936   0.130  0.0989 -0.0975  0.1573
 6209TIP3    H140118   4.343   0.847   0.154 -0.9300  0.6365  1.8537
 6209TIP3    H240119   4.461   0.941   0.154  0.0016 -0.5141  0.6382
 6210TIP3   OH240120   2.500   6.498  15.505  0.0412  0.2701  0.4461
 6210TIP3    H140121   2.467   6.588  15.509  0.3257  0.3389  1.2388
 6210TIP3    H240122   2.594   6.507  15.492  0.0271  0.0836  0.2100
 6211TIP3   OH240123   2.257   1.156  14.366 -0.4452 -0.5029  0.2721
 6211TIP3    H140124   2.188   1.107  14.320 -1.3334  0.5593  0.4430
 6211TIP3    H240125   2.312   1.190  14.296 -1.2852  0.3636  0.0211
 6212TIP3   OH240126   0.679   4.506   1.935  0.0645 -0.0623  0.0292
 6212TIP3    H140127   0.641   4.551   2.010 -1.9441 -0.3285 -0.7889
 6212TIP3    H240128   0.639   4.419   1.936  1.3971 -0.6853 -0.3035
 6213TIP3   OH240129   1.720   1.591   3.364  0.1615  0.1710  0.3385
 6213TIP3    H140130   1.638   1.560   3.327  0.0277  2.0264 -0.9858
 6213TIP3    H240131   1.758   1.514   3.407 -1.3902 -1.1421 -0.5986
 6214TIP3   OH240132   5.490   5.691   1.448  0.5772  0.4817  0.1843
 6214TIP3    H140133   5.454   5.690   1.537 -0.6793 -0.8307 -0.3186
 6214TIP3    H240134   5.539   5.610   1.441 -0.5296 -0.1186 -0.7849
 6215TIP3   OH240135   2.083   4.796   5.796 -0.1770  0.0445  0.4463
 6215TIP3    H140136   2.094   4.882   5.838 -2.1650 -0.2114  1.5483
 6215TIP3    H240137   2.135   4.802   5.715  2.5725  1.0404  2.2039
 6216TIP3   OH240138   0.530   2.110  12.116 -0.0690 -0.3030 -0.3617
 6216TIP3    H140139   0.611   2.072  12.082 -0.3957 -0.5977 -0.8145
 6216TIP3    H240140   0.513   2.062  12.198 -0.3702 -0.9896 -0.8246
 6217TIP3   OH240141   5.795   6.472  14.034 -0.6590  0.0040  0.0208
 6217TIP3    H140142   5.860   6.504  14.097  0.6791  1.1720 -1.9018
 6217TIP3    H240143   5.717   6.524  14.051 -0.0303  0.9187  0.1486
 6218TIP3   OH240144   2.807   6.160   0.169 -0.3655  0.2194  0.5331
 6218TIP3    H140145   2.786   6.095   0.101 -0.1417  1.7146 -1.0006
 6218TIP3    H240146   2.862   6.113   0.231  0.6240 -0.8027 -1.0858
 6219TIP3   OH240147   4.305   2.027  13.670 -0.1648 -0.1546  0.1494
 6219TIP3    H140148   4.276   2.109  13.631  0.8153 -0.5749 -1.5161
 6219TIP3    H240149   4.242   2.010  13.739 -0.7563  1.6643  0.0826
 6220TIP3   OH240150   4.309   2.490   2.937  0.3261 -0.3233 -0.2059
 6220TIP3    H140151   4.353   2.428   2.996 -0.5588 -0.4859  0.2925
 6220TIP3    H240152   4.279   2.560   2.995  2.8570  1.4861 -0.9820
 6221TIP3   OH240153   2.151   0.918  14.947 -0.2244  0.5308 -0.2873
 6221TIP3    H140154   2.162   0.989  14.883 -2.5040  1.7197  0.5690
 6221TIP3    H240155   2.059   0.926  14.975 -0.4538 -2.6231  0.0046
 6222TIP3   OH240156   4.542   1.693  16.655 -0.2773  0.0511  0.7782
 6222TIP3    H140157   4.591   1.657  16.729 -0.0211  0.0820  0.6244
 6222TIP3    H240158   4.602   1.686  16.581 -0.2752  0.6826  0.7229
 6223TIP3   OH240159   2.078   0.160  16.946  0.2476 -0.7300  0.4484
 6223TIP3    H140160   1.993   0.139  16.983 -0.2630 -0.0866 -0.3402
 6223TIP3    H240161   2.067   0.151  16.852  1.0748 -0.7228  0.3411
 6224TIP3   OH240162   1.113   4.182   3.101  0.1196 -0.0478 -0.6261
 6224TIP3    H140163   1.072   4.259   3.061  1.9456  0.9819 -0.5869
 6224TIP3    H240164   1.144   4.131   3.027  0.8053  0.3353 -0.6067
 6225TIP3   OH240165   1.763   1.231  15.717 -0.3133 -0.1294 -0.3823
 6225TIP3    H140166   1.756   1.210  15.810 -0.5970  2.3943  0.2002
 6225TIP3    H240167   1.703   1.304  15.704 -1.3675 -1.3835 -2.8776
 6226TIP3   OH240168   5.570   0.318  11.241  0.2865  0.3774 -0.5406
 6226TIP3    H140169   5.613   0.328  11.326 -0.3081 -0.9781 -0.0624
 6226TIP3    H240170   5.480   0.293  11.263  0.5849 -1.7205 -1.5751
 6227TIP3   OH240171   3.459   2.117   4.825 -0.7718 -0.5029 -0.5240
 6227TIP3    H140172   3.391   2.123   4.757 -0.3457 -0.1784 -0.9288
 6227TIP3    H240173   3.533   2.076   4.780 -0.7372 -0.9478 -0.0566
 6228TIP3   OH240174   6.619   2.988  17.064  0.1502 -0.4304  0.0528
 6228TIP3    H140175   6.620   2.897  17.091  1.3284 -0.1298  1.0599
 6228TIP3    H240176   6.562   2.990  16.987  1.5074 -2.2929 -1.0261
 6229TIP3   OH240177   2.549   0.489  14.208  0.8028  0.9944  0.6898
 6229TIP3    H140178   2.463   0.507  14.246 -0.7447 -1.6324 -1.4488
 6229TIP3    H240179   2.577   0.408  14.249 -0.1395 -0.9805 -2.4540
 6230TIP3   OH240180   0.324   6.127   1.108 -0.1561  0.1156 -0.3031
 6230TIP3    H140181   0.306   6.195   1.174  1.2640 -0.2832  0.5034
 6230TIP3    H240182   0.419   6.122   1.104 -0.2194  0.3509 -2.6300
 6231TIP3   OH240183   1.040   1.667   4.421  0.1805 -0.5868  0.8087
 6231TIP3    H140184   1.061   1.688   4.512  0.6678 -0.2156  0.6086
 6231TIP3    H240185   1.022   1.751   4.380 -1.2993 -0.8540  0.8693
 6232TIP3   OH240186   4.897   1.544   6.357  0.0671 -0.0881  0.2218
 6232TIP3    H140187   4.978   1.594   6.356  0.1856 -0.2682  0.6523
 6232TIP3    H240188   4.845   1.582   6.428 -1.2991  1.6907 -1.6592
 6233TIP3   OH240189   6.366   3.194  12.972 -0.3415 -0.5098  1.1641
 6233TIP3    H140190   6.410   3.166  12.892 -1.2196 -0.4442  0.6499
 6233TIP3    H240191   6.427   3.171  13.043  0.0265 -1.4403  0.5554
 6234TIP3   OH240192   3.819   5.512   0.979  0.8606 -0.7448  0.4130
 6234TIP3    H140193   3.723   5.514   0.978  0.8760 -0.3994 -0.7580
 6234TIP3    H240194   3.843   5.573   1.048  0.2593  0.5752 -0.5262
 6235TIP3   OH240195   6.736   6.514  13.145  0.0578 -0.0876  0.7660
 6235TIP3    H140196   6.809   6.464  13.109 -1.2441 -0.8437 -0.9515
 6235TIP3    H240197   6.742   6.502  13.240  2.1972 -0.0362  0.6487
 6236TIP3   OH240198   6.274   0.764  12.269  0.3973  0.3430  0.1691
 6236TIP3    H140199   6.315   0.800  12.190  1.1602  1.3128  1.0018
 6236TIP3    H240200   6.298   0.671  12.268  2.6832  0.9024  0.6671
 6237TIP3   OH240201   1.451   0.969   2.568 -0.2469 -0.6861 -0.5268
 6237TIP3    H140202   1.417   0.885   2.598  0.8360 -0.6060  0.9588
 6237TIP3    H240203   1.536   0.949   2.530 -0.0680 -0.2798 -0.3417
 6238TIP3   OH240204   4.443   2.492   0.650  0.3232  0.2700 -0.4965
 6238TIP3    H140205   4.519   2.549   0.666 -0.3353  0.4087  2.3891
 6238TIP3    H240206   4.478   2.403   0.653  0.3015  0.3183  1.3004
 6239TIP3   OH240207   6.287   0.705   5.841  0.0294 -0.3922  0.0483
 6239TIP3    H140208   6.256   0.622   5.877 -1.1996  0.0425  0.0018
 6239TIP3    H240209   6.343   0.742   5.911 -2.4582  0.5114  1.6285
 6240TIP3   OH240210   0.034   0.038  12.733  0.6213 -0.0745 -0.8276
 6240TIP3    H140211   0.090  -0.012  12.792  0.5658 -0.0796 -0.7803
 6240TIP3    H240212  -0.050  -0.008  12.734  0.4924  0.1645 -0.5873
 6241TIP3   OH240213   3.534   3.048   6.156 -0.2263  0.1624  0.6730
 6241TIP3    H140214   3.579   2.965   6.170  0.0856  0.0611 -0.8820
 6241TIP3    H240215   3.531   3.088   6.243 -0.5052 -1.5279  1.4612
 6242TIP3   OH240216   6.532   3.264   0.294  0.4323 -0.1058 -0.1377
 6242TIP3    H140217   6.605   3.202   0.298  0.4675 -0.0356  0.3910
 6242TIP3    H240218   6.540   3.314   0.376  0.4272  0.6138 -0.5770
 6243TIP3   OH240219   3.942   5.807   4.712  0.3247  0.2011  0.1537
 6243TIP3    H140220   3.986   5.774   4.633 -1.0539  0.6965 -0.8514
 6243TIP3    H240221   3.854   5.769   4.708 -0.2667  1.4830  0.6210
 6244TIP3   OH240222   1.832   1.120  13.384  0.4389 -0.7057  0.4387
 6244TIP3    H140223   1.854   1.051  13.446  1.0244 -0.5157  0.4472
 6244TIP3    H240224   1.900   1.186  13.397 -0.1048 -0.1334  0.4235
 6245TIP3   OH240225   1.931   4.261   0.583  0.0597 -0.8063  0.1366
 6245TIP3    H140226   1.851   4.314   0.596  0.7263  0.1590  0.3594
 6245TIP3    H240227   1.981   4.310   0.518  0.2900 -1.6225 -0.2960
 6246TIP3   OH240228   5.605   4.511   0.928  0.1906  0.7052  0.3606
 6246TIP3    H140229   5.611   4.416   0.926  0.2779  0.7227 -0.4016
 6246TIP3    H240230   5.662   4.540   0.857  1.2242  1.3875  1.4494
 6247TIP3   OH240231   1.592   1.671   1.269  0.9093  0.0490  0.8766
 6247TIP3    H140232   1.534   1.747   1.279  0.8528  0.1678 -0.3232
 6247TIP3    H240233   1.539   1.606   1.224  0.9858 -0.6900  1.8293
 6248TIP3   OH240234   1.647   3.908  16.302 -0.3676  0.4174 -0.4017
 6248TIP3    H140235   1.591   3.854  16.358  0.1434  1.0587  0.7526
 6248TIP3    H240236   1.628   3.879  16.213 -0.6755 -1.1301  0.1503
 6249TIP3   OH240237   5.722   1.758  14.696  0.1300  0.4092  0.2145
 6249TIP3    H140238   5.804   1.793  14.732  1.2975 -0.4545 -1.5402
 6249TIP3    H240239   5.660   1.831  14.702  1.7863  1.9402 -0.8814
 6250TIP3   OH240240   0.427   3.350  13.365  0.1354 -0.1968 -0.3937
 6250TIP3    H140241   0.379   3.282  13.414 -0.5941  0.3426 -0.3423
 6250TIP3    H240242   0.380   3.431  13.386  2.0728  0.6135  0.9977
 6251TIP3   OH240243   5.326   0.799   4.499  0.4449 -0.0425  0.3877
 6251TIP3    H140244   5.397   0.737   4.516 -1.4163 -1.7272  2.3363
 6251TIP3    H240245   5.297   0.778   4.410 -0.0953 -1.9281  0.9846
 6252TIP3   OH240246   0.958   5.814  14.567 -0.4179 -0.0355 -0.2907
 6252TIP3    H140247   1.026   5.748  14.558 -0.0613 -0.0908  2.3647
 6252TIP3    H240248   1.005   5.896  14.576 -0.6825 -0.0722  1.5301
 6253TIP3   OH240249   3.159   5.533   1.795 -0.6183  0.1126  0.1658
 6253TIP3    H140250   3.223   5.469   1.763 -1.4835 -1.0904  0.7991
 6253TIP3    H240251   3.202   5.577   1.868  0.3284  0.9180 -0.8590
 6254TIP3   OH240252   3.917   6.429   3.004 -0.0367 -0.5316 -0.2935
 6254TIP3    H140253   3.824   6.434   3.025  0.1583  2.9052 -0.0019
 6254TIP3    H240254   3.960   6.419   3.089 -0.0265 -0.3121 -0.2735
 6255TIP3   OH240255   3.301   6.332  16.496 -0.4203 -0.7302 -0.0563
 6255TIP3    H140256   3.248   6.390  16.442 -0.2248  0.0476  0.5696
 6255TIP3    H240257   3.296   6.247  16.453  0.0713 -0.0247 -1.5180
 6256TIP3   OH240258   4.910   6.644   2.643 -0.5240 -0.2056  0.1702
 6256TIP3    H140259   5.000   6.614   2.659  0.0201  0.7945 -0.9251
 6256TIP3    H240260   4.863   6.565   2.616  0.1247 -0.6594  0.3509
 6257TIP3   OH240261   6.538   6.026  16.417  0.3365  0.3232 -0.1878
 6257TIP3    H140262   6.538   6.107  16.367 -1.2135  0.5858  0.2222
 6257TIP3    H240263   6.484   5.965  16.365 -0.6152  0.3522  0.7432
 6258TIP3   OH240264   1.597   6.182   0.587  0.4462  0.2000  0.6026
 6258TIP3    H140265   1.595   6.123   0.512  0.3092  2.3685 -1.1610
 6258TIP3    H240266   1.688   6.214   0.590  0.1667  1.0166  0.6220
 6259TIP3   OH240267   5.562   2.097  12.035 -0.3303  0.1123 -0.0842
 6259TIP3    H140268   5.478   2.056  12.013 -0.0786  0.5023 -1.8235
 6259TIP3    H240269   5.560   2.105  12.130 -1.7590 -0.9817 -0.0016
 6260TIP3   OH240270   3.109   4.212   2.580  0.5238 -0.0597 -0.1245
 6260TIP3    H140271   3.110   4.297   2.625 -0.7394 -1.1549  2.0721
 6260TIP3    H240272   3.019   4.181   2.591  1.0084 -1.7274 -0.8156
 6261TIP3   OH240273   3.462   3.434   0.374 -0.0789 -0.0016  0.5075
 6261TIP3    H140274   3.394   3.368   0.389  0.0433 -0.5619 -1.2218
 6261TIP3    H240275   3.541   3.398   0.414 -0.2795 -0.3819  0.5626
 6262TIP3   OH240276   2.368   0.859   4.416  0.5246  0.2381 -0.3640
 6262TIP3    H140277   2.353   0.831   4.506  1.3517 -1.3765 -0.7031
 6262TIP3    H240278   2.311   0.803   4.364  1.1354  0.1431 -0.9465
 6263TIP3   OH240279   6.535   2.215  13.864 -0.1013 -0.1473  0.2059
 6263TIP3    H140280   6.501   2.299  13.895  1.3726  0.6026 -0.1340
 6263TIP3    H240281   6.459   2.169  13.828 -1.1599  0.5054  1.5419
 6264TIP3   OH240282   2.505   6.600  12.676  0.0951  0.2518  0.2951
 6264TIP3    H140283   2.555   6.680  12.693  1.7596 -1.1270  2.1770
 6264TIP3    H240284   2.522   6.580  12.584  1.3345  0.9685  0.3586
 6265TIP3   OH240285   6.543   4.841   3.742 -0.0651  0.1281 -0.5359
 6265TIP3    H140286   6.532   4.846   3.836  0.1791 -0.4426 -0.4742
 6265TIP3    H240287   6.529   4.931   3.711  1.6182  0.6593  0.2183
 6266TIP3   OH240288   6.305   5.283   0.590  0.5435 -0.0109 -0.3276
 6266TIP3    H140289   6.239   5.252   0.528  0.2916  0.1849 -0.1600
 6266TIP3    H240290   6.276   5.250   0.675  0.1271  0.8856 -0.1069
 6267TIP3   OH240291   1.189   6.144   1.808  0.4745 -0.8555 -0.1672
 6267TIP3    H140292   1.249   6.112   1.741  1.2609  1.9768 -0.9188
 6267TIP3    H240293   1.246   6.172   1.880 -0.0075  0.4301 -0.2620
 6268TIP3   OH240294   5.803   3.631   2.401 -0.1187 -0.4923 -0.2451
 6268TIP3    H140295   5.762   3.552   2.438 -1.2664  0.0936 -0.2435
 6268TIP3    H240296   5.839   3.601   2.317 -0.6375 -0.9969 -0.2952
 6269TIP3   OH240297   2.336   6.172   6.178 -0.1490  0.0305  0.2218
 6269TIP3    H140298   2.270   6.171   6.109 -0.5953 -0.7080  0.6554
 6269TIP3    H240299   2.383   6.254   6.164 -0.4702  0.0687 -0.7337
 6270TIP3   OH240300   3.586   2.704   6.666 -0.2484  0.6591 -0.3305
 6270TIP3    H140301   3.580   2.633   6.730  1.5145  0.4503 -0.3663
 6270TIP3    H240302   3.567   2.784   6.716 -1.2385  0.2667 -0.0747
 6271TIP3   OH240303   1.775   1.713   6.656 -0.0268 -0.5257 -0.3640
 6271TIP3    H140304   1.715   1.780   6.625  0.5649  0.1290 -0.1091
 6271TIP3    H240305   1.862   1.747   6.637  0.2884 -1.0970  0.0072
 6272TIP3   OH240306   5.983   6.617  11.479 -0.2443  0.3724  0.4756
 6272TIP3    H140307   6.025   6.533  11.495  0.2469  0.4984 -0.1387
 6272TIP3    H240308   6.011   6.642  11.391 -1.0253  0.7997  0.3401
 6273TIP3   OH240309   3.779   4.695  12.685  0.2360  0.1029  0.4824
 6273TIP3    H140310   3.778   4.634  12.759  0.8648 -0.6121 -0.0945
 6273TIP3    H240311   3.872   4.710  12.668  0.0821  0.9807  0.4240
 6274TIP3   OH240312   5.738   5.004  16.537  0.1414 -0.6957  0.1096
 6274TIP3    H140313   5.687   4.925  16.518 -0.9523 -0.1444  0.7121
 6274TIP3    H240314   5.725   5.019  16.631 -0.2034  0.5703 -0.1215
 6275TIP3   OH240315   4.695   2.309  11.845 -0.2401 -0.3436  0.5335
 6275TIP3    H140316   4.632   2.379  11.859  0.2443 -0.0261  1.1711
 6275TIP3    H240317   4.716   2.314  11.752 -1.8038 -1.0158  0.1306
 6276TIP3   OH240318   0.399   2.620  10.449  0.5465 -0.4660 -0.0969
 6276TIP3    H140319   0.394   2.716  10.446 -0.0681 -0.4589  0.9078
 6276TIP3    H240320   0.493   2.600  10.449  0.6683  0.1162 -0.9368
 6277TIP3   OH240321   4.581   4.040  15.196 -0.0394 -0.5474 -0.5122
 6277TIP3    H140322   4.570   4.094  15.118 -0.5873  0.3494  0.1658
 6277TIP3    H240323   4.496   4.044  15.240  0.8029  0.5251  1.0932
 6278TIP3   OH240324   2.632   3.018  16.057  0.2306  0.1672 -0.8512
 6278TIP3    H140325   2.558   3.074  16.082  0.3358  0.4807 -1.2439
 6278TIP3    H240326   2.634   2.950  16.125  0.7877  1.2606  0.2550
 6279TIP3   OH240327   3.883   5.303   6.062 -0.8485 -0.8435  0.3730
 6279TIP3    H140328   3.893   5.303   6.157 -0.0719 -2.3144  0.3023
 6279TIP3    H240329   3.904   5.213   6.035  0.3467 -0.0908 -1.3207
 6280TIP3   OH240330   5.901   3.048  12.436  0.3205 -0.1237 -0.1863
 6280TIP3    H140331   5.970   3.020  12.495  0.6404  0.0823 -0.4561
 6280TIP3    H240332   5.907   3.144  12.436 -1.2710 -0.0085  1.3378
 6281TIP3   OH240333   6.734   2.303   5.529 -0.5690 -0.3584  0.0234
 6281TIP3    H140334   6.653   2.273   5.571 -0.8143  1.1461  0.6501
 6281TIP3    H240335   6.790   2.225   5.526 -1.1716 -0.8717  1.6779
 6282TIP3   OH240336   0.067   4.539   5.896  0.5766  0.1659  0.1966
 6282TIP3    H140337   0.148   4.589   5.895  0.4801  0.3471  1.1128
 6282TIP3    H240338  -0.002   4.605   5.899  0.3424  0.0454 -1.6454
 6283TIP3   OH240339   4.968   3.790   5.270 -0.2073 -0.6310 -0.0789
 6283TIP3    H140340   4.896   3.730   5.253  1.0395 -1.8382 -1.1975
 6283TIP3    H240341   4.927   3.877   5.267 -1.8953 -1.3527  0.8987
 6284TIP3   OH240342   4.487   3.751  10.526 -0.0102  0.1591 -0.0884
 6284TIP3    H140343   4.398   3.782  10.510  0.1095  1.7355  2.0534
 6284TIP3    H240344   4.478   3.656  10.537 -0.8381 -0.2584 -3.5675
 6285TIP3   OH240345   4.178   5.552   2.478 -0.6461 -0.2621 -0.2707
 6285TIP3    H140346   4.201   5.496   2.404 -0.1058  0.3223 -0.5564
 6285TIP3    H240347   4.263   5.580   2.514 -0.9032 -0.5325  0.5652
 6286TIP3   OH240348   6.673   6.804   5.669  0.3416 -0.0395  0.5936
 6286TIP3    H140349   6.590   6.830   5.710 -0.0594  0.6470 -0.6280
 6286TIP3    H240350   6.719   6.886   5.651  0.6008 -0.3322 -0.1224
 6287TIP3   OH240351   1.604   4.896  15.839 -0.3821 -0.3293 -0.3398
 6287TIP3    H140352   1.620   4.968  15.900 -1.9862  0.3352 -0.6666
 6287TIP3    H240353   1.528   4.850  15.877  0.1029 -1.3348 -0.5831
 6288TIP3   OH240354   4.826   1.895  14.338 -0.1664  0.7353  0.2782
 6288TIP3    H140355   4.799   1.810  14.373  1.0622  0.5659  0.8672
 6288TIP3    H240356   4.824   1.954  14.413 -1.9758  1.4664 -0.3444
 6289TIP3   OH240357   3.058   1.003  13.196 -0.2771 -0.7033  0.3548
 6289TIP3    H140358   3.094   0.957  13.120  1.3884 -0.9276  1.2477
 6289TIP3    H240359   2.975   0.960  13.214 -1.5959  0.5775 -2.4908
 6290TIP3   OH240360   6.638   6.001  14.821  0.4940 -0.3485  0.0872
 6290TIP3    H140361   6.692   6.043  14.754  0.1649 -0.3715 -0.1984
 6290TIP3    H240362   6.563   6.060  14.831 -0.3628 -1.2544 -0.8914
 6291TIP3   OH240363   3.902   6.383   5.876 -0.1499  0.3682  0.1303
 6291TIP3    H140364   3.934   6.302   5.914 -1.3635 -0.6948 -1.0466
 6291TIP3    H240365   3.807   6.380   5.890 -0.2653  1.3174 -0.3922
 6292TIP3   OH240366   1.686   1.044  15.088 -0.3709  0.1605  0.1681
 6292TIP3    H140367   1.662   1.136  15.074  0.7824  0.4706  0.1645
 6292TIP3    H240368   1.604   0.995  15.075 -0.9463  1.1671 -0.0247
 6293TIP3   OH240369   2.714   3.055  13.571 -0.2939  0.2175  0.5898
 6293TIP3    H140370   2.679   2.992  13.634 -0.6627  0.1617  0.3282
 6293TIP3    H240371   2.807   3.034  13.565 -1.0571 -2.5772 -2.1307
 6294TIP3   OH240372   3.759   6.716   5.866 -0.0333 -0.7457  0.0765
 6294TIP3    H140373   3.722   6.627   5.861  0.0706 -0.8014  0.2868
 6294TIP3    H240374   3.693   6.766   5.915 -0.4615 -0.5105 -0.7328
 6295TIP3   OH240375   5.798   5.010  13.521  0.7099  0.2620  0.0703
 6295TIP3    H140376   5.810   4.944  13.454  0.1013  1.9793 -1.7880
 6295TIP3    H240377   5.718   4.984  13.567 -0.7976  0.8677 -2.1044
 6296TIP3   OH240378   6.264   5.665   4.736 -0.2876  0.0951  0.2054
 6296TIP3    H140379   6.198   5.651   4.668  0.9785  0.3576 -1.1016
 6296TIP3    H240380   6.257   5.588   4.792 -0.8948 -0.4545 -0.6077
 6297TIP3   OH240381   4.735   2.545  12.588  0.5255 -0.1192 -0.2027
 6297TIP3    H140382   4.696   2.478  12.532  1.4074 -0.0256 -0.9486
 6297TIP3    H240383   4.663   2.607  12.604  0.3595  0.0856 -1.6106
 6298TIP3   OH240384   2.361   6.679  14.112 -0.1262  0.1572 -0.1638
 6298TIP3    H140385   2.417   6.640  14.045  1.1510  0.1419  0.8811
 6298TIP3    H240386   2.405   6.761  14.134 -1.7853  1.2937 -1.0046
 6299TIP3   OH240387   0.585   5.313   3.100 -0.0158 -0.0116 -0.0973
 6299TIP3    H140388   0.642   5.368   3.153  0.0258  0.2826 -0.4468
 6299TIP3    H240389   0.537   5.260   3.164  2.1655 -1.7940  0.1684
 6300TIP3   OH240390   4.549   5.230   5.340 -0.2173  0.2518 -0.1759
 6300TIP3    H140391   4.519   5.272   5.260  2.5866  2.1461 -0.3039
 6300TIP3    H240392   4.634   5.192   5.318 -0.9109 -2.1050  1.0345
 6301TIP3   OH240393   5.842   0.349  11.208  0.9114  0.3977 -0.0654
 6301TIP3    H140394   5.749   0.365  11.192  0.1026 -1.2347  2.6367
 6301TIP3    H240395   5.887   0.422  11.167 -1.5999  1.4197 -1.0600
 6302TIP3   OH240396   1.034   2.724  11.819 -0.5779 -0.7591 -0.7446
 6302TIP3    H140397   1.014   2.632  11.805  1.0581 -1.1876 -0.3326
 6302TIP3    H240398   1.060   2.729  11.911 -0.8378  0.1593 -0.7126
 6303TIP3   OH240399   3.120   4.706   5.941  0.0997  0.0855 -0.1916
 6303TIP3    H140400   3.095   4.716   6.033 -0.2377 -1.2373 -0.1378
 6303TIP3    H240401   3.213   4.683   5.944  0.1746  0.3801 -0.2026
 6304TIP3   OH240402   5.022   4.571  13.996  0.2414  0.2299  0.1777
 6304TIP3    H140403   5.065   4.653  13.970 -0.8519  1.6707  2.7422
 6304TIP3    H240404   4.947   4.564  13.936  0.8187  0.6315 -0.6108
 6305TIP3   OH240405   3.690   2.868  13.204  0.0376 -0.1012  0.4718
 6305TIP3    H140406   3.739   2.866  13.286  2.5130  0.1492 -0.9797
 6305TIP3    H240407   3.664   2.777  13.190 -1.5921  0.0521  2.1867
 6306TIP3   OH240408   3.639   6.608   5.569 -0.5278 -0.1863  0.6170
 6306TIP3    H140409   3.624   6.516   5.591  0.0761  0.0505  2.0718
 6306TIP3    H240410   3.731   6.611   5.541 -0.1708  0.1821  1.7942
 6307TIP3   OH240411   5.543   2.105   4.391  0.1922  0.4071 -0.0167
 6307TIP3    H140412   5.626   2.152   4.389 -0.1964  1.0618 -2.2766
 6307TIP3    H240413   5.517   2.099   4.299  0.1129 -4.0021  0.1632
 6308TIP3   OH240414   4.801   4.545   5.899 -0.0778  0.1305  0.1905
 6308TIP3    H140415   4.750   4.555   5.979 -0.5085 -1.6946  0.1674
 6308TIP3    H240416   4.807   4.450   5.886 -1.2441  0.4124 -2.7143
 6309TIP3   OH240417   1.240   1.542  15.149  0.1152  0.0879 -0.2408
 6309TIP3    H140418   1.160   1.548  15.098 -1.0952  1.1656  1.7395
 6309TIP3    H240419   1.215   1.491  15.227  1.2148  0.8239  0.6099
 6310TIP3   OH240420   6.345   0.169   2.685 -0.5018 -0.5637 -0.3803
 6310TIP3    H140421   6.261   0.124   2.691 -0.4798 -0.6292 -0.5340
 6310TIP3    H240422   6.389   0.150   2.768 -1.1634  0.5445  0.2273
 6311TIP3   OH240423   3.681   6.057   5.032  0.0619  0.5444 -0.3268
 6311TIP3    H140424   3.690   6.040   4.938  0.2535  0.1711 -0.2414
 6311TIP3    H240425   3.711   5.976   5.074 -0.1144  0.6760  0.0540
 6312TIP3   OH240426   5.939   5.769   5.983  0.4538 -0.2590 -0.7258
 6312TIP3    H140427   5.931   5.775   6.078  0.2503 -0.2938 -0.7413
 6312TIP3    H240428   6.024   5.727   5.969  0.6550  0.0977 -0.5703
 6313TIP3   OH240429   1.043   2.763   0.537 -0.4409  0.4509  0.0579
 6313TIP3    H140430   1.014   2.724   0.619 -0.5554  1.3097  0.4318
 6313TIP3    H240431   1.014   2.854   0.542  0.6562  0.8331 -0.3772
 6314TIP3   OH240432   0.818   6.176   2.868  0.2743 -0.1063 -0.1166
 6314TIP3    H140433   0.830   6.175   2.773  0.8893 -1.0208 -0.0375
 6314TIP3    H240434   0.906   6.194   2.902  0.0899  0.0330  0.2863
 6315TIP3   OH240435   4.192   5.185   1.262 -0.5588 -0.0152 -0.3804
 6315TIP3    H140436   4.194   5.238   1.341 -2.6165  0.7062 -0.7877
 6315TIP3    H240437   4.099   5.170   1.245 -0.1090 -1.0948 -2.0465
 6316TIP3   OH240438   5.697   1.659  12.551  0.1199  0.0805  0.3763
 6316TIP3    H140439   5.688   1.617  12.637  0.4012  1.3772  1.0502
 6316TIP3    H240440   5.785   1.637  12.523 -0.2439 -0.9967  0.0617
 6317TIP3   OH240441   5.911   1.601   5.596 -0.1424  0.5429  0.4837
 6317TIP3    H140442   6.000   1.625   5.623 -0.6537  0.2239  2.5425
 6317TIP3    H240443   5.916   1.507   5.579 -0.1626  0.4611  0.9270
 6318TIP3   OH240444   0.129   6.356   0.224 -0.7212 -0.4282 -0.7493
 6318TIP3    H140445   0.209   6.382   0.178 -1.3496  0.3809 -1.3837
 6318TIP3    H240446   0.083   6.299   0.162  0.0657 -2.0993  0.1753
 6319TIP3   OH240447   0.638   0.978   5.965  0.0831  0.3180  0.2541
 6319TIP3    H140448   0.672   1.062   5.933  1.8879 -0.6646 -0.5219
 6319TIP3    H240449   0.547   0.996   5.990  0.5046  2.5269  0.2580
 6320TIP3   OH240450   3.344   0.128  11.437 -0.0816 -0.2968 -0.5824
 6320TIP3    H140451   3.366   0.169  11.354  2.1379  1.5429  0.8708
 6320TIP3    H240452   3.381   0.186  11.504 -1.4025 -1.9717  1.6923
 6321TIP3   OH240453   1.064   2.780  13.981 -0.0742 -0.2191 -0.0309
 6321TIP3    H140454   0.994   2.780  13.915 -1.4302 -0.5792  1.3796
 6321TIP3    H240455   1.131   2.722  13.945 -1.4419 -1.5579 -0.4367
 6322TIP3   OH240456   0.337   4.019   4.442 -0.4827  0.0776  0.4868
 6322TIP3    H140457   0.393   3.949   4.478 -0.4094 -0.4640 -0.6685
 6322TIP3    H240458   0.259   3.973   4.411 -0.1128  0.4218 -0.9560
 6323TIP3   OH240459   4.656   4.374   1.160  0.0500  0.3977  0.4632
 6323TIP3    H140460   4.715   4.409   1.227  1.8280 -0.5722 -0.5457
 6323TIP3    H240461   4.609   4.303   1.203  0.7967  0.1345  0.8592
 6324TIP3   OH240462   5.447   2.447   0.243 -0.4605 -0.0826 -0.3733
 6324TIP3    H140463   5.474   2.398   0.321  0.3775 -2.0146 -1.8594
 6324TIP3    H240464   5.515   2.428   0.179 -1.8366  0.4648 -2.0063
 6325TIP3   OH240465   4.771   0.298   0.192 -0.5131 -0.8441 -0.3419
 6325TIP3    H140466   4.735   0.341   0.270 -1.1340 -0.2297 -0.9667
 6325TIP3    H240467   4.704   0.235   0.166  0.8815 -3.0830  1.2611
 6326TIP3   OH240468   6.162   2.108  14.044 -0.0902 -0.2309 -0.2386
 6326TIP3    H140469   6.120   2.086  13.961  1.5409 -0.1515 -1.1046
 6326TIP3    H240470   6.255   2.094  14.028  0.1269 -1.5010  1.9945
 6327TIP3   OH240471   0.855   0.125   1.713 -0.8441  0.2850  0.0556
 6327TIP3    H140472   0.936   0.126   1.764 -0.4860  1.5245 -0.5188
 6327TIP3    H240473   0.883   0.143   1.624 -1.6339 -0.4063 -0.3314
 6328TIP3   OH240474   6.754   2.161   2.184  0.0844 -0.2983  0.0201
 6328TIP3    H140475   6.725   2.239   2.136 -0.0773 -0.4377 -0.1073
 6328TIP3    H240476   6.832   2.131   2.136  0.1062 -0.2552  0.0284
 6329TIP3   OH240477   6.412   6.298   1.951 -0.4816  0.5726  0.4527
 6329TIP3    H140478   6.402   6.391   1.932 -1.1728  0.2304 -0.9249
 6329TIP3    H240479   6.451   6.262   1.872  1.8902  0.0570  1.8177
 6330TIP3   OH240480   2.648   5.540   5.748  0.5229 -0.0074  0.1348
 6330TIP3    H140481   2.682   5.629   5.755  3.3262 -0.8135 -2.4055
 6330TIP3    H240482   2.570   5.548   5.693  1.5867  0.7052 -1.2988
 6331TIP3   OH240483   4.205   2.092  11.489 -0.0134 -0.4434  0.0214
 6331TIP3    H140484   4.201   2.188  11.495 -0.2443 -0.4353 -0.2435
 6331TIP3    H240485   4.166   2.062  11.571 -3.3145 -0.3315 -1.4019
 6332TIP3   OH240486   0.883   1.961  14.009  0.1173  0.1090 -0.0776
 6332TIP3    H140487   0.824   1.973  14.084 -0.0985  1.5378 -0.4542
 6332TIP3    H240488   0.827   1.932  13.938 -0.0084  0.6761 -0.2147
 6333TIP3   OH240489   2.258   4.895   5.067 -0.0959  0.1642  0.3530
 6333TIP3    H140490   2.176   4.926   5.029 -0.6435  0.4322  1.7147
 6333TIP3    H240491   2.307   4.859   4.993 -2.2019 -1.7000 -0.1840
 6334TIP3   OH240492   4.412   5.090  16.243 -0.3161  0.2120  0.1469
 6334TIP3    H140493   4.382   5.102  16.153  1.4660  1.6936 -0.2913
 6334TIP3    H240494   4.432   5.179  16.273  1.3564 -0.4991  1.1996
 6335TIP3   OH240495   3.505   5.576  10.524 -0.0738  0.1782 -0.4470
 6335TIP3    H140496   3.527   5.652  10.578  0.6997 -0.3511  0.0009
 6335TIP3    H240497   3.584   5.523  10.525 -0.8014 -0.9135 -0.2765
 6336TIP3   OH240498   5.786   6.362   3.697  0.0123  0.1364  0.4185
 6336TIP3    H140499   5.694   6.351   3.721 -0.2188 -0.5524 -0.7340
 6336TIP3    H240500   5.829   6.389   3.778 -0.8531 -1.4724  1.4392
 6337TIP3   OH240501   2.760   1.517  16.369  0.6092 -0.0043 -0.6496
 6337TIP3    H140502   2.799   1.600  16.398  1.4028 -0.6932  0.3144
 6337TIP3    H240503   2.703   1.492  16.441  0.5193 -0.3927 -0.8583
 6338TIP3   OH240504   3.786   2.933  12.352  0.3909 -0.2484  0.3460
 6338TIP3    H140505   3.841   2.862  12.384  0.7701  0.3198  0.9956
 6338TIP3    H240506   3.707   2.929  12.407  0.9723  0.6280  1.2622
 6339TIP3   OH240507   6.702   3.968   5.354  0.1382  0.1311  0.2218
 6339TIP3    H140508   6.705   3.911   5.277  0.9190  1.0820 -0.4665
 6339TIP3    H240509   6.756   3.923   5.418 -2.1580 -1.6849  0.9507
 6340TIP3   OH240510   0.298   5.249  11.015  0.1703  0.0620  0.2892
 6340TIP3    H140511   0.391   5.266  11.029  0.3205 -0.2720 -0.3059
 6340TIP3    H240512   0.262   5.238  11.103  0.9069 -0.9622  0.4723
 6341TIP3   OH240513   5.772   6.423   0.256 -0.4542  0.2482  0.5851
 6341TIP3    H140514   5.718   6.496   0.227 -2.4266  0.0072  3.3821
 6341TIP3    H240515   5.861   6.458   0.257 -0.7712  1.2784 -2.1708
 6342TIP3   OH240516   0.432   6.787   3.521  0.2907  0.2802  0.0331
 6342TIP3    H140517   0.433   6.803   3.427  0.7468 -0.1981 -0.0469
 6342TIP3    H240518   0.385   6.861   3.558  0.3752  0.6222 -0.5457
 6343TIP3   OH240519   5.791   0.460   5.100  0.0582 -0.0820 -0.5336
 6343TIP3    H140520   5.723   0.460   5.033 -0.5008 -1.6485  0.0268
 6343TIP3    H240521   5.745   0.446   5.183  0.9170  0.2207  0.0120
 6344TIP3   OH240522   5.304   0.940   4.745 -0.1422 -0.3219 -0.4672
 6344TIP3    H140523   5.381   0.975   4.789 -1.4190  1.8996  0.0481
 6344TIP3    H240524   5.337   0.910   4.660  1.6124 -1.1206  0.4505
 6345TIP3   OH240525   0.786   4.181   5.420  0.1934 -0.8433 -0.7798
 6345TIP3    H140526   0.753   4.139   5.341  2.0840 -1.4144 -1.2766
 6345TIP3    H240527   0.841   4.252   5.389  1.6439 -1.6048 -0.0076
 6346TIP3   OH240528   3.790   1.776  16.538  0.1710 -0.3407 -0.4733
 6346TIP3    H140529   3.800   1.784  16.443  0.3252  0.1327 -0.4210
 6346TIP3    H240530   3.743   1.856  16.563 -0.7457 -0.9379 -0.2819
 6347TIP3   OH240531   0.995   2.698   2.666 -0.1830  0.4279  0.1683
 6347TIP3    H140532   1.061   2.646   2.711 -0.1379  1.1198  0.9141
 6347TIP3    H240533   0.920   2.698   2.726 -0.3046  0.9230  0.0190
 6348TIP3   OH240534   6.626   2.903   0.937  0.1851  0.3611  0.6125
 6348TIP3    H140535   6.640   2.877   1.028 -1.0912  0.2447  0.7925
 6348TIP3    H240536   6.604   2.996   0.941 -0.9579  0.1043  0.5457
 6349TIP3   OH240537   4.161   3.187   2.152  0.4192 -0.0456 -0.5508
 6349TIP3    H140538   4.079   3.143   2.173  1.0357 -0.8625  0.1978
 6349TIP3    H240539   4.151   3.216   2.061 -0.2399 -1.1712 -0.8398
 6350TIP3   OH240540   0.445   0.421  13.423  0.3675 -0.0686 -0.0564
 6350TIP3    H140541   0.523   0.465  13.390  2.1247 -0.3168  3.4828
 6350TIP3    H240542   0.384   0.491  13.444  1.4389  0.4602  1.3928
 6351TIP3   OH240543   2.791   6.229  15.264 -0.0134 -0.0297 -0.2958
 6351TIP3    H140544   2.853   6.177  15.315  0.4256  0.1223 -0.6781
 6351TIP3    H240545   2.758   6.169  15.198  0.0781  0.0263 -0.3914
 6352TIP3   OH240546   0.767   4.951  12.651 -0.0974  0.1520  0.7650
 6352TIP3    H140547   0.775   5.031  12.703 -1.5484  0.7717  0.0555
 6352TIP3    H240548   0.794   4.977  12.563  0.8879 -0.5252  0.8573
 6353TIP3   OH240549   6.589   6.445  15.495 -0.2124  0.5259  0.4196
 6353TIP3    H140550   6.504   6.482  15.517 -0.5102 -0.7398  1.4551
 6353TIP3    H240551   6.570   6.381  15.426  0.0540  0.9749 -0.0790
 6354TIP3   OH240552   0.238   2.429  14.238  0.0848 -0.6853  0.1597
 6354TIP3    H140553   0.264   2.465  14.153 -1.2358 -1.2917 -0.5059
 6354TIP3    H240554   0.268   2.338  14.236  1.4130 -0.2830  0.9602
 6355TIP3   OH240555   0.509   2.151   0.741 -0.2388 -0.1155 -0.3231
 6355TIP3    H140556   0.595   2.149   0.783 -1.2108 -2.9172  1.6759
 6355TIP3    H240557   0.528   2.141   0.648  1.5694 -1.3189  0.1470
 6356TIP3   OH240558   4.460   4.171   2.123  0.2632  0.3579  0.3205
 6356TIP3    H140559   4.525   4.236   2.095  1.9952 -1.7811 -0.7343
 6356TIP3    H240560   4.511   4.106   2.172 -0.7343 -2.3151 -2.0564
 6357TIP3   OH240561   1.533   1.268  16.328  0.4451 -0.3630 -0.9115
 6357TIP3    H140562   1.620   1.227  16.328  0.8412  0.4542 -0.0124
 6357TIP3    H240563   1.474   1.199  16.297  1.4075 -0.9331 -1.4917
 6358TIP3   OH240564   4.927   1.331  15.235  0.0334 -0.1059 -0.0992
 6358TIP3    H140565   4.971   1.273  15.172  1.9175  0.9469  0.1963
 6358TIP3    H240566   4.992   1.344  15.304 -0.5787  1.8366  0.1465
 6359TIP3   OH240567   0.824   2.671  16.010 -0.6590 -0.1715  0.5826
 6359TIP3    H140568   0.888   2.741  16.025  0.0206 -0.1970 -1.9392
 6359TIP3    H240569   0.869   2.591  16.037  0.9587 -0.3624 -2.4920
 6360TIP3   OH240570   4.161   0.109  15.320  0.0921 -0.1803  0.1154
 6360TIP3    H140571   4.200   0.159  15.391 -2.6511  2.9396 -0.4170
 6360TIP3    H240572   4.069   0.100  15.345 -0.7098  0.1316 -2.5376
 6361TIP3   OH240573   3.749   0.127   1.657 -0.0032  0.1885  0.3837
 6361TIP3    H140574   3.795   0.073   1.592 -0.4553  1.2600 -0.8393
 6361TIP3    H240575   3.693   0.065   1.704  0.2961 -0.5910 -0.2790
 6362TIP3   OH240576   2.755   1.579   4.034  0.0201 -0.4964 -0.1169
 6362TIP3    H140577   2.806   1.536   3.966  0.3708  0.1858 -0.2906
 6362TIP3    H240578   2.820   1.608   4.098 -0.2152 -0.2807  0.0283
 6363TIP3   OH240579   0.996   2.133   0.222 -0.2557 -0.1272 -0.4511
 6363TIP3    H140580   1.089   2.153   0.211 -0.3019  0.2124 -0.2321
 6363TIP3    H240581   0.967   2.106   0.135  0.0654 -0.3000 -0.5040
 6364TIP3   OH240582   5.358   1.414   5.909 -0.1663  0.2234  0.3221
 6364TIP3    H140583   5.326   1.389   5.822 -0.4795  1.0285  0.2010
 6364TIP3    H240584   5.288   1.386   5.968 -0.1181  0.0044  0.2741
 6365TIP3   OH240585   4.942   4.908  12.001  0.2520 -0.1661 -0.1318
 6365TIP3    H140586   4.862   4.907  11.949 -0.6788 -0.0999  1.2818
 6365TIP3    H240587   4.913   4.890  12.090  1.9294 -1.1198  0.2398
 6366TIP3   OH240588   1.830   0.154  12.310  0.1876 -0.0954  0.4595
 6366TIP3    H140589   1.773   0.209  12.363  1.1513  0.5395  0.8630
 6366TIP3    H240590   1.846   0.076  12.364  0.6878  0.2837  0.8728
 6367TIP3   OH240591   4.999   3.004  16.504  0.0745  0.2280  0.1542
 6367TIP3    H140592   4.938   2.949  16.552 -0.2518 -0.0468 -0.5675
 6367TIP3    H240593   4.956   3.021  16.420  1.2157 -0.4193 -0.5817
 6368TIP3   OH240594   0.881   0.378  13.350  0.2050 -0.1648  0.5903
 6368TIP3    H140595   0.942   0.433  13.300 -1.2508  1.6413  0.7609
 6368TIP3    H240596   0.873   0.298  13.297 -1.1469  1.6165 -1.9986
 6369TIP3   OH240597   4.957   0.853   3.693  0.7174  0.2722  0.1854
 6369TIP3    H140598   4.864   0.865   3.672  0.6867  0.2543  0.3079
 6369TIP3    H240599   4.957   0.810   3.779  0.8658  1.8803  1.0117
 6370TIP3   OH240600   0.127   3.255   4.796  0.5389 -0.0578 -0.3287
 6370TIP3    H140601   0.170   3.248   4.881 -1.4491 -2.5488  0.5543
 6370TIP3    H240602   0.033   3.256   4.817  0.0547  1.7236 -2.3684
 6371TIP3   OH240603   2.375   5.254   2.147  0.0711  0.6787 -0.3062
 6371TIP3    H140604   2.453   5.231   2.198  1.0715 -0.5721 -2.3486
 6371TIP3    H240605   2.410   5.284   2.063 -1.6306  0.5967 -1.0569
 6372TIP3   OH240606   2.107   4.264  13.487  0.3671 -0.0988  0.7723
 6372TIP3    H140607   2.100   4.227  13.400  0.4609 -0.7105  1.0228
 6372TIP3    H240608   2.183   4.221  13.526 -0.4423 -0.7750  1.6121
 6373TIP3   OH240609   2.769   6.185   4.819 -0.0257 -0.9096 -0.2596
 6373TIP3    H140610   2.840   6.156   4.878 -0.0422  0.4205  0.4410
 6373TIP3    H240611   2.726   6.104   4.792 -0.7311 -1.5122  2.4785
 6374TIP3   OH240612   3.797   3.964   0.249 -0.3870 -0.1989 -0.3110
 6374TIP3    H140613   3.762   4.050   0.273 -0.4723 -0.7989  1.8017
 6374TIP3    H240614   3.828   3.975   0.159 -0.6614  1.9568 -0.1688
 6375TIP3   OH240615   3.198   3.294  16.392  0.1024  0.5298  0.4464
 6375TIP3    H140616   3.242   3.262  16.471  0.3724 -0.2722 -0.0235
 6375TIP3    H240617   3.130   3.230  16.375 -0.8524  1.4392  0.8048
 6376TIP3   OH240618   5.352   3.510  17.049 -0.1225  0.1018  0.3628
 6376TIP3    H140619   5.342   3.470  17.135  1.9234  0.3960  0.7614
 6376TIP3    H240620   5.370   3.437  16.990  0.2822  0.0784  0.5123
 6377TIP3   OH240621   2.159   2.772   2.492 -0.2910  0.0636  0.4339
 6377TIP3    H140622   2.154   2.864   2.517 -0.0395  0.3004 -0.3522
 6377TIP3    H240623   2.199   2.728   2.567  0.6361  0.7843  0.3651
 6378TIP3   OH240624   3.343   2.840  10.808 -0.1548  0.7907 -0.1144
 6378TIP3    H140625   3.430   2.863  10.840  0.5690  0.6664 -1.9181
 6378TIP3    H240626   3.356   2.758  10.760 -1.1613  1.0256 -0.8044
 6379TIP3   OH240627   2.267   1.419   4.288 -0.1344 -0.3110 -0.2500
 6379TIP3    H140628   2.344   1.463   4.252 -0.2077  0.4131  0.4564
 6379TIP3    H240629   2.233   1.367   4.216 -1.1973  2.3464 -1.7269
 6380TIP3   OH240630   3.451   6.075   1.121  0.2452  0.1129  0.2599
 6380TIP3    H140631   3.406   6.142   1.171 -0.1599  0.9865 -1.2452
 6380TIP3    H240632   3.536   6.114   1.099  0.3038 -0.1403  0.0249
 6381TIP3   OH240633   0.571   2.217  10.344  0.3226 -0.3850 -0.2039
 6381TIP3    H140634   0.587   2.206  10.251  4.1690  3.2720 -0.0840
 6381TIP3    H240635   0.508   2.289  10.349 -1.2794 -1.7631  0.0305
 6382TIP3   OH240636   3.332   4.457   5.242  0.0819 -0.3460  0.0744
 6382TIP3    H140637   3.359   4.429   5.329 -2.9672 -1.8865  0.5753
 6382TIP3    H240638   3.369   4.545   5.233 -2.3477  1.2285  4.3122
 6383TIP3   OH240639   2.000   0.307   4.856  0.2823  0.1299  0.4096
 6383TIP3    H140640   1.926   0.345   4.904  0.2177  0.6978 -0.1372
 6383TIP3    H240641   2.033   0.238   4.914 -0.7442 -0.2103  0.6117
 6384TIP3   OH240642   5.690   4.097   4.036  0.2242 -0.1877  0.1633
 6384TIP3    H140643   5.718   4.134   3.952  1.0049 -0.9625  0.0700
 6384TIP3    H240644   5.715   4.163   4.101  1.6319 -0.5314  0.0013
 6385TIP3   OH240645   2.983   2.921   5.549  0.7707 -0.5041  0.0979
 6385TIP3    H140646   3.042   2.991   5.522 -2.5873  2.6557  0.4503
 6385TIP3    H240647   3.034   2.867   5.608  3.0061  2.7653  1.3007
 6386TIP3   OH240648   1.012   0.625  13.274  0.5121 -0.1603  0.1079
 6386TIP3    H140649   1.047   0.626  13.363  0.7197 -2.0348  0.0569
 6386TIP3    H240650   1.004   0.718  13.251  0.6822  0.3431  1.9810
 6387TIP3   OH240651   6.593   2.061   4.107 -0.6616 -0.0738 -0.1170
 6387TIP3    H140652   6.617   2.114   4.183 -1.4397 -1.4357  1.1067
 6387TIP3    H240653   6.527   2.112   4.061 -0.1643  0.7685  0.0937
 6388TIP3   OH240654   5.130   6.779   2.046 -0.0570  0.9391 -0.0031
 6388TIP3    H140655   5.123   6.866   2.008  1.5350  1.5145  0.9746
 6388TIP3    H240656   5.164   6.724   1.975 -1.5865  0.9828 -0.7802
 6389TIP3   OH240657   4.421   2.812  14.018  0.5625  0.0004  0.2839
 6389TIP3    H140658   4.457   2.760  14.090  0.5751  1.2681  1.2051
 6389TIP3    H240659   4.498   2.846  13.972  0.5825  2.2912  1.9483
 6390TIP3   OH240660   0.037   3.128  15.351 -0.4161 -0.0606 -0.9852
 6390TIP3    H140661   0.093   3.090  15.283 -1.5729 -3.6393 -0.0299
 6390TIP3    H240662  -0.044   3.077  15.347 -1.3873  1.1909  1.5646
 6391TIP3   OH240663   1.056   5.022  14.388  0.0253  0.5864  0.6014
 6391TIP3    H140664   1.060   5.024  14.484  0.9891 -1.7902  0.6413
 6391TIP3    H240665   0.990   4.956  14.368  1.0488 -0.1545 -0.3630
 6392TIP3   OH240666   6.265   2.701   1.364  0.2572 -0.5384  0.1798
 6392TIP3    H140667   6.360   2.709   1.351  0.0852 -0.2861 -0.9488
 6392TIP3    H240668   6.242   2.619   1.320 -0.1356 -0.3292 -0.0061
 6393TIP3   OH240669   0.347   2.245   2.580  0.5214 -1.0636  0.1220
 6393TIP3    H140670   0.438   2.268   2.560  0.3202 -0.0063  0.3962
 6393TIP3    H240671   0.346   2.149   2.581  1.1267 -1.1127 -2.1637
 6394TIP3   OH240672   1.169   1.905  12.031  0.1254 -0.1873 -0.0032
 6394TIP3    H140673   1.169   1.813  12.058 -0.8525 -0.3749 -0.6169
 6394TIP3    H240674   1.211   1.951  12.103  2.0959 -1.3220 -0.4089
 6395TIP3   OH240675   3.053   3.768  11.505  0.4479 -0.0919 -0.2680
 6395TIP3    H140676   3.024   3.677  11.512 -0.4313  0.1976 -0.0785
 6395TIP3    H240677   3.016   3.799  11.423 -0.6550  0.5952  0.4804
 6396TIP3   OH240678   5.551   0.333  17.247  0.7172 -0.2672  0.5281
 6396TIP3    H140679   5.613   0.312  17.177  0.3253  0.2680  0.0136
 6396TIP3    H240680   5.533   0.427  17.236  0.4128 -0.2457  1.1532
 6397TIP3   OH240681   5.558   0.139   2.755  0.5173  0.8389 -0.4135
 6397TIP3    H140682   5.555   0.102   2.844  1.2918 -0.7724 -1.0422
 6397TIP3    H240683   5.468   0.132   2.723  0.7525 -0.9950 -0.7126
 6398TIP3   OH240684   4.390   5.329  14.849  0.3126 -0.1619 -0.2690
 6398TIP3    H140685   4.479   5.347  14.818  0.0652 -0.0208 -0.9055
 6398TIP3    H240686   4.351   5.416  14.860 -0.2767 -0.2531 -1.5645
 6399TIP3   OH240687   6.387   6.092   3.162 -0.2505 -0.1341  0.0240
 6399TIP3    H140688   6.421   6.150   3.231  0.8584  0.7153 -1.1968
 6399TIP3    H240689   6.448   6.104   3.090 -1.0433 -1.4979 -0.8818
 6400TIP3   OH240690   2.521   5.202   3.786 -0.2247 -0.0877 -0.1803
 6400TIP3    H140691   2.456   5.145   3.826 -0.2251 -2.3081 -3.2131
 6400TIP3    H240692   2.479   5.235   3.707  0.4412  2.7553  0.5639
 6401TIP3   OH240693   0.386   4.169   1.314  0.5048 -0.3216 -0.2817
 6401TIP3    H140694   0.318   4.171   1.381  0.3407 -1.2095 -0.4136
 6401TIP3    H240695   0.436   4.089   1.332  2.8414  1.3682  1.0977
 6402TIP3   OH240696   5.513   2.722   3.644 -0.8022  0.2905  0.3822
 6402TIP3    H140697   5.501   2.737   3.737 -0.4180  1.3293  0.2686
 6402TIP3    H240698   5.578   2.786   3.617 -0.3765 -0.4840 -0.4623
 6403TIP3   OH240699   3.106   0.426   0.580  0.1424 -0.7216 -0.0362
 6403TIP3    H140700   3.144   0.481   0.649  0.6637 -1.1621  0.0343
 6403TIP3    H240701   3.143   0.339   0.596 -1.8017 -1.4182  0.7234
 6404TIP3   OH240702   0.978   3.185  14.478 -0.1869  0.4622  0.2105
 6404TIP3    H140703   0.977   3.243  14.554  1.0500  1.8336 -0.8020
 6404TIP3    H240704   0.962   3.242  14.403 -0.5938 -0.7571 -0.6565
 6405TIP3   OH240705   0.210   1.546  16.677  0.1880 -0.0053  0.3717
 6405TIP3    H140706   0.177   1.459  16.701 -2.3035  1.1291  1.1855
 6405TIP3    H240707   0.171   1.563  16.591 -1.1827  1.2369  1.2201
 6406TIP3   OH240708   6.320   3.461   3.017  0.2738 -0.2599 -0.4736
 6406TIP3    H140709   6.304   3.426   3.105  0.1261  1.1146  0.0545
 6406TIP3    H240710   6.260   3.535   3.009  1.9383  1.0717 -0.8452
 6407TIP3   OH240711   5.438   2.918   1.028  0.5281 -0.6916 -0.1134
 6407TIP3    H140712   5.369   2.891   1.088 -1.0660 -3.1767 -2.9215
 6407TIP3    H240713   5.502   2.846   1.031  0.5003 -0.7839 -1.2391
 6408TIP3   OH240714   3.416   5.137  13.097  1.0965  0.4936 -0.0667
 6408TIP3    H140715   3.348   5.081  13.134  1.6829  0.8941  1.6505
 6408TIP3    H240716   3.474   5.077  13.050  1.2254 -0.2451  1.0222
 6409TIP3   OH240717   2.276   2.605   4.850  0.4480 -0.6111 -0.1775
 6409TIP3    H140718   2.213   2.578   4.917 -0.7591 -0.4922 -1.2578
 6409TIP3    H240719   2.234   2.584   4.767  1.0571  1.1283 -0.9557
 6410TIP3   OH240720   3.940   3.188  15.978  0.0425 -0.5128  0.3621
 6410TIP3    H140721   3.909   3.277  15.996 -1.3739 -0.3450 -2.6875
 6410TIP3    H240722   4.025   3.200  15.937  0.3555 -0.6393  0.9610
 6411TIP3   OH240723   5.316   4.397   0.446  0.0281 -0.5967 -0.2201
 6411TIP3    H140724   5.329   4.302   0.445 -0.3283 -0.6418 -0.4268
 6411TIP3    H240725   5.328   4.424   0.355 -0.6717 -0.5485 -0.3001
 6412TIP3   OH240726   6.743   4.655   2.927 -0.4343 -0.1540  0.1568
 6412TIP3    H140727   6.733   4.713   2.852  0.4870  0.7996  0.7676
 6412TIP3    H240728   6.802   4.586   2.897 -1.6254 -0.8811 -0.6050
 6413TIP3   OH240729   0.651   2.022  11.863  0.6199  0.6000  0.1626
 6413TIP3    H140730   0.654   2.047  11.771 -0.3355 -1.2898 -0.4130
 6413TIP3    H240731   0.589   2.083  11.903  3.4196  3.4923  0.2712
 6414TIP3   OH240732   5.170   3.914  11.821  0.1807 -0.2794 -0.6500
 6414TIP3    H140733   5.133   3.980  11.880 -0.3649 -0.5977 -0.6368
 6414TIP3    H240734   5.222   3.965  11.758 -0.4097  0.1802 -0.7674
 6415TIP3   OH240735   0.818   0.284   1.182 -0.1859  0.0254  0.6472
 6415TIP3    H140736   0.895   0.334   1.157  0.3939 -0.3803  1.5827
 6415TIP3    H240737   0.765   0.279   1.103  0.6649  0.4605  0.0490
 6416TIP3   OH240738   2.120   2.782   1.774  0.1970  0.2950 -0.2828
 6416TIP3    H140739   2.080   2.782   1.687  3.6034  2.3847 -1.9767
 6416TIP3    H240740   2.060   2.834   1.827 -2.8207 -2.4694 -0.8660
 6417TIP3   OH240741   4.958   0.148   3.824 -0.0031  0.7549 -0.2895
 6417TIP3    H140742   4.909   0.094   3.887 -0.1123  1.6666  0.4249
 6417TIP3    H240743   5.014   0.087   3.777  0.6447  0.1728  1.2390
 6418TIP3   OH240744   1.222   4.700   5.208 -0.2658  0.3988  0.0630
 6418TIP3    H140745   1.301   4.652   5.234 -0.9078 -1.3825 -1.2688
 6418TIP3    H240746   1.201   4.753   5.285  1.4197 -0.1487  0.9379
 6419TIP3   OH240747   1.426   2.537  13.129 -0.4414  0.1699 -0.2170
 6419TIP3    H140748   1.513   2.500  13.114  0.1974  1.0346  1.2958
 6419TIP3    H240749   1.372   2.462  13.152  0.3232 -0.1349  0.5951
 6420TIP3   OH240750   2.598   6.720  16.972  0.1522 -0.0726 -0.0556
 6420TIP3    H140751   2.531   6.653  16.960  0.4012 -0.3972  0.3239
 6420TIP3    H240752   2.638   6.731  16.886  1.3067 -1.7068  0.2492
 6421TIP3   OH240753   0.410   6.336  14.368  0.5805 -0.2949  0.0017
 6421TIP3    H140754   0.467   6.349  14.444 -1.1154  3.9428  0.6844
 6421TIP3    H240755   0.334   6.289  14.404  0.4116  0.4528  0.6358
 6422TIP3   OH240756   4.378   0.957  13.220 -0.6981  0.3618  0.0341
 6422TIP3    H140757   4.363   0.872  13.262  0.8093 -0.3580 -0.8353
 6422TIP3    H240758   4.290   0.992  13.205 -1.3030 -0.5058  1.4872
 6423TIP3   OH240759   4.825   2.164  16.879 -0.9983  0.4968  0.0169
 6423TIP3    H140760   4.751   2.222  16.898 -2.2226 -0.6898 -1.0646
 6423TIP3    H240761   4.853   2.188  16.791 -1.5036 -0.5452 -0.4311
 6424TIP3   OH240762   4.497   4.643  13.601 -0.5258  0.9957 -0.0262
 6424TIP3    H140763   4.437   4.590  13.653 -1.4988  2.2315  0.1387
 6424TIP3    H240764   4.511   4.593  13.521  1.6546 -1.3199  1.7453
 6425TIP3   OH240765   6.208   6.810  13.633  0.3576 -0.2669  0.2477
 6425TIP3    H140766   6.122   6.822  13.674  0.1818 -1.7287  0.3431
 6425TIP3    H240767   6.227   6.894  13.592 -1.4068 -0.1175 -0.2999
 6426TIP3   OH240768   6.621   2.733   3.282  0.0007  0.0649 -0.2304
 6426TIP3    H140769   6.632   2.662   3.346  0.9989  2.5822  2.4463
 6426TIP3    H240770   6.709   2.753   3.252  0.2084  2.8180  2.0226
 6427TIP3   OH240771   0.858   1.847  13.190  0.2420 -0.5441  0.3031
 6427TIP3    H140772   0.804   1.923  13.165 -0.0967 -1.2535 -1.1758
 6427TIP3    H240773   0.805   1.799  13.253  0.2414  0.1703  0.8495
 6428TIP3   OH240774   5.798   4.264   0.042 -0.2328  0.1349 -0.5848
 6428TIP3    H140775   5.777   4.229  -0.045 -0.9053 -0.9016 -0.0035
 6428TIP3    H240776   5.794   4.189   0.101 -2.6860  1.3385  0.8457
 6429TIP3   OH240777   0.915   5.535  10.448 -0.7058  0.0232  0.0435
 6429TIP3    H140778   1.009   5.521  10.448 -0.8671 -1.1199  0.8301
 6429TIP3    H240779   0.904   5.622  10.409  0.8105  1.0750  1.8786
 6430TIP3   OH240780   4.171   1.005  13.044  0.1629 -0.6519 -0.0699
 6430TIP3    H140781   4.116   0.928  13.061  0.1530 -1.1278 -2.1345
 6430TIP3    H240782   4.109   1.074  13.022  0.2340 -0.3423  0.6883
 6431TIP3   OH240783   0.581   3.742  14.501  0.4496 -0.0439 -0.0257
 6431TIP3    H140784   0.508   3.687  14.529 -0.1945  0.0882 -1.4264
 6431TIP3    H240785   0.640   3.743  14.576 -1.1388  0.1081  1.2498
 6432TIP3   OH240786   2.193   2.836   4.388 -0.0502  0.9431 -0.1335
 6432TIP3    H140787   2.257   2.784   4.339 -1.0270 -1.2626  0.8477
 6432TIP3    H240788   2.216   2.822   4.480  1.2491  4.3680  0.1312
 6433TIP3   OH240789   0.284   5.214   5.217 -0.1063 -0.1238  0.5810
 6433TIP3    H140790   0.251   5.140   5.268 -1.0169  0.0916  0.3074
 6433TIP3    H240791   0.377   5.220   5.240 -0.3154 -0.5807  1.5373
 6434TIP3   OH240792   0.632   3.587   3.419  0.2951 -0.2144 -0.4063
 6434TIP3    H140793   0.541   3.599   3.393  0.0911  1.8375  1.1154
 6434TIP3    H240794   0.678   3.570   3.337 -1.2771 -0.1386 -1.3200
 6435TIP3   OH240795   5.141   2.936  12.642 -0.4562  0.0868  0.3326
 6435TIP3    H140796   5.232   2.942  12.615 -0.9597  0.7612 -1.2828
 6435TIP3    H240797   5.141   2.958  12.735  0.8888  1.1785  0.0806
 6436TIP3   OH240798   2.719   5.281  12.014 -0.2094 -0.2103  0.2854
 6436TIP3    H140799   2.717   5.343  11.941  0.4857 -0.4795  0.0382
 6436TIP3    H240800   2.689   5.332  12.090  0.0479  0.3398  0.0178
 6437TIP3   OH240801   2.539   2.097   5.851 -0.1859 -0.4301  0.1046
 6437TIP3    H140802   2.576   2.164   5.793 -0.4461 -0.4392 -0.0729
 6437TIP3    H240803   2.567   2.014   5.812 -3.7711 -0.5823 -2.3705
 6438TIP3   OH240804   6.123   3.099  12.897 -0.0133 -0.3804  0.0816
 6438TIP3    H140805   6.078   3.182  12.883  0.5693 -0.0214  0.3283
 6438TIP3    H240806   6.208   3.124  12.933  1.1833 -0.9424 -2.3046
 6439TIP3   OH240807   5.689   6.004   5.674  0.2255 -0.6856 -0.2041
 6439TIP3    H140808   5.710   6.024   5.582 -3.0509 -0.5744 -0.9970
 6439TIP3    H240809   5.735   5.923   5.692  0.3509 -1.0819 -2.1891
 6440TIP3   OH240810   3.666   2.592  14.240  0.3940 -0.4467  0.4127
 6440TIP3    H140811   3.665   2.568  14.333  1.8645 -1.1657  0.2662
 6440TIP3    H240812   3.616   2.673  14.235  1.1772  0.1477  1.9928
 6441TIP3   OH240813   6.163   6.191   2.529  0.1376 -0.0661  0.3391
 6441TIP3    H140814   6.162   6.237   2.613  0.4853 -0.6210  0.6514
 6441TIP3    H240815   6.089   6.131   2.534 -0.1198  0.2247  0.0596
 6442TIP3   OH240816   1.981   4.341  16.489 -0.4900  0.2440 -0.0639
 6442TIP3    H140817   2.068   4.309  16.465  0.6676  1.2323  2.7144
 6442TIP3    H240818   1.949   4.279  16.554 -2.2052 -0.5270 -1.5890
 6443TIP3   OH240819   2.811   3.487   1.736 -0.1165  0.7541  0.0764
 6443TIP3    H140820   2.746   3.460   1.801 -0.9919 -0.2592 -1.1868
 6443TIP3    H240821   2.760   3.497   1.655  1.4726 -1.0212 -1.1726
 6444TIP3   OH240822   4.531   5.863  16.868  0.6088 -0.0388 -0.4294
 6444TIP3    H140823   4.582   5.931  16.914  2.2096  1.1167 -3.7513
 6444TIP3    H240824   4.456   5.910  16.832  2.0387  0.1772 -3.2619
 6445TIP3   OH240825   1.284   4.615  13.600 -0.0057  0.5208 -0.2997
 6445TIP3    H140826   1.369   4.651  13.573 -0.5687  1.2628 -1.1166
 6445TIP3    H240827   1.222   4.648  13.535 -1.0477  0.6111  0.7213
 6446TIP3   OH240828   1.689   3.840   3.373  0.0762 -0.2557 -0.0971
 6446TIP3    H140829   1.614   3.781   3.386 -0.9331  1.1797  0.7695
 6446TIP3    H240830   1.653   3.927   3.388  1.7024  0.5359 -0.7306
 6447TIP3   OH240831   1.199   3.178  10.964  0.1161  0.9634  0.6423
 6447TIP3    H140832   1.238   3.102  10.921 -0.3532 -0.7404  3.1282
 6447TIP3    H240833   1.194   3.244  10.896  1.8779 -0.7554 -1.2108
 6448TIP3   OH240834   1.147   0.783   4.663  0.7451  0.4219 -0.4660
 6448TIP3    H140835   1.164   0.876   4.645  1.5581  0.2554 -0.5775
 6448TIP3    H240836   1.189   0.768   4.747 -0.7371  0.5345  0.3144
 6449TIP3   OH240837   5.332   6.301   0.722  0.1524 -0.7017 -0.3593
 6449TIP3    H140838   5.397   6.296   0.652 -0.3782 -2.4015 -0.7602
 6449TIP3    H240839   5.362   6.236   0.787  1.0815  1.4101  1.3872
 6450TIP3   OH240840   0.339   6.684  11.786  0.3415  0.8679  0.1839
 6450TIP3    H140841   0.252   6.706  11.753 -0.1996 -1.8995 -0.3817
 6450TIP3    H240842   0.390   6.664  11.707  1.3361  1.8706  0.5553
 6451TIP3   OH240843   5.706   1.593  15.426 -0.2626 -0.4130 -0.4315
 6451TIP3    H140844   5.704   1.527  15.356  1.3148 -1.6945  0.6983
 6451TIP3    H240845   5.759   1.664  15.390 -2.9829  0.8340 -2.1202
 6452TIP3   OH240846   6.433   5.048  14.314 -0.0866  0.1336 -0.5569
 6452TIP3    H140847   6.483   5.123  14.282  2.4398  0.0672  2.9784
 6452TIP3    H240848   6.493   4.974  14.308 -0.9416 -0.6663  0.4537
 6453TIP3   OH240849   4.840   2.663  15.561  0.1365 -0.1485 -0.3206
 6453TIP3    H140850   4.836   2.739  15.619 -1.5883 -0.7642  0.4137
 6453TIP3    H240851   4.871   2.592  15.616 -1.2811 -0.6835 -0.1781
 6454TIP3   OH240852   6.641   5.624  13.846  0.3360 -0.0006 -0.7950
 6454TIP3    H140853   6.650   5.718  13.860 -1.0010  0.2007 -1.2443
 6454TIP3    H240854   6.718   5.600  13.793  0.2520  0.9767 -1.3707
 6455TIP3   OH240855   3.991   3.141  11.939 -0.8105 -0.5234  0.9955
 6455TIP3    H140856   4.016   3.048  11.935  1.5631  0.0556  1.5137
 6455TIP3    H240857   3.903   3.140  11.976 -1.1010 -2.6153  0.3419
 6456TIP3   OH240858   4.966   4.859  17.216 -0.2930 -0.0329 -0.3115
 6456TIP3    H140859   4.881   4.867  17.259  0.1516  0.6408  0.4705
 6456TIP3    H240860   4.991   4.948  17.194 -0.1243 -0.3005 -1.1984
 6457TIP3   OH240861   5.361   5.554  13.407  0.1943 -0.1147 -0.7145
 6457TIP3    H140862   5.377   5.614  13.480  2.3821 -1.3297 -0.1510
 6457TIP3    H240863   5.352   5.468  13.448  2.7389 -1.0154 -1.9247
 6458TIP3   OH240864   5.599   0.312  13.620 -0.3563  0.3431 -0.4675
 6458TIP3    H140865   5.669   0.368  13.654 -1.6935  1.0143  1.2925
 6458TIP3    H240866   5.585   0.344  13.531  1.3267  0.4313 -0.7177
 6459TIP3   OH240867   4.032   0.901  16.146  0.0470  0.2468  0.1835
 6459TIP3    H140868   3.964   0.843  16.112  1.6338 -2.5375  1.5270
 6459TIP3    H240869   4.080   0.930  16.068  0.1963 -1.5595 -0.4277
 6460TIP3   OH240870   3.104   0.090  16.380  0.1494 -0.3022 -0.2525
 6460TIP3    H140871   3.073   0.179  16.398 -1.1159 -0.9443  0.8194
 6460TIP3    H240872   3.130   0.092  16.288 -1.3831  0.7532 -0.6835
 6461TIP3   OH240873   4.533   4.306  11.285  0.6792  0.3326 -0.3922
 6461TIP3    H140874   4.452   4.260  11.262 -0.3652  1.2506  1.3245
 6461TIP3    H240875   4.546   4.285  11.378  0.6208  2.8049  0.1950
 6462TIP3   OH240876   0.204   1.278   3.625 -0.1371 -0.7877 -0.2221
 6462TIP3    H140877   0.207   1.261   3.531 -0.0751  1.3342 -0.6393
 6462TIP3    H240878   0.208   1.374   3.632 -0.7209 -0.8903  1.9124
 6463TIP3   OH240879   4.028   3.323  15.039 -0.0381 -0.4585  0.1534
 6463TIP3    H140880   3.994   3.410  15.062 -0.3512 -0.4980 -0.1637
 6463TIP3    H240881   3.967   3.262  15.080  0.4590 -0.5331  0.7903
 6464TIP3   OH240882   5.855   0.844   2.454 -0.3417 -0.5270  0.4907
 6464TIP3    H140883   5.850   0.932   2.415 -0.2959 -0.5204  0.4997
 6464TIP3    H240884   5.782   0.842   2.516 -0.3279 -0.4862  0.5087
 6465TIP3   OH240885   2.493   4.380   1.941 -0.4062  0.2313 -0.5537
 6465TIP3    H140886   2.432   4.417   1.877 -1.1530  0.9808  0.5878
 6465TIP3    H240887   2.438   4.337   2.006  0.3480 -0.4594 -0.3538
 6466TIP3   OH240888   2.501   0.230   6.482  0.4145 -0.2373 -0.3492
 6466TIP3    H140889   2.524   0.237   6.574  0.0196 -0.9230 -0.1928
 6466TIP3    H240890   2.437   0.299   6.468  1.2710  0.5519 -0.3684
 6467TIP3   OH240891   1.375   5.093  16.195  0.3909  0.5098  0.0637
 6467TIP3    H140892   1.364   5.045  16.277 -0.3977  0.7058  0.0797
 6467TIP3    H240893   1.347   5.033  16.127  3.1886 -0.4501 -0.2757
 6468TIP3   OH240894   2.595   6.739  13.348 -0.0191  0.0944  0.0326
 6468TIP3    H140895   2.608   6.796  13.424  1.8378 -0.6805  0.3050
 6468TIP3    H240896   2.679   6.738  13.303 -0.7554 -0.4214 -1.3993
 6469TIP3   OH240897   1.858   5.415  11.716  0.4581 -0.2784  0.1587
 6469TIP3    H140898   1.811   5.487  11.756  0.1300 -1.2784  1.6023
 6469TIP3    H240899   1.808   5.394  11.637  1.1210  1.6998 -0.8136
 6470TIP3   OH240900   4.851   2.778  16.041 -0.1385 -0.1172  0.0172
 6470TIP3    H140901   4.848   2.685  16.063  0.6005  0.0745  0.9573
 6470TIP3    H240902   4.939   2.792  16.007 -0.6124  0.0137 -1.1610
 6471TIP3   OH240903   3.516   4.923   0.417 -0.1197 -0.1643 -0.3152
 6471TIP3    H140904   3.592   4.980   0.428  0.2768 -0.4846 -1.3084
 6471TIP3    H240905   3.477   4.917   0.504  0.0192  1.3661 -0.1479
 6472TIP3   OH240906   3.649   4.284   5.249  0.5976 -0.5905  0.1790
 6472TIP3    H140907   3.660   4.314   5.159  2.5701  0.6649  0.8018
 6472TIP3    H240908   3.713   4.213   5.257  0.6126 -0.5177  0.6753
 6473TIP3   OH240909   4.828   4.568  11.183  1.0289 -0.3831 -0.0861
 6473TIP3    H140910   4.916   4.604  11.194  1.1263 -0.8259  0.6130
 6473TIP3    H240911   4.840   4.494  11.124  0.7689  0.9382 -1.8356
 6474TIP3   OH240912   5.789   4.796  13.373 -0.7373 -0.6812 -0.1841
 6474TIP3    H140913   5.755   4.823  13.288 -0.0995 -0.4569 -0.3666
 6474TIP3    H240914   5.826   4.709  13.357  0.2369 -0.2401 -0.3530
 6475TIP3   OH240915   4.296   4.824  12.670 -0.0240 -0.6235  0.4236
 6475TIP3    H140916   4.347   4.817  12.751  0.6754 -1.4703 -0.0845
 6475TIP3    H240917   4.361   4.815  12.600 -0.6559 -0.1350 -0.2369
 6476TIP3   OH240918   3.067   6.709   0.736  0.8078 -0.1546  0.0608
 6476TIP3    H140919   3.081   6.676   0.648  2.3756  0.6135  0.0044
 6476TIP3    H240920   2.980   6.748   0.733  1.2409  0.7483 -1.4283
 6477TIP3   OH240921   3.593   6.416   2.324 -0.1701  0.0074  0.2903
 6477TIP3    H140922   3.535   6.406   2.248 -0.6991 -0.3372  0.7307
 6477TIP3    H240923   3.656   6.483   2.298 -0.2514 -0.2279 -0.5111
 6478TIP3   OH240924   0.887   0.208   1.451  0.4969  0.0596 -0.1663
 6478TIP3    H140925   0.892   0.300   1.476  0.7468  0.0403 -0.1364
 6478TIP3    H240926   0.892   0.209   1.355  1.2159  0.0406 -0.1375
 6479TIP3   OH240927   0.090   5.226   1.824  0.0666 -0.3424 -0.0521
 6479TIP3    H140928   0.149   5.159   1.859  2.1317  0.7094 -1.4260
 6479TIP3    H240929   0.116   5.307   1.868 -0.5057  0.1069 -0.5280
 6480TIP3   OH240930   0.371   4.393  12.953 -0.0088 -0.0819  0.0542
 6480TIP3    H140931   0.388   4.310  12.997 -1.1588  0.4260  1.4705
 6480TIP3    H240932   0.276   4.402  12.953  0.0861  1.0114 -0.4981
 6481TIP3   OH240933   3.118   5.340   2.898 -0.1636 -0.6127 -0.2669
 6481TIP3    H140934   3.178   5.409   2.868 -0.2822 -0.8701 -1.1140
 6481TIP3    H240935   3.119   5.348   2.994  0.3149  0.1493 -0.3233
 6482TIP3   OH240936   1.440   0.232   1.777  0.5984  0.0137 -0.8309
 6482TIP3    H140937   1.516   0.212   1.722  1.2552 -1.3674  0.5247
 6482TIP3    H240938   1.370   0.179   1.740  0.9035 -0.5009 -0.6884
 6483TIP3   OH240939   1.363   3.255  15.207  0.3475 -0.1851  0.1662
 6483TIP3    H140940   1.379   3.234  15.115  1.9976 -1.7117  0.7514
 6483TIP3    H240941   1.279   3.214  15.227  0.4713 -0.7276 -0.3968
 6484TIP3   OH240942   3.445   0.771   5.057  0.3684  0.1056 -0.2971
 6484TIP3    H140943   3.416   0.680   5.064  0.0682  0.3003  1.1927
 6484TIP3    H240944   3.374   0.821   5.098  0.8528  0.9419 -0.4831
 6485TIP3   OH240945   3.007   2.406   4.258  0.3113 -0.1329 -0.9050
 6485TIP3    H140946   3.017   2.318   4.221  0.8056 -0.5375  0.1719
 6485TIP3    H240947   2.917   2.407   4.292  0.6156 -0.5771 -0.0487
 6486TIP3   OH240948   5.072   5.289  15.937  0.6396  0.5204  0.3742
 6486TIP3    H140949   5.149   5.233  15.924  0.7996  0.4737  1.4494
 6486TIP3    H240950   5.001   5.243  15.894  0.7780 -0.5079  1.2041
 6487TIP3   OH240951   0.854   3.353  15.647 -0.0464  0.0507  0.6491
 6487TIP3    H140952   0.778   3.302  15.674  0.1873  0.0822  1.3989
 6487TIP3    H240953   0.908   3.359  15.727 -0.4803  2.2026  0.8121
 6488TIP3   OH240954   6.532   2.359  11.734  0.2446  0.6919 -0.4998
 6488TIP3    H140955   6.569   2.359  11.646 -0.1701 -1.9990 -0.7037
 6488TIP3    H240956   6.594   2.309  11.786 -0.1294  1.2283  0.4687
 6489TIP3   OH240957   1.025   2.054  12.632  0.6099  0.0085  0.6760
 6489TIP3    H140958   1.047   2.146  12.648  0.7443 -0.0700  0.9372
 6489TIP3    H240959   0.939   2.043  12.672  0.3756  0.1434  0.2236
 6490TIP3   OH240960   6.192   3.413  11.731  0.4024  0.2169  0.4115
 6490TIP3    H140961   6.108   3.368  11.740  0.9818 -1.0227 -0.2430
 6490TIP3    H240962   6.178   3.478  11.662 -0.7360  1.8067  2.0751
 6491TIP3   OH240963   5.572   6.022  11.808  0.3626 -0.1286 -0.7198
 6491TIP3    H140964   5.648   5.987  11.854 -0.8834  1.6237  2.8603
 6491TIP3    H240965   5.510   5.949  11.804  0.2968 -0.1903  0.9142
 6492TIP3   OH240966   4.966   2.473  12.731  0.2171 -0.2770 -0.4324
 6492TIP3    H140967   4.887   2.496  12.683  0.3925  0.2901 -0.4520
 6492TIP3    H240968   4.982   2.381  12.709 -0.9889 -0.6877  0.3513
 6493TIP3   OH240969   4.185   6.341  14.441  0.3951 -0.0381 -0.2677
 6493TIP3    H140970   4.100   6.373  14.412 -0.4715 -1.5161  0.5639
 6493TIP3    H240971   4.189   6.251  14.410  0.7452 -0.6618  1.5098
 6494TIP3   OH240972   1.783   3.066   2.709  0.2355 -0.4993  0.3232
 6494TIP3    H140973   1.689   3.077   2.722  0.1652  0.8048 -1.1701
 6494TIP3    H240974   1.817   3.155   2.703  1.3480 -0.9820 -0.6980
 6495TIP3   OH240975   5.030   0.975  13.245 -0.2448 -0.0242  0.0229
 6495TIP3    H140976   5.031   0.965  13.340 -0.3554  0.7492  0.1149
 6495TIP3    H240977   5.022   0.886  13.211 -0.0372 -0.3193  0.7339
 6496TIP3   OH240978   6.744   1.883  10.472 -0.7367 -0.1358  0.1937
 6496TIP3    H140979   6.829   1.919  10.445 -0.8931 -1.0696 -1.5772
 6496TIP3    H240980   6.714   1.944  10.540  0.3283  1.4726 -0.7200
 6497TIP3   OH240981   6.374   1.832  14.549  0.0790 -0.4505 -0.2308
 6497TIP3    H140982   6.379   1.766  14.480  3.4873  0.0534 -0.5497
 6497TIP3    H240983   6.376   1.783  14.630 -0.9199 -0.8926 -0.4655
 6498TIP3   OH240984   5.828   5.758  17.004  0.0569  0.0936 -0.0762
 6498TIP3    H140985   5.814   5.827  17.069 -1.9698 -0.1933 -0.1700
 6498TIP3    H240986   5.868   5.803  16.929  0.3433  0.8277  0.5109
 6499TIP3   OH240987   0.228   5.716   3.442 -0.1222  0.0761 -0.1023
 6499TIP3    H140988   0.262   5.657   3.375 -0.6242 -0.1212 -0.1923
 6499TIP3    H240989   0.189   5.657   3.507  0.4972  0.2601  0.4396
 6500TIP3   OH240990   4.423   6.024  14.267  0.4063  0.3625 -0.2773
 6500TIP3    H140991   4.487   5.959  14.295 -0.5754 -0.2581  0.5706
 6500TIP3    H240992   4.444   6.040  14.175  0.1737 -1.7782 -0.7421
 6501TIP3   OH240993   5.549   0.292   4.917 -0.4742 -0.6348 -0.2797
 6501TIP3    H140994   5.499   0.218   4.952 -3.5129  0.8222 -1.3656
 6501TIP3    H240995   5.492   0.330   4.850  0.7409  3.0657  0.6588
 6502TIP3   OH240996   0.598   4.142   5.799  0.2813  0.3018 -0.6822
 6502TIP3    H140997   0.532   4.103   5.856  1.0041  0.8702  0.5953
 6502TIP3    H240998   0.579   4.236   5.801  1.8798  0.6371  0.7793
 6503TIP3   OH240999   4.411   2.045  15.220 -0.4983 -0.5254 -0.4988
 6503TIP3    H141000   4.416   1.952  15.196 -1.4199 -0.6467 -0.2353
 6503TIP3    H241001   4.462   2.090  15.153 -0.8102 -1.1305 -1.1466
 6504TIP3   OH241002   1.745   1.301   5.431  0.0831  0.3055  0.2294
 6504TIP3    H141003   1.837   1.318   5.452  0.5078  0.8263 -1.9783
 6504TIP3    H241004   1.729   1.212   5.464  1.8430 -0.4244 -0.8360
 6505TIP3   OH241005   5.412   5.339   2.101  0.2941  0.1534 -0.2546
 6505TIP3    H141006   5.362   5.281   2.158  0.2410  0.2504 -0.2034
 6505TIP3    H241007   5.349   5.404   2.070  0.7083  1.1913  1.0336
 6506TIP3   OH241008   3.656   3.536  12.675 -0.3638  0.6881  0.6165
 6506TIP3    H141009   3.607   3.567  12.598  1.3292  1.6727 -0.0968
 6506TIP3    H241010   3.591   3.530  12.744 -1.8506  0.1613 -0.7968
 6507TIP3   OH241011   4.283   1.807  15.535 -0.7771 -0.9554  0.8481
 6507TIP3    H141012   4.361   1.753  15.546 -0.1432 -0.2640 -0.1817
 6507TIP3    H241013   4.255   1.829  15.625  1.5197  0.6494  1.2090
 6508TIP3   OH241014   2.421   0.786   1.447  0.2396 -0.6270  0.2554
 6508TIP3    H141015   2.473   0.705   1.441 -1.0012 -1.4869  0.8222
 6508TIP3    H241016   2.371   0.789   1.366  1.1926  0.2337 -0.3170
 6509TIP3   OH241017   0.110   4.424  12.885  0.5493  0.4363  0.0390
 6509TIP3    H141018   0.064   4.340  12.881  1.5024  0.0076 -2.4726
 6509TIP3    H241019   0.042   4.488  12.907 -0.3941 -0.8098  0.8121
 6510TIP3   OH241020   4.751   4.925   5.536  0.1327 -0.0240  0.0073
 6510TIP3    H141021   4.720   5.005   5.578 -1.9103 -0.0842 -1.3340
 6510TIP3    H241022   4.770   4.865   5.608  0.3932  1.2032  0.9680
 6511TIP3   OH241023   5.398   0.614  17.113  0.3956  0.2739 -0.0473
 6511TIP3    H141024   5.302   0.618  17.112  0.4892  2.8204 -0.7022
 6511TIP3    H241025   5.424   0.674  17.182  1.5328 -1.0345  0.6971
 6512TIP3   OH241026   4.176   3.567  15.898  0.0726  0.1790 -0.5493
 6512TIP3    H141027   4.118   3.514  15.842 -0.0227  0.4383 -0.6981
 6512TIP3    H241028   4.161   3.535  15.986  1.4229 -1.3602 -0.8490
 6513TIP3   OH241029   6.784   6.317   1.129  0.7089 -0.3982  0.1428
 6513TIP3    H141030   6.734   6.346   1.053 -1.9171 -1.5105  1.3622
 6513TIP3    H241031   6.806   6.226   1.110 -0.3513 -0.8230  0.8547
 6514TIP3   OH241032   4.941   0.001   0.011  0.4482  0.3197  0.2682
 6514TIP3    H141033   4.874   0.017  -0.056  1.8750 -1.5936 -1.6803
 6514TIP3    H241034   4.897  -0.055   0.075 -0.1733  0.0568 -0.3809
 6515TIP3   OH241035   5.753   0.953  12.827 -0.4990  0.1092 -0.1078
 6515TIP3    H141036   5.666   0.914  12.837  0.4178 -1.7965  0.8387
 6515TIP3    H241037   5.776   0.980  12.916 -0.0909  0.5444 -0.3480
 6516TIP3   OH241038   6.260   1.038   1.953 -0.8892 -0.5415  0.1000
 6516TIP3    H141039   6.222   0.971   2.010 -4.4505  1.1668 -0.1563
 6516TIP3    H241040   6.201   1.041   1.878  0.1012  1.8401 -0.6186
 6517TIP3   OH241041   5.931   3.879   0.055 -0.1797 -0.2117 -0.8472
 6517TIP3    H141042   5.883   3.924   0.124 -0.4899 -0.4634 -0.8979
 6517TIP3    H241043   5.881   3.799   0.039  0.4345 -0.6378 -0.6716
 6518TIP3   OH241044   1.955   4.420  13.091  0.0467  0.3366 -0.2486
 6518TIP3    H141045   1.869   4.423  13.048 -0.4758 -0.1466  0.7485
 6518TIP3    H241046   1.951   4.488  13.157  0.9699  1.2981 -1.1603
 6519TIP3   OH241047   0.349   5.907   3.676  0.0866  0.4313  0.5002
 6519TIP3    H141048   0.347   5.836   3.740  1.5849  0.1551  0.2526
 6519TIP3    H241049   0.275   5.888   3.618 -0.7747  0.2206  1.6419
 6520TIP3   OH241050   5.907   2.753   5.864 -0.3623 -0.4291  0.7023
 6520TIP3    H141051   5.818   2.718   5.859 -0.9026  1.0696 -0.4053
 6520TIP3    H241052   5.895   2.847   5.872  1.1445 -0.1009 -0.6461
 6521TIP3   OH241053   1.040   0.337  11.076  0.1346  0.0134 -0.0385
 6521TIP3    H141054   1.093   0.400  11.124  1.3144  0.0866 -1.4059
 6521TIP3    H241055   1.074   0.340  10.987 -1.0176 -1.2214 -0.5379
 6522TIP3   OH241056   2.696   2.519  14.984  0.1134 -0.2709  0.5967
 6522TIP3    H141057   2.743   2.443  15.021  0.9497 -0.0201  0.0673
 6522TIP3    H241058   2.698   2.584  15.054  0.7237 -0.1966  0.5131
 6523TIP3   OH241059   1.401   5.298   5.161  0.1887 -0.2171  0.0635
 6523TIP3    H141060   1.343   5.368   5.192  1.5803  1.1627 -0.3690
 6523TIP3    H241061   1.438   5.261   5.241 -0.1851 -0.1547  0.2719
 6524TIP3   OH241062   6.765   5.283   0.297  0.2073 -0.0016 -0.2181
 6524TIP3    H141063   6.782   5.232   0.376 -1.4713  0.4062  0.4201
 6524TIP3    H241064   6.843   5.338   0.287  0.8111 -0.6733  0.6482
 6525TIP3   OH241065   3.128   0.606  16.255  0.2136 -0.2569 -0.5354
 6525TIP3    H141066   3.035   0.588  16.256  0.0334  0.5966 -1.0795
 6525TIP3    H241067   3.136   0.695  16.289  0.6221  0.4588 -2.4172
 6526TIP3   OH241068   3.363   4.565   5.543 -0.2387 -0.3166  0.0880
 6526TIP3    H141069   3.286   4.509   5.539  0.1555 -0.9180  0.7193
 6526TIP3    H241070   3.429   4.511   5.587  0.2131  0.5603  0.4950
 6527TIP3   OH241071   2.690   0.208   0.777 -0.1579 -0.6929  0.5537
 6527TIP3    H141072   2.622   0.141   0.787 -2.0907  1.2476  0.8159
 6527TIP3    H241073   2.665   0.256   0.698  1.1426 -0.2068  0.4329
 6528TIP3   OH241074   4.741   6.389   3.546  0.4502 -0.1477  0.0168
 6528TIP3    H141075   4.833   6.384   3.519  0.0406 -2.0793 -1.0669
 6528TIP3    H241076   4.703   6.307   3.517 -1.5995  0.5719  0.6093
 6529TIP3   OH241077   6.177   3.013   4.067 -0.2067  0.3228  0.3774
 6529TIP3    H141078   6.119   2.960   4.121 -1.1038  0.3843 -0.5058
 6529TIP3    H241079   6.162   2.982   3.977  0.4334  0.9755  0.0351
 6530TIP3   OH241080   3.349   0.864  15.894  0.5194 -0.2646 -0.2570
 6530TIP3    H141081   3.356   0.789  15.953 -1.3159 -0.1311  0.1718
 6530TIP3    H241082   3.332   0.825  15.808 -0.3203 -0.3681 -0.0545
 6531TIP3   OH241083   3.712   3.288  12.974  1.0763 -0.4545  0.0487
 6531TIP3    H141084   3.755   3.202  12.980  1.8021 -0.0279  1.1184
 6531TIP3    H241085   3.780   3.346  12.941  0.4062 -0.4041 -1.2615
 6532TIP3   OH241086   2.587   6.447   5.928  1.0063 -0.4345 -0.3028
 6532TIP3    H141087   2.632   6.363   5.926  0.9793 -0.5096  1.4706
 6532TIP3    H241088   2.656   6.512   5.915  0.6588 -0.7829 -4.5849
 6533TIP3   OH241089   0.883   5.511   5.446  0.4357  0.1325 -0.1864
 6533TIP3    H141090   0.857   5.487   5.535 -0.1148 -2.2793 -0.9599
 6533TIP3    H241091   0.884   5.607   5.446 -0.1978  0.1649  2.2182
 6534TIP3   OH241092   2.342   3.517  14.711  0.2107  0.1952  0.1322
 6534TIP3    H141093   2.255   3.539  14.677 -0.1312 -1.1602  0.0944
 6534TIP3    H241094   2.357   3.580  14.781 -0.7613  0.5120  0.0682
 6535TIP3   OH241095   3.270   4.157  13.280 -0.5690 -0.3887  0.6654
 6535TIP3    H141096   3.338   4.117  13.335  0.0228 -0.3396 -0.0155
 6535TIP3    H241097   3.301   4.142  13.190  1.1833  4.0991  0.3982
 6536TIP3   OH241098   5.270   2.506   4.523  0.2118 -0.3426 -0.8505
 6536TIP3    H141099   5.220   2.572   4.571 -0.6589 -1.5810 -0.0302
 6536TIP3    H241100   5.212   2.479   4.453  1.3279  1.1655 -2.4054
 6537TIP3   OH241101   1.687   3.381   6.398  0.0273 -0.0347  0.0153
 6537TIP3    H141102   1.649   3.294   6.400  1.3468 -0.6124  0.0923
 6537TIP3    H241103   1.780   3.368   6.416  0.0339  1.5021  1.2907
 6538TIP3   OH241104   2.492   3.227   5.744 -0.0834 -1.0239 -0.2460
 6538TIP3    H141105   2.411   3.277   5.745 -0.4085 -1.5716  0.9870
 6538TIP3    H241106   2.467   3.141   5.710  0.2814 -0.7133 -1.3445
 6539TIP3   OH241107   0.123   4.615   6.626  0.1117  0.0451 -0.7687
 6539TIP3    H141108   0.169   4.547   6.674 -2.0581  0.1050  1.4673
 6539TIP3    H241109   0.187   4.686   6.617  1.0401 -0.6153  0.6092
 6540TIP3   OH241110   6.339   3.705   5.727 -0.1267  0.4737  0.0812
 6540TIP3    H141111   6.299   3.772   5.784 -0.1879 -0.1219  0.7528
 6540TIP3    H241112   6.412   3.671   5.779 -0.3524 -0.2678 -0.0886
 6541TIP3   OH241113   0.735   3.985   5.600  0.7683 -0.3913  0.7936
 6541TIP3    H141114   0.693   4.022   5.678  1.2346 -0.5542  1.1272
 6541TIP3    H241115   0.757   4.061   5.546 -0.7877 -0.3628  0.1838
 6542TIP3   OH241116   6.087   0.163   2.745 -0.3642 -0.7751  0.1276
 6542TIP3    H141117   6.016   0.221   2.774 -0.5446 -0.1786 -1.4376
 6542TIP3    H241118   6.089   0.093   2.810 -1.3428  0.0435  1.0609
 6543TIP3   OH241119   1.862   0.400   3.030  0.1297 -0.5666 -0.0120
 6543TIP3    H141120   1.816   0.344   3.093 -1.4083  0.7044  0.0228
 6543TIP3    H241121   1.911   0.462   3.085  0.2758 -0.6375 -0.0617
 6544TIP3   OH241122   6.325   2.506   3.065 -1.1515 -0.0963 -0.0126
 6544TIP3    H141123   6.353   2.419   3.094  1.5183  0.9944  0.8193
 6544TIP3    H241124   6.368   2.518   2.980 -1.6563  0.3495 -0.2059
 6545TIP3   OH241125   3.003   3.264  10.999 -0.2756  0.6554 -0.1954
 6545TIP3    H141126   2.936   3.197  10.995  0.0266  0.3555 -0.2105
 6545TIP3    H241127   3.085   3.216  11.009 -0.2944  1.0894  2.5401
 6546TIP3   OH241128   5.603   5.967  14.935  0.2512 -0.2846 -0.2957
 6546TIP3    H141129   5.654   6.021  14.996  0.9716 -0.1762 -0.9760
 6546TIP3    H241130   5.669   5.934  14.873 -0.5181 -0.1297 -1.1982
 6547TIP3   OH241131   1.122   1.963   1.387 -0.0846 -0.3448  0.0222
 6547TIP3    H141132   1.034   1.953   1.351 -0.0403  1.6786 -0.6825
 6547TIP3    H241133   1.125   1.902   1.461 -2.2270 -0.0366  0.3767
 6548TIP3   OH241134   4.014   5.347  13.702 -0.3968 -0.0572 -0.2732
 6548TIP3    H141135   4.069   5.287  13.650 -1.5881 -0.1406 -1.4691
 6548TIP3    H241136   3.968   5.290  13.764 -0.0981 -0.1435 -0.1296
 6549TIP3   OH241137   2.145   6.375   5.372  0.5029 -0.2743  0.4100
 6549TIP3    H141138   2.060   6.389   5.331  0.6757  2.1192  0.8023
 6549TIP3    H241139   2.125   6.345   5.460  0.0142  2.3248  1.2080
 6550TIP3   OH241140   1.984   5.692  15.757 -0.3610 -0.1490 -0.5314
 6550TIP3    H141141   2.053   5.751  15.787  0.5201 -0.5162 -1.8395
 6550TIP3    H241142   1.988   5.618  15.817 -0.6117  0.5052  0.3103
 6551TIP3   OH241143   4.356   5.284  14.038  0.2474  0.2127  0.0845
 6551TIP3    H141144   4.404   5.346  14.093  0.5441 -0.5447  0.6794
 6551TIP3    H241145   4.281   5.334  14.005  0.3193  0.7966  0.8022
 6552TIP3   OH241146   4.951   1.049   3.288 -0.6778 -0.2011 -0.0796
 6552TIP3    H141147   5.031   1.010   3.252 -1.9988 -0.7979 -2.4486
 6552TIP3    H241148   4.979   1.088   3.371  1.3806 -3.2846  0.7697
 6553TIP3   OH241149   1.436   0.936  10.923  0.1385 -0.3875  0.0175
 6553TIP3    H141150   1.399   0.857  10.962  0.7606  0.1538  1.7838
 6553TIP3    H241151   1.530   0.930  10.941  0.4408 -0.1284 -1.4341
 6554TIP3   OH241152   5.510   1.771  12.872 -0.4589 -0.5565 -0.3487
 6554TIP3    H141153   5.510   1.715  12.949  0.7930  1.3708  1.0950
 6554TIP3    H241154   5.594   1.753  12.829  0.9568  1.7979  1.3449
 6555TIP3   OH241155   1.144   1.847  12.847  0.2511  0.0461  0.0461
 6555TIP3    H141156   1.054   1.821  12.869  0.0004  2.0888  1.5529
 6555TIP3    H241157   1.134   1.903  12.770  0.1257  1.0701  0.8013
 6556TIP3   OH241158   3.790   6.219  11.827 -0.0880  0.0286  0.1905
 6556TIP3    H141159   3.758   6.299  11.868 -0.4817 -0.8220  1.5842
 6556TIP3    H241160   3.824   6.247  11.742 -0.8223  1.5630  0.3914
 6557TIP3   OH241161   6.606   2.137   2.927 -0.6437 -0.2409  0.1585
 6557TIP3    H141162   6.543   2.070   2.954 -1.1544  0.3727  0.4969
 6557TIP3    H241163   6.552   2.209   2.893 -0.0830 -0.2098 -0.6916
 6558TIP3   OH241164   5.803   3.195   3.482 -0.1118 -0.7548 -0.1147
 6558TIP3    H141165   5.754   3.116   3.461 -1.9808  0.6411 -1.1632
 6558TIP3    H241166   5.894   3.174   3.458 -0.6173 -2.4789 -0.6068
 6559TIP3   OH241167   2.004   5.959   0.419  0.0042  0.5097  0.0993
 6559TIP3    H141168   2.074   6.024   0.418 -0.4107  0.9738  1.0177
 6559TIP3    H241169   1.969   5.962   0.508 -0.7169 -0.2211 -0.1516
 6560TIP3   OH241170   6.438   1.021  14.160 -0.0085 -0.6695 -0.1822
 6560TIP3    H141171   6.377   0.981  14.099  0.5167 -0.2471 -0.9838
 6560TIP3    H241172   6.387   1.090  14.203 -0.2766 -0.7334 -0.3975
 6561TIP3   OH241173   5.377   5.269   4.807 -0.1383 -0.3003  0.3529
 6561TIP3    H141174   5.417   5.350   4.839 -1.8321  0.3332  0.9071
 6561TIP3    H241175   5.418   5.199   4.859 -1.3714  0.5419  2.5468
 6562TIP3   OH241176   3.860   6.571  12.155 -0.4677 -0.0528 -0.4339
 6562TIP3    H141177   3.807   6.521  12.217  0.2326 -1.4942 -0.9978
 6562TIP3    H241178   3.950   6.548  12.177 -0.1375  0.9894 -0.6782
 6563TIP3   OH241179   3.650   0.816  15.137 -0.5000 -0.0097 -0.4015
 6563TIP3    H141180   3.702   0.789  15.213 -0.9216 -1.2756 -0.5468
 6563TIP3    H241181   3.629   0.907  15.154 -1.7889 -0.6493  1.7357
 6564TIP3   OH241182   2.463   3.286   3.594 -0.5452  0.1072 -0.1596
 6564TIP3    H141183   2.554   3.315   3.596  0.0628 -1.7284 -0.7093
 6564TIP3    H241184   2.464   3.206   3.542 -2.3560 -0.3467  0.4723
 6565TIP3   OH241185   0.337   6.382  14.110 -0.0296 -0.3037  0.6857
 6565TIP3    H141186   0.373   6.354  14.194 -1.3118  0.4649  1.4963
 6565TIP3    H241187   0.284   6.459  14.131  2.4168  2.0486 -1.3174
 6566TIP3   OH241188   0.423   5.076   4.981 -0.0819 -0.3355 -0.4831
 6566TIP3    H141189   0.347   5.101   5.032 -0.4259 -0.4056 -0.9622
 6566TIP3    H241190   0.476   5.023   5.041 -0.2662 -0.0374 -0.0625
 6567TIP3   OH241191   5.864   5.860  14.775 -0.2934  0.1759 -0.0118
 6567TIP3    H141192   5.873   5.821  14.862 -1.0475  1.8160  0.8256
 6567TIP3    H241193   5.954   5.865  14.742 -0.0226 -0.6502  0.5796
 6568TIP3   OH241194   4.347   3.018  12.697 -0.1025  0.4499  0.4878
 6568TIP3    H141195   4.384   3.077  12.631  0.6165  0.0037  0.4777
 6568TIP3    H241196   4.424   2.986  12.745 -0.3499 -1.5525 -0.4097
 6569TIP3   OH241197   0.907   6.243   5.191 -0.4299 -0.3193  0.0100
 6569TIP3    H141198   1.001   6.259   5.199 -0.5309  0.0581  0.3978
 6569TIP3    H241199   0.868   6.287   5.266 -1.0729  0.8164 -0.9713
 6570TIP3   OH241200   1.881   3.984  15.617 -0.8145  0.0090 -0.0618
 6570TIP3    H141201   1.817   3.952  15.553 -1.1452 -0.2994  0.4271
 6570TIP3    H241202   1.831   4.039  15.676 -0.6312 -0.2646  0.3472
 6571TIP3   OH241203   6.517   1.617   0.670 -0.3492  0.0661 -0.1510
 6571TIP3    H141204   6.505   1.592   0.762  0.3564 -2.9770 -0.8160
 6571TIP3    H241205   6.612   1.610   0.656 -0.6641 -1.5167 -1.6327
 6572TIP3   OH241206   5.661   4.343  16.620 -0.0732 -0.3476 -0.1135
 6572TIP3    H141207   5.701   4.429  16.614  1.2438 -1.0112 -0.8637
 6572TIP3    H241208   5.592   4.354  16.686 -0.8647  1.6291 -1.2187
 6573TIP3   OH241209   4.204   5.813   1.909  0.0454 -0.0982  0.8317
 6573TIP3    H141210   4.232   5.864   1.834 -1.1326  0.0236  0.4662
 6573TIP3    H241211   4.147   5.745   1.872 -0.7947  0.1553  1.6432
 6574TIP3   OH241212   1.867   2.927   3.800 -0.6407 -0.0302  0.3987
 6574TIP3    H141213   1.798   2.974   3.754  0.9022  1.5585 -0.3334
 6574TIP3    H241214   1.839   2.835   3.797 -0.1174 -0.1802 -4.7120
 6575TIP3   OH241215   4.073   1.275  15.964  0.8717 -0.5573 -0.3955
 6575TIP3    H141216   3.981   1.274  15.936  0.6116  0.7198  0.3885
 6575TIP3    H241217   4.122   1.255  15.884 -0.1444 -2.6896 -0.5265
 6576TIP3   OH241218   6.563   0.301   0.379  0.2919 -0.0612  0.3658
 6576TIP3    H141219   6.623   0.288   0.305  0.5670 -0.3749  0.6395
 6576TIP3    H241220   6.500   0.366   0.348 -0.6280 -1.4430 -0.7613
 6577TIP3   OH241221   0.607   6.799  16.045 -0.0686  0.1857 -0.2508
 6577TIP3    H141222   0.573   6.875  15.998  1.0826  0.8771  0.0231
 6577TIP3    H241223   0.544   6.729  16.026 -2.2855  1.7078  1.1719
 6578TIP3   OH241224   0.129   0.728   0.904  0.8192 -0.5406 -0.4646
 6578TIP3    H141225   0.037   0.747   0.922  1.3828  2.7388 -0.6731
 6578TIP3    H241226   0.160   0.684   0.983 -0.8369 -1.4526 -0.2889
 6579TIP3   OH241227   4.084   2.207  12.819  0.7163 -0.4012  0.8058
 6579TIP3    H141228   4.165   2.190  12.772  0.0042 -1.8244  0.0664
 6579TIP3    H241229   4.104   2.185  12.910  1.0038 -1.2946  0.5361
 6580TIP3   OH241230   6.308   5.031   5.246  0.5793 -0.0783  0.3829
 6580TIP3    H141231   6.321   5.112   5.197  2.6947  0.1492  1.2606
 6580TIP3    H241232   6.288   5.060   5.336  1.7566 -0.5195  0.7929
 6581TIP3   OH241233   2.062   0.510  16.174  0.2238  0.2467 -0.5662
 6581TIP3    H141234   2.001   0.548  16.237 -0.4176 -1.4713 -0.1125
 6581TIP3    H241235   2.050   0.415  16.183  3.0052 -0.1269 -0.4428
 6582TIP3   OH241236   1.186   6.380  11.439 -0.8100 -0.4132 -0.0341
 6582TIP3    H141237   1.274   6.397  11.407 -0.5208  1.0247  1.4807
 6582TIP3    H241238   1.187   6.289  11.467 -0.3036 -0.9015 -1.5644
 6583TIP3   OH241239   1.711   3.034  15.177  0.2287  0.3879 -0.0286
 6583TIP3    H141240   1.617   3.019  15.189  0.3371  0.0654  0.4425
 6583TIP3    H241241   1.727   3.016  15.084 -0.3892  1.5936 -0.3819
 6584TIP3   OH241242   2.281   2.154  16.732 -0.3212  0.2715 -0.5036
 6584TIP3    H141243   2.358   2.104  16.706  0.2221  0.9936 -0.2824
 6584TIP3    H241244   2.207   2.103  16.699  0.2211 -0.8100 -0.0333
 6585TIP3   OH241245   5.962   5.954   5.515 -0.1097 -0.6078  0.1375
 6585TIP3    H141246   6.010   6.025   5.559 -0.8073  0.0135 -0.0869
 6585TIP3    H241247   5.976   5.971   5.421  0.8862 -1.5837  0.1069
 6586TIP3   OH241248   0.625   6.710  15.734 -0.4348 -0.4151 -0.6564
 6586TIP3    H141249   0.699   6.703  15.674 -0.0572 -0.2962 -0.2073
 6586TIP3    H241250   0.657   6.764  15.806 -0.5202 -1.5197  0.2155
 6587TIP3   OH241251   3.500   1.348  12.489  0.0143  0.0256 -0.4308
 6587TIP3    H141252   3.569   1.377  12.548 -1.0684 -0.5232  1.1299
 6587TIP3    H241253   3.535   1.268  12.450 -0.0219 -0.6724  0.9330
 6588TIP3   OH241254   6.726   1.754  12.971 -0.1238 -0.0963  0.1760
 6588TIP3    H141255   6.771   1.670  12.964  0.6960  0.0557  3.0351
 6588TIP3    H241256   6.633   1.732  12.976  0.1317 -0.8866  1.6162
 6589TIP3   OH241257   3.009   0.259  13.857 -0.4805 -0.4748 -0.1160
 6589TIP3    H141258   3.059   0.209  13.793  1.0544  0.7641  0.0832
 6589TIP3    H241259   3.066   0.333  13.879 -1.5153 -0.2045  1.7272
 6590TIP3   OH241260   6.116   6.627  14.027  0.1912 -0.2018 -0.4924
 6590TIP3    H141261   6.077   6.622  13.940 -0.1486  0.1893 -0.3651
 6590TIP3    H241262   6.137   6.720  14.038  0.8928 -0.3671 -0.4449
 6591TIP3   OH241263   5.978   5.672   1.494  0.6702 -0.3365 -0.0547
 6591TIP3    H141264   6.064   5.631   1.500  1.5003  1.2721 -0.8068
 6591TIP3    H241265   5.938   5.632   1.417  1.1834 -0.2553 -0.3622
 6592TIP3   OH241266   5.773   2.440   5.620 -0.1885  0.5643 -0.0831
 6592TIP3    H141267   5.767   2.518   5.564  0.7038 -0.4596 -1.6304
 6592TIP3    H241268   5.840   2.462   5.684  0.1409  1.0444 -0.5865
 6593TIP3   OH241269   4.426   0.970  13.551 -0.5872  0.0356 -0.0102
 6593TIP3    H141270   4.436   0.926  13.635  0.9271 -1.1224 -0.7588
 6593TIP3    H241271   4.377   0.907  13.497 -0.7371  0.3794 -0.2713
 6594TIP3   OH241272   5.392   2.592  15.280 -0.0734 -0.2932  0.1264
 6594TIP3    H141273   5.337   2.605  15.202 -1.1752 -0.2372  0.8913
 6594TIP3    H241274   5.420   2.501  15.275 -1.0431 -0.6111  0.2097
 6595TIP3   OH241275   1.517   5.389  11.060  0.6106 -0.5634  0.3961
 6595TIP3    H141276   1.443   5.336  11.090  1.9016 -2.3614  0.5213
 6595TIP3    H241277   1.491   5.421  10.974 -1.0951  0.4497  1.2791
 6596TIP3   OH241278   4.050   1.485   3.513 -0.0667 -0.5225 -0.7252
 6596TIP3    H141279   4.014   1.559   3.562  1.2643  0.5999 -1.4071
 6596TIP3    H241280   4.006   1.488   3.428 -0.9323 -1.2866 -0.3143
 6597TIP3   OH241281   5.540   2.035  13.985  0.4747 -0.1487 -0.0333
 6597TIP3    H141282   5.542   2.018  13.890  0.9924 -0.8287  0.0931
 6597TIP3    H241283   5.462   2.089  13.998 -1.2132 -2.4008 -0.4872
 6598TIP3   OH241284   5.978   6.102  11.965 -0.0943 -0.3681  0.5276
 6598TIP3    H141285   6.058   6.052  11.950 -0.1687 -0.6769  1.1522
 6598TIP3    H241286   6.006   6.193  11.966  0.6292 -0.5947  3.1451
 6599TIP3   OH241287   1.198   2.286  16.075  0.0500 -0.0865  0.5478
 6599TIP3    H141288   1.146   2.344  16.020  1.2142 -0.1290 -0.6437
 6599TIP3    H241289   1.284   2.328  16.080  0.7972 -1.4848 -0.0144
 6600TIP3   OH241290   0.185   4.664   1.817 -0.0388 -0.0331  0.6346
 6600TIP3    H141291   0.108   4.709   1.781 -0.1608 -0.3749  0.4568
 6600TIP3    H241292   0.204   4.595   1.753  1.7816  1.4372 -0.4712
 6601TIP3   OH241293   3.274   4.908  13.191  0.6524 -0.0218  0.1470
 6601TIP3    H141294   3.239   4.887  13.278 -1.7075 -1.3335 -1.0661
 6601TIP3    H241295   3.196   4.922  13.137  2.0112 -2.6304 -2.5971
 6602TIP3   OH241296   6.043   5.648   1.022  0.1103  0.2191 -0.1318
 6602TIP3    H141297   6.031   5.562   0.983  0.5217 -0.0380  0.3022
 6602TIP3    H241298   6.016   5.710   0.953 -0.8500 -0.2627 -0.1968
 6603TIP3   OH241299   6.381   2.175   4.358  0.0396 -0.3323 -0.2257
 6603TIP3    H141300   6.473   2.170   4.336  0.0225 -0.2219 -0.3206
 6603TIP3    H241301   6.378   2.159   4.453  0.2596  0.6731 -0.0367
 6604TIP3   OH241302   5.795   2.909   6.666 -0.1196 -0.4489 -0.1080
 6604TIP3    H141303   5.856   2.890   6.737  2.0167 -1.5376 -2.1700
 6604TIP3    H241304   5.816   2.998   6.639 -0.4909 -0.2746  0.1643
 6605TIP3   OH241305   1.602   6.147   6.038  0.2650  0.0525 -0.4624
 6605TIP3    H141306   1.549   6.116   6.111  1.0317  1.0040  0.5124
 6605TIP3    H241307   1.558   6.113   5.960 -0.2034 -1.4918  0.4610
 6606TIP3   OH241308   3.740   5.856   0.973 -0.0374 -0.0057  0.5036
 6606TIP3    H141309   3.710   5.857   0.882  0.0393 -1.0079  0.4648
 6606TIP3    H241310   3.819   5.910   0.973 -0.1904  0.2207  0.0284
 6607TIP3   OH241311   0.197   2.586  16.358  0.4064  0.0656  0.1343
 6607TIP3    H141312   0.147   2.565  16.279  1.3058  0.0498 -0.4386
 6607TIP3    H241313   0.198   2.681  16.361  0.3956  0.0668  0.1082
 6608TIP3   OH241314   0.782   2.728   3.389 -0.7444 -0.3465 -0.1654
 6608TIP3    H141315   0.800   2.638   3.413 -0.4426 -0.3252 -0.3180
 6608TIP3    H241316   0.863   2.760   3.351 -1.0235 -0.1845 -0.6311
 6609TIP3   OH241317   2.662   5.918  14.380  0.6923 -0.2132 -0.5483
 6609TIP3    H141318   2.747   5.904  14.423 -0.5315  0.7926  2.3191
 6609TIP3    H241319   2.650   6.012  14.380  0.2940 -0.2507 -2.4510
 6610TIP3   OH241320   1.211   6.352  15.186  0.1334 -0.4309  0.7535
 6610TIP3    H141321   1.148   6.334  15.116  0.9398 -2.0906  0.4448
 6610TIP3    H241322   1.188   6.441  15.216 -0.0352  0.4328 -1.8018
 6611TIP3   OH241323   5.878   6.054  16.492  0.0298 -0.2081  0.4061
 6611TIP3    H141324   5.821   6.097  16.428 -1.4580 -2.0968  0.3979
 6611TIP3    H241325   5.946   6.012  16.440 -0.4427 -0.6664  0.1586
 6612TIP3   OH241326   5.387   1.342   5.190  0.0846 -0.2043  0.1730
 6612TIP3    H141327   5.480   1.351   5.213 -0.3363 -1.0070  2.3567
 6612TIP3    H241328   5.347   1.423   5.222  0.1163  0.4128 -1.3218
 6613TIP3   OH241329   5.437   5.918  16.230  0.0341  0.3123  0.3260
 6613TIP3    H141330   5.482   5.933  16.314 -1.3127  0.0906  1.0930
 6613TIP3    H241331   5.344   5.930  16.250 -0.4396 -1.5203 -0.7393
 6614TIP3   OH241332   2.523   2.690   1.502  1.0966  0.2827  0.7376
 6614TIP3    H141333   2.454   2.755   1.514  0.4245 -0.0668 -1.1364
 6614TIP3    H241334   2.572   2.692   1.585 -0.4313  1.3655  1.6455
 6615TIP3   OH241335   0.034   4.543   3.451  0.2519  0.0841 -0.0232
 6615TIP3    H141336   0.042   4.554   3.357  0.3656  0.5980  0.0413
 6615TIP3    H241337  -0.043   4.594   3.475 -0.7166 -1.3413 -0.0480
 6616TIP3   OH241338   6.780   0.917   3.849  0.5357  0.2468  0.3542
 6616TIP3    H141339   6.803   0.977   3.920  0.2406 -0.4409  1.0315
 6616TIP3    H241340   6.751   0.975   3.778 -1.3542  0.8433  1.5867
 6617TIP3   OH241341   3.724   0.399  12.218  0.2036 -0.2446 -0.1337
 6617TIP3    H141342   3.785   0.463  12.254 -0.9212  1.2260 -0.7860
 6617TIP3    H241343   3.653   0.393  12.282 -0.2694  0.0559 -0.6172
 6618TIP3   OH241344   4.092   1.533   5.583  0.4430  0.0898  0.4236
 6618TIP3    H141345   4.154   1.548   5.511 -0.0693  0.0978 -0.0243
 6618TIP3    H241346   4.041   1.458   5.554  0.2279  0.1007  0.7797
 6619TIP3   OH241347   4.062   0.051  15.619  0.0127  0.4634  0.0220
 6619TIP3    H141348   4.020  -0.006  15.554 -1.2826  1.3975  0.0253
 6619TIP3    H241349   4.072   0.135  15.575 -0.9393  1.1275  1.0358
 6620TIP3   OH241350   6.626   0.168  11.185  0.1704 -0.1234  0.2754
 6620TIP3    H141351   6.718   0.173  11.214  1.3594 -0.0513 -3.2971
 6620TIP3    H241352   6.585   0.245  11.223  2.1582  1.0854  0.0678
 6621TIP3   OH241353   5.664   1.081  14.294  0.3283 -0.6832  0.1996
 6621TIP3    H141354   5.669   1.165  14.249 -0.7287 -0.5518  0.2956
 6621TIP3    H241355   5.745   1.074  14.343  1.9204 -1.2485 -2.4392
 6622TIP3   OH241356   6.001   4.987   1.398 -0.4002 -0.0141  0.4113
 6622TIP3    H141357   6.022   4.895   1.379 -2.4384 -0.6574  1.1387
 6622TIP3    H241358   6.022   4.997   1.491 -0.6827  0.0989  0.4639
 6623TIP3   OH241359   3.732   3.925   1.617 -0.3505 -0.2143  0.1284
 6623TIP3    H141360   3.811   3.914   1.669 -0.1648  0.8179  0.0766
 6623TIP3    H241361   3.716   3.839   1.579  1.2231 -0.2301 -0.5260
 6624TIP3   OH241362   0.873   4.284  11.016 -0.5778  0.3992 -0.3851
 6624TIP3    H141363   0.953   4.300  10.965  0.6736  2.1585  2.0768
 6624TIP3    H241364   0.836   4.205  10.976  2.1780 -0.2450 -1.8171
 6625TIP3   OH241365   0.722   3.510  11.713  0.0935  0.3229 -0.4060
 6625TIP3    H141366   0.763   3.593  11.739  0.4080  0.2137 -0.5642
 6625TIP3    H241367   0.783   3.471  11.651  0.4362 -0.5161  0.4463
 6626TIP3   OH241368   5.754   4.879   0.805  0.1968 -0.3651 -0.1888
 6626TIP3    H141369   5.678   4.928   0.773  1.1281  0.2086 -1.6233
 6626TIP3    H241370   5.734   4.788   0.784 -1.4177 -0.6033  2.2194
 6627TIP3   OH241371   0.935   0.356   0.402 -0.1688  0.1433  0.2453
 6627TIP3    H141372   0.999   0.288   0.424  1.1646  0.4927 -2.4061
 6627TIP3    H241373   0.854   0.308   0.384 -0.3290 -0.4013  2.2980
 6628TIP3   OH241374   3.328   6.386   0.638 -0.6049 -0.2176  0.4778
 6628TIP3    H141375   3.320   6.320   0.707 -0.6608  0.6842  1.3446
 6628TIP3    H241376   3.245   6.382   0.592 -0.5762 -0.8108  0.4628
 6629TIP3   OH241377   2.361   3.420   2.079 -0.0845  0.2729  0.1934
 6629TIP3    H141378   2.360   3.326   2.099  0.8777  0.3570  0.6562
 6629TIP3    H241379   2.415   3.427   2.001 -0.4005  0.4099 -0.0119
 6630TIP3   OH241380   1.582   3.794   0.662  0.4140  0.0318 -0.3569
 6630TIP3    H141381   1.588   3.878   0.616 -0.6080 -0.2188 -0.9484
 6630TIP3    H241382   1.521   3.742   0.610 -1.1342 -0.0926  1.5174
 6631TIP3   OH241383   6.458   2.156   4.610 -0.2467 -0.1929 -0.6425
 6631TIP3    H141384   6.420   2.089   4.667 -0.7342 -1.2781 -2.2021
 6631TIP3    H241385   6.540   2.117   4.579  0.0864  0.4520 -0.5807
 6632TIP3   OH241386   5.838   5.050  13.080  0.5086 -0.0599  0.2201
 6632TIP3    H141387   5.835   5.090  13.167  2.2161 -0.6355  0.5555
 6632TIP3    H241388   5.862   4.959  13.097 -2.3886 -1.0434 -0.6122
 6633TIP3   OH241389   5.050   4.217   1.185 -0.2103  0.6669  0.5817
 6633TIP3    H141390   5.016   4.278   1.250 -0.7333 -0.5227  1.4350
 6633TIP3    H241391   5.050   4.267   1.103 -0.4050  1.8753  1.3068
 6634TIP3   OH241392   4.665   6.068   1.725  0.4296 -0.1821 -0.1593
 6634TIP3    H141393   4.725   6.136   1.692  0.4374  0.4106  1.0449
 6634TIP3    H241394   4.680   6.067   1.820 -2.2449  0.7618  0.3293
 6635TIP3   OH241395   3.821   5.164   2.085  0.0896 -0.4203  0.0547
 6635TIP3    H141396   3.830   5.212   2.167 -1.3755  0.3718 -0.2200
 6635TIP3    H241397   3.910   5.140   2.060  0.6050 -0.0053  1.4808
 6636TIP3   OH241398   0.661   6.768  13.262  0.2537 -0.0067  0.7979
 6636TIP3    H141399   0.715   6.705  13.215  0.8975  0.0577  1.4514
 6636TIP3    H241400   0.602   6.715  13.315 -0.4092 -0.0779  0.0035
 6637TIP3   OH241401   5.514   6.591   1.742  0.1162 -0.4523  0.8229
 6637TIP3    H141402   5.601   6.599   1.780  0.7354 -1.5535 -0.3094
 6637TIP3    H241403   5.529   6.556   1.654 -1.2198  2.9479 -0.8372
 6638TIP3   OH241404   6.402   5.936   2.736  0.0780  0.3697  0.0900
 6638TIP3    H141405   6.408   5.959   2.643 -1.0309  0.5141  0.0477
 6638TIP3    H241406   6.336   5.994   2.771 -0.0529 -0.2081  0.8076
 6639TIP3   OH241407   1.451   6.113  13.448  0.5383  0.2374  0.1204
 6639TIP3    H141408   1.380   6.177  13.457  0.3770 -0.0369  0.8592
 6639TIP3    H241409   1.420   6.050  13.383  0.1494  0.1779  0.3619
 6640TIP3   OH241410   5.747   3.871  15.134 -0.3863  0.1236 -0.4255
 6640TIP3    H141411   5.724   3.889  15.225 -0.5310 -0.1667 -0.4029
 6640TIP3    H241412   5.663   3.857  15.091 -0.3576  0.9708 -0.7589
 6641TIP3   OH241413   5.589   3.717  11.921 -0.0138  0.0920  0.2114
 6641TIP3    H141414   5.673   3.727  11.878 -0.0282 -1.0528 -0.0989
 6641TIP3    H241415   5.551   3.804  11.920  0.4096  0.2724 -1.2206
 6642TIP3   OH241416   0.413   4.584  15.609  0.4319 -0.4495 -0.9987
 6642TIP3    H141417   0.357   4.661  15.607  0.4578 -0.4469 -3.2775
 6642TIP3    H241418   0.472   4.598  15.682 -0.8840  0.7374 -0.1456
 6643TIP3   OH241419   6.688   3.942  15.904  0.4551 -0.4631  0.4502
 6643TIP3    H141420   6.650   3.933  15.817  1.3815 -0.4514  0.0426
 6643TIP3    H241421   6.653   3.868  15.953 -1.0859  0.2441  0.4506
 6644TIP3   OH241422   0.343   2.228   5.583  0.3999 -0.0739 -0.4539
 6644TIP3    H141423   0.299   2.146   5.608  0.0550 -0.3985 -2.0682
 6644TIP3    H241424   0.434   2.215   5.612  0.2797 -0.9096 -0.4153
 6645TIP3   OH241425   3.380   4.072  10.736 -0.1292  0.5033 -0.0033
 6645TIP3    H141426   3.352   4.163  10.737  2.0327  1.1869  1.6027
 6645TIP3    H241427   3.307   4.025  10.695 -1.3019  2.9175 -0.7857
 6646TIP3   OH241428   1.852   5.650  10.436  0.3826  0.4254  0.1834
 6646TIP3    H141429   1.802   5.714  10.384  1.5949  0.1191 -1.4002
 6646TIP3    H241430   1.853   5.571  10.382  0.2381 -0.4458  1.4321
 6647TIP3   OH241431   4.488   3.492  13.711  0.5491 -0.4162 -0.4626
 6647TIP3    H141432   4.507   3.546  13.787  1.0813 -0.4609 -0.5574
 6647TIP3    H241433   4.497   3.402  13.742 -0.6330 -0.4563 -0.2307
 6648TIP3   OH241434   3.534   6.805   3.412 -0.1683  0.5637  0.2958
 6648TIP3    H141435   3.585   6.865   3.467 -0.4137  1.2130 -0.1801
 6648TIP3    H241436   3.564   6.824   3.322 -0.3771  0.0974  0.1266
 6649TIP3   OH241437   2.223   0.749  13.727  0.2075 -0.6746 -0.6811
 6649TIP3    H141438   2.315   0.729  13.743  0.1930  0.1480  0.5025
 6649TIP3    H241439   2.176   0.709  13.800 -0.2570 -0.1356 -0.6738
 6650TIP3   OH241440   4.461   3.341   3.984 -0.1399 -0.2061 -0.1053
 6650TIP3    H141441   4.397   3.272   3.970  0.1516 -0.5192  0.0913
 6650TIP3    H241442   4.540   3.310   3.939  0.4499 -0.6940  1.2362
 6651TIP3   OH241443   0.038   0.014  13.427  0.7200 -0.2435  0.5781
 6651TIP3    H141444  -0.017   0.080  13.386 -0.6375 -2.0897 -0.6499
 6651TIP3    H241445   0.083   0.061  13.498 -1.0326  1.7162  0.4320
 6652TIP3   OH241446   1.321   4.417   2.163  0.0878 -0.1813  0.1009
 6652TIP3    H141447   1.271   4.448   2.088  1.8300  1.9613 -0.2126
 6652TIP3    H241448   1.393   4.367   2.124 -0.2968 -1.0135  0.4483
 6653TIP3   OH241449   4.763   2.730   5.668 -0.2679 -0.1162 -0.1527
 6653TIP3    H141450   4.795   2.818   5.650  0.6860 -0.2841  0.6988
 6653TIP3    H241451   4.716   2.738   5.751 -1.3193 -0.1491 -0.7279
 6654TIP3   OH241452   4.880   4.029  12.015 -0.4129 -0.7126 -0.0650
 6654TIP3    H141453   4.865   3.959  12.078  0.3509  0.5131  1.5243
 6654TIP3    H241454   4.971   4.055  12.029 -0.3173 -0.2459 -1.4857
 6655TIP3   OH241455   2.926   5.857   0.373  0.2745  0.1532  0.2376
 6655TIP3    H141456   2.831   5.865   0.370  0.1474 -1.2578  0.1259
 6655TIP3    H241457   2.942   5.766   0.399  1.6037 -0.2213 -1.7808
 6656TIP3   OH241458   0.349   4.426   4.035  0.0023  0.2861  0.1930
 6656TIP3    H141459   0.352   4.330   4.037  1.1143  0.2124 -2.2744
 6656TIP3    H241460   0.440   4.453   4.044 -0.2889  1.0925  0.6967
 6657TIP3   OH241461   0.206   6.431   3.305  0.0065 -0.8041 -0.8885
 6657TIP3    H141462   0.187   6.521   3.278  1.4695 -0.3267 -0.4175
 6657TIP3    H241463   0.252   6.393   3.230 -0.9333 -1.2885 -1.2296
 6658TIP3   OH241464   1.862   5.253   4.569  0.3246 -0.1045  0.1523
 6658TIP3    H141465   1.842   5.342   4.543 -0.2716 -0.8011 -1.9010
 6658TIP3    H241466   1.939   5.229   4.516  0.5672 -0.7569  0.7831
 6659TIP3   OH241467   2.264   0.989   6.138  0.6291  0.0578  0.1580
 6659TIP3    H141468   2.328   1.061   6.140  0.4186  0.2606  3.8779
 6659TIP3    H241469   2.256   0.963   6.230 -2.9944 -1.4521 -0.5312
 6660TIP3   OH241470   1.858   3.791  12.354  0.0252 -0.0540  0.0801
 6660TIP3    H141471   1.862   3.870  12.408  1.1521 -0.3757  0.4975
 6660TIP3    H241472   1.862   3.719  12.418  1.5980 -0.4376 -0.4276
 6661TIP3   OH241473   5.521   5.060   2.521  0.3327 -0.5276 -0.3775
 6661TIP3    H141474   5.573   5.067   2.601  0.9535 -3.0812 -0.5205
 6661TIP3    H241475   5.430   5.069   2.551  0.6275 -0.0245  0.3974
 6662TIP3   OH241476   0.440   1.060  16.456 -0.0317  0.1477  0.3655
 6662TIP3    H141477   0.455   1.077  16.549 -1.6730 -0.0149  0.6628
 6662TIP3    H241478   0.416   0.968  16.451  1.2079 -0.1601 -0.3755
 6663TIP3   OH241479   3.358   1.935   5.101 -0.1341 -0.2302 -0.4841
 6663TIP3    H141480   3.403   1.902   5.024  1.0871  1.3972 -0.4794
 6663TIP3    H241481   3.267   1.943   5.074 -0.1046 -1.7092 -1.0743
 6664TIP3   OH241482   2.648   2.770   3.201  0.5509  0.2601  0.7177
 6664TIP3    H141483   2.553   2.781   3.200  0.2937 -1.7189  1.1897
 6664TIP3    H241484   2.679   2.825   3.273 -0.0718  2.0457 -0.3629
 6665TIP3   OH241485   4.254   6.372  13.242 -0.2320  0.0751  0.2455
 6665TIP3    H141486   4.325   6.425  13.204  0.2341 -0.6823  0.0358
 6665TIP3    H241487   4.296   6.289  13.265 -0.8107  0.0429  1.1913
 6666TIP3   OH241488   2.007   2.524   1.598 -0.7424  0.1927  0.1123
 6666TIP3    H141489   1.965   2.482   1.673  2.7759 -1.7625  1.0962
 6666TIP3    H241490   1.976   2.614   1.602 -3.2793 -0.6653  1.8826
 6667TIP3   OH241491   4.917   1.295  13.336 -0.3724  0.0356 -0.4218
 6667TIP3    H141492   4.891   1.236  13.266  0.8057  0.6194 -1.3679
 6667TIP3    H241493   4.834   1.324  13.375 -0.9567 -2.3791  0.2003
 6668TIP3   OH241494   3.279   4.535  12.169  0.1493 -0.5286 -0.1561
 6668TIP3    H141495   3.321   4.554  12.253  2.9425 -1.5722 -1.2265
 6668TIP3    H241496   3.312   4.448  12.145 -1.9542 -0.9727 -1.5289
 6669TIP3   OH241497   6.132   4.200   0.514  0.3553 -0.4343 -0.2430
 6669TIP3    H141498   6.096   4.227   0.429 -0.9750 -0.5522  0.2698
 6669TIP3    H241499   6.085   4.120   0.536 -0.9864  0.8376  1.6738
 6670TIP3   OH241500   2.927   0.272  13.195  0.5867  0.5130  0.0862
 6670TIP3    H141501   3.005   0.216  13.191  0.7510  0.7605 -0.1886
 6670TIP3    H241502   2.909   0.282  13.288  1.1639  0.8411  0.1657
 6671TIP3   OH241503   3.318   4.313  15.758  0.0847 -0.2237  0.2147
 6671TIP3    H141504   3.331   4.344  15.669 -0.0006  0.2990  0.3804
 6671TIP3    H241505   3.264   4.234  15.749  1.6293 -1.2250 -0.3200
 6672TIP3   OH241506   6.542   4.830  12.962  0.0936  0.6687  0.0780
 6672TIP3    H141507   6.600   4.889  12.913  0.3654 -0.2099 -0.6756
 6672TIP3    H241508   6.520   4.879  13.041  0.9816  1.4480 -0.1423
 6673TIP3   OH241509   4.834   2.764  13.733  0.0049  0.9775  0.5446
 6673TIP3    H141510   4.920   2.738  13.700 -0.6011  0.0732 -0.3450
 6673TIP3    H241511   4.778   2.765  13.656 -1.1007  0.2427  1.3220
 6674TIP3   OH241512   0.325   4.767  16.292 -1.0414 -0.0643  0.2427
 6674TIP3    H141513   0.286   4.712  16.224 -2.6281  0.3474  0.7982
 6674TIP3    H241514   0.272   4.846  16.292 -2.3893 -0.9116  3.3946
 6675TIP3   OH241515   6.815   6.342  14.565  0.1856  0.4166 -0.4085
 6675TIP3    H141516   6.824   6.423  14.615 -0.0237 -0.4426  1.0468
 6675TIP3    H241517   6.750   6.362  14.498 -1.5346  0.8072  1.3355
 6676TIP3   OH241518   4.542   3.090   5.070 -0.3114  0.3933 -0.0402
 6676TIP3    H141519   4.488   3.103   5.148  0.0468  1.0350  0.1010
 6676TIP3    H241520   4.488   3.037   5.012  0.1839 -1.8300  1.4735
 6677TIP3   OH241521   3.996   5.742   4.211  0.1864  0.1617  0.0182
 6677TIP3    H141522   3.973   5.677   4.145  0.1214  0.0891  0.1116
 6677TIP3    H241523   3.952   5.822   4.182  0.0899  0.1089  0.0165
 6678TIP3   OH241524   2.333   2.394  16.575  0.0579  0.3540 -0.0373
 6678TIP3    H141525   2.284   2.318  16.604  1.3381 -0.3807  0.2243
 6678TIP3    H241526   2.328   2.455  16.649  2.4460 -1.1117  1.4364
 6679TIP3   OH241527   4.222   2.010  16.518 -0.4448 -0.2998  0.1021
 6679TIP3    H141528   4.175   2.067  16.578  0.8394 -1.3144  2.1529
 6679TIP3    H241529   4.170   1.930  16.513 -1.6559  0.5714 -1.8733
 6680TIP3   OH241530   1.024   6.017  11.309  0.0056  0.4497 -0.1961
 6680TIP3    H141531   1.055   6.042  11.221  0.7607  0.0647 -0.0491
 6680TIP3    H241532   0.990   6.099  11.346  1.2052  0.9816 -0.2274
 6681TIP3   OH241533   4.518   6.534  15.657  0.2232  0.3008 -0.6383
 6681TIP3    H141534   4.590   6.508  15.600 -0.4662 -0.1742 -1.3027
 6681TIP3    H241535   4.441   6.535  15.599 -0.0761  2.1028 -0.2431
 6682TIP3   OH241536   3.698   2.668  15.364 -0.1151  0.5384 -0.2358
 6682TIP3    H141537   3.763   2.729  15.398  0.9651 -0.3809 -0.6037
 6682TIP3    H241538   3.657   2.716  15.291  0.5815  0.9007 -0.3975
 6683TIP3   OH241539   2.147   4.193   1.786  0.3756  0.0650  0.7940
 6683TIP3    H141540   2.109   4.172   1.701 -1.7882  0.0855  1.7411
 6683TIP3    H241541   2.139   4.288   1.794  0.1297  0.0135  1.2148
 6684TIP3   OH241542   6.318   1.473  14.032  0.3005  0.3745  0.1537
 6684TIP3    H141543   6.405   1.513  14.044  0.7110 -0.5749  0.3814
 6684TIP3    H241544   6.337   1.381  14.014 -0.6359  0.3270 -0.5722
 6685TIP3   OH241545   1.431   3.884  14.797 -0.0682 -0.2240 -0.7226
 6685TIP3    H141546   1.429   3.946  14.724 -1.0454  0.4238 -0.1600
 6685TIP3    H241547   1.390   3.804  14.762  2.4548 -1.0677 -1.8770
 6686TIP3   OH241548   5.895   6.133  13.207  0.3010  0.2801 -0.4478
 6686TIP3    H141549   5.925   6.217  13.173  1.0236  0.3091  0.2716
 6686TIP3    H241550   5.969   6.074  13.193  0.3802  0.1439  0.5115
 6687TIP3   OH241551   3.392   3.886   4.028  0.0837  0.2074 -0.0241
 6687TIP3    H141552   3.477   3.917   3.997 -0.3518 -1.5504 -3.1688
 6687TIP3    H241553   3.329   3.942   3.983 -0.4917 -0.4614 -0.0596
 6688TIP3   OH241554   6.498   4.280   3.586 -0.0586 -0.1257  0.2430
 6688TIP3    H141555   6.500   4.186   3.604 -1.1811 -0.2749 -0.3983
 6688TIP3    H241556   6.434   4.291   3.516 -3.5670  1.6220  3.5319
 6689TIP3   OH241557   1.980   4.394   5.744 -0.3659  0.2872 -1.0410
 6689TIP3    H141558   1.954   4.399   5.835 -1.9540  0.6668 -1.5001
 6689TIP3    H241559   2.073   4.373   5.746 -0.6045 -0.6468  0.6443
 6690TIP3   OH241560   1.427   4.982   2.842  0.1012 -0.0328 -0.0604
 6690TIP3    H141561   1.473   4.977   2.759 -0.9773  1.0302 -0.7446
 6690TIP3    H241562   1.490   4.950   2.907  1.3330  0.1882 -1.1325
 6691TIP3   OH241563   2.447   1.675   3.448  0.8031  0.4491 -0.2814
 6691TIP3    H141564   2.371   1.709   3.494 -1.2307  0.6981 -3.6823
 6691TIP3    H241565   2.471   1.596   3.496 -0.4303  1.3765  1.9095
 6692TIP3   OH241566   1.882   6.111   4.883  0.2332  0.2084 -0.5218
 6692TIP3    H141567   1.882   6.057   4.962 -0.8352  1.1534  0.1342
 6692TIP3    H241568   1.819   6.069   4.825 -1.7260  1.5901  0.5816
 6693TIP3   OH241569   4.509   2.235  16.298 -0.2701  0.2067 -0.0865
 6693TIP3    H141570   4.468   2.150  16.319 -0.3753 -0.1096 -1.5023
 6693TIP3    H241571   4.440   2.283  16.252  0.5465  0.1440 -1.3903
 6694TIP3   OH241572   3.371   6.449  13.863  0.6018 -0.4418  0.2533
 6694TIP3    H141573   3.431   6.394  13.813  0.5758 -1.4885  1.3355
 6694TIP3    H241574   3.426   6.521  13.896  1.7776 -2.4284  2.8770
 6695TIP3   OH241575   4.879   6.106  13.442 -0.2918  0.3395  0.4396
 6695TIP3    H141576   4.945   6.169  13.413  0.7427 -0.6354  0.6632
 6695TIP3    H241577   4.899   6.091  13.534  1.7058 -2.9826 -0.4491
 6696TIP3   OH241578   5.309   4.311   5.545 -0.3372  0.2735 -0.3102
 6696TIP3    H141579   5.242   4.242   5.543  0.1216 -0.2288  1.0253
 6696TIP3    H241580   5.293   4.362   5.466 -0.9994 -1.0731 -1.0649
 6697TIP3   OH241581   1.105   4.849  12.734  0.2057 -0.0452 -0.4708
 6697TIP3    H141582   1.157   4.855  12.654 -0.6831 -0.2020 -1.0661
 6697TIP3    H241583   1.034   4.911  12.721  1.4295  1.8287  1.2546
 6698TIP3   OH241584   1.544   6.011  15.593 -0.1087  0.5208 -0.3099
 6698TIP3    H141585   1.516   6.064  15.518  1.8299 -0.2065 -1.5789
 6698TIP3    H241586   1.579   5.931  15.555 -0.2839 -0.4219  1.4487
 6699TIP3   OH241587   3.825   0.312   6.126  0.0246 -0.6925  0.2910
 6699TIP3    H141588   3.880   0.276   6.196 -0.6623  1.5479  2.0432
 6699TIP3    H241589   3.739   0.325   6.168  0.0877  2.3748 -0.4037
 6700TIP3   OH241590   0.754   3.453  16.403 -0.3960  0.0773 -0.8032
 6700TIP3    H141591   0.726   3.423  16.489  1.1803 -0.1215 -0.3496
 6700TIP3    H241592   0.829   3.510  16.421 -0.2878  0.3314 -2.0250
 6701TIP3   OH241593   2.866   3.454  16.015 -0.9880 -0.2134 -0.7667
 6701TIP3    H141594   2.841   3.365  16.040 -0.7173  0.1888  1.0262
 6701TIP3    H241595   2.962   3.451  16.006 -1.0687 -0.3208 -1.6644
 6702TIP3   OH241596   4.141   0.654  15.783  0.2294 -0.2617  0.3005
 6702TIP3    H141597   4.179   0.739  15.804  0.6395 -0.1064 -0.9979
 6702TIP3    H241598   4.196   0.591  15.829  0.5569  0.1144  0.4288
 6703TIP3   OH241599   5.001   5.230  16.269 -0.3656  0.4819 -0.3749
 6703TIP3    H141600   4.945   5.180  16.209 -0.1467  0.0012 -0.1799
 6703TIP3    H241601   5.062   5.165  16.305 -0.4342  0.7842  0.2973
 6704TIP3   OH241602   3.423   5.749  10.736 -0.7314 -0.2458  0.0407
 6704TIP3    H141603   3.350   5.800  10.771  0.1407 -0.1649  1.7963
 6704TIP3    H241604   3.501   5.790  10.773  0.2456 -0.2718 -1.8940
 6705TIP3   OH241605   1.128   4.684  13.051  0.2604  0.1229 -0.9534
 6705TIP3    H141606   1.156   4.641  13.132  1.0852 -0.4831 -1.5532
 6705TIP3    H241607   1.101   4.612  12.995 -0.1555  0.5358 -1.2839
 6706TIP3   OH241608   4.799   5.507   4.085 -0.1358 -0.1715  0.2632
 6706TIP3    H141609   4.865   5.440   4.104  0.7254  1.1251  1.9549
 6706TIP3    H241610   4.849   5.580   4.048 -0.9719 -0.1253 -0.8131
 6707TIP3   OH241611   0.653   5.928   5.802  0.0161  0.9156  0.2803
 6707TIP3    H141612   0.596   5.916   5.726 -1.6469 -0.2179  1.6737
 6707TIP3    H241613   0.688   6.017   5.792 -0.8325  1.0810 -1.3554
 6708TIP3   OH241614   0.092   1.054   5.522  0.2637  0.0212  0.1585
 6708TIP3    H141615   0.179   1.084   5.547  0.6792  0.4519 -1.7327
 6708TIP3    H241616   0.050   1.131   5.484 -0.4237 -0.5504 -0.2591
 6709TIP3   OH241617   4.128   2.109   5.743  0.1855 -0.0704 -0.2589
 6709TIP3    H141618   4.152   2.034   5.688  0.8789 -0.0167 -0.0315
 6709TIP3    H241619   4.207   2.162   5.746 -0.3173  0.6881 -0.4439
 6710TIP3   OH241620   0.122   2.363  14.801  0.5224  0.4642  0.0547
 6710TIP3    H141621   0.054   2.410  14.850 -1.2079 -2.0968  0.1864
 6710TIP3    H241622   0.175   2.320  14.868 -1.3498 -2.3649 -0.1775
 6711TIP3   OH241623   0.253   3.164  14.949 -0.2198  0.0751 -0.6246
 6711TIP3    H141624   0.214   3.083  14.981  1.1802 -0.3517  0.0251
 6711TIP3    H241625   0.337   3.138  14.911  0.6041  1.3135  0.3066
 6712TIP3   OH241626   5.588   6.543  16.055 -0.6332 -0.7137 -0.3310
 6712TIP3    H141627   5.562   6.452  16.072 -0.8278 -0.1839  2.4870
 6712TIP3    H241628   5.513   6.580  16.009 -1.0635 -1.6570 -0.4225
 6713TIP3   OH241629   2.677   6.769   1.227  0.3682  0.0821 -0.2289
 6713TIP3    H141630   2.737   6.843   1.221  0.4042  0.0694 -0.0299
 6713TIP3    H241631   2.590   6.809   1.225  0.3851  0.1117 -0.3549
 6714TIP3   OH241632   6.346   6.271   1.574  0.0172  0.7841  0.0871
 6714TIP3    H141633   6.377   6.358   1.600 -1.2805  0.5774  2.3998
 6714TIP3    H241634   6.317   6.283   1.484  0.7461  2.5102  0.0414
 6715TIP3   OH241635   1.357   2.065  14.610 -0.4322 -0.1479  0.5133
 6715TIP3    H141636   1.324   1.979  14.583 -1.6801  0.8635 -1.2261
 6715TIP3    H241637   1.407   2.046  14.690 -0.2638 -2.5628 -0.1051
 6716TIP3   OH241638   6.403   1.041   2.543  0.3013  0.0827  0.0153
 6716TIP3    H141639   6.485   1.084   2.567  0.9270 -1.1288  0.1355
 6716TIP3    H241640   6.423   0.993   2.463 -0.1288 -0.6301  0.3200
 6717TIP3   OH241641   1.528   6.426   5.921 -0.4076 -0.2762 -0.1754
 6717TIP3    H141642   1.439   6.419   5.956  0.5239  0.1339  2.3766
 6717TIP3    H241643   1.575   6.352   5.961  0.4944 -0.2707 -1.2087
 6718TIP3   OH241644   1.689   1.388  11.254  0.4055  0.0717 -0.3246
 6718TIP3    H141645   1.701   1.293  11.257  0.7498  0.0878 -1.0516
 6718TIP3    H241646   1.747   1.417  11.183  3.1366  1.2451  2.2639
 6719TIP3   OH241647   0.303   5.771   4.489 -0.0429  0.1052  0.2566
 6719TIP3    H141648   0.336   5.785   4.577  0.6434 -0.2599  0.0602
 6719TIP3    H241649   0.354   5.831   4.434  0.3980 -0.5605 -0.0679
 6720TIP3   OH241650   6.195   3.039  13.379 -0.3778  0.2931  0.2512
 6720TIP3    H141651   6.283   3.027  13.343 -1.2771  0.3414 -2.0108
 6720TIP3    H241652   6.188   2.974  13.449  1.1582 -0.2431 -0.0816
 6721TIP3   OH241653   4.680   1.026   4.193 -0.3745  0.8832 -0.4108
 6721TIP3    H141654   4.618   1.055   4.259  1.6961  0.9472  1.5486
 6721TIP3    H241655   4.669   1.088   4.121 -2.1815  1.2187  0.1314
 6722TIP3   OH241656   4.344   4.605   2.778  0.4292 -0.4582 -0.4920
 6722TIP3    H141657   4.305   4.588   2.864  1.0816 -1.3880 -0.3762
 6722TIP3    H241658   4.306   4.689   2.751 -0.6994 -0.7401  0.1752
 6723TIP3   OH241659   5.445   5.851   3.823 -0.3651 -0.2059 -0.4461
 6723TIP3    H141660   5.451   5.783   3.890  2.3789 -0.7808 -1.2564
 6723TIP3    H241661   5.364   5.830   3.775 -0.6139 -1.6871  0.5854
 6724TIP3   OH241662   5.207   4.744   0.003 -0.5889  0.0593  0.4464
 6724TIP3    H141663   5.275   4.772  -0.058 -0.7148  0.3817  0.4524
 6724TIP3    H241664   5.128   4.790  -0.027 -1.2022 -1.6096 -0.6056
 6725TIP3   OH241665   2.499   2.371  17.252 -0.6570 -0.2396  0.3083
 6725TIP3    H141666   2.429   2.413  17.201 -0.4220 -1.3718 -0.9694
 6725TIP3    H241667   2.577   2.422  17.230 -0.7036 -0.2229  0.1809
 6726TIP3   OH241668   0.233   5.517   2.431  0.6622 -0.0850  0.2020
 6726TIP3    H141669   0.262   5.497   2.520  1.2513 -0.2141 -0.0133
 6726TIP3    H241670   0.251   5.610   2.420 -1.0733  0.3427  0.8299
 6727TIP3   OH241671   6.443   4.142   6.122  0.0535 -0.4154 -0.5037
 6727TIP3    H141672   6.427   4.085   6.198 -0.8278 -0.1367 -0.4711
 6727TIP3    H241673   6.403   4.226   6.147 -0.5112 -0.4169 -1.4025
 6728TIP3   OH241674   5.910   0.143  16.940 -0.0708 -0.3115 -0.1033
 6728TIP3    H141675   5.959   0.195  16.876 -1.4671  1.4763  0.2370
 6728TIP3    H241676   5.974   0.124  17.008  0.1798  2.1084  0.4046
 6729TIP3   OH241677   1.243   5.175  11.377  0.4124 -0.3879 -0.4760
 6729TIP3    H141678   1.229   5.082  11.390 -0.0102 -0.5435 -1.9576
 6729TIP3    H241679   1.162   5.217  11.405  0.1001 -0.5832 -1.0835
 6730TIP3   OH241680   1.666   5.435  11.484  0.1670 -0.9478  0.8132
 6730TIP3    H141681   1.604   5.382  11.434 -0.4689 -1.3106  1.9746
 6730TIP3    H241682   1.615   5.469  11.558  0.5624  1.2588  0.1285
 6731TIP3   OH241683   3.580   2.238   2.986 -0.1831 -0.1188 -0.7765
 6731TIP3    H141684   3.596   2.177   2.914  1.1812  0.2897 -0.8428
 6731TIP3    H241685   3.617   2.193   3.063  0.5715  0.4802 -0.7753
 6732TIP3   OH241686   5.304   6.368  16.663 -0.0582  0.0828  0.1748
 6732TIP3    H141687   5.243   6.429  16.620  0.4150 -0.8084 -1.8149
 6732TIP3    H241688   5.249   6.319  16.724 -1.1449  0.0367 -0.8136
 6733TIP3   OH241689   1.210   2.074   0.560 -0.2546 -0.6169 -0.0827
 6733TIP3    H141690   1.148   2.126   0.611 -1.0051  1.0696 -2.6054
 6733TIP3    H241691   1.157   2.005   0.520 -0.1319 -0.4203 -0.5869
 6734TIP3   OH241692   4.255   1.831   1.591 -0.1568  0.0402 -0.3113
 6734TIP3    H141693   4.232   1.812   1.500  1.5512 -1.2474 -0.4934
 6734TIP3    H241694   4.242   1.748   1.637 -0.4236  0.5266  0.5088
 6735TIP3   OH241695   2.554   4.772   5.369  0.1301 -0.6101  0.3854
 6735TIP3    H141696   2.627   4.713   5.386  2.2842  1.1820 -2.3090
 6735TIP3    H241697   2.509   4.735   5.293 -0.0434 -0.1609  0.2632
 6736TIP3   OH241698   6.319   5.110  14.796 -0.2020 -0.2739  0.8161
 6736TIP3    H141699   6.261   5.058  14.852 -0.1190  0.3726  1.5093
 6736TIP3    H241700   6.280   5.103  14.709 -1.5064  0.4002  1.3250
 6737TIP3   OH241701   6.312   5.782  11.029  0.3489 -0.0490  0.3324
 6737TIP3    H141702   6.299   5.696  10.990  0.0857  0.3281 -0.4157
 6737TIP3    H241703   6.225   5.822  11.030  0.1948 -0.3867  2.0975
 6738TIP3   OH241704   4.133   4.170  15.431  0.3697  0.3952  0.4196
 6738TIP3    H141705   4.046   4.159  15.392  0.8279  2.3534 -1.2177
 6738TIP3    H241706   4.115   4.193  15.523 -0.8582  1.8695 -0.1735
 6739TIP3   OH241707   5.187   1.071   1.819 -0.4172 -0.0623  0.1380
 6739TIP3    H141708   5.162   1.032   1.903  0.2638 -2.0850 -0.5697
 6739TIP3    H241709   5.125   1.033   1.756  1.8462 -2.0474 -0.9801
 6740TIP3   OH241710   4.823   6.302  14.185 -0.3820 -0.0631 -0.0142
 6740TIP3    H141711   4.850   6.290  14.094 -0.9853 -1.1934 -0.0612
 6740TIP3    H241712   4.833   6.395  14.202  1.2096 -0.0911 -0.7698
 6741TIP3   OH241713   1.059   4.056   3.611 -0.5954  0.1723 -0.0977
 6741TIP3    H141714   1.084   4.119   3.544 -0.7941 -0.0564 -0.3894
 6741TIP3    H241715   0.998   3.997   3.566  0.2617 -0.7432 -0.0569
 6742TIP3   OH241716   0.756   1.937   2.929  0.5804  0.2678 -0.4895
 6742TIP3    H141717   0.675   1.971   2.893 -0.2034 -1.0815 -0.0443
 6742TIP3    H241718   0.759   1.846   2.899  1.0961 -0.1778  0.8719
 6743TIP3   OH241719   4.725   5.831   5.294 -0.3439  0.0923  0.1449
 6743TIP3    H141720   4.673   5.818   5.373 -1.9499  1.8465 -0.5754
 6743TIP3    H241721   4.696   5.916   5.260  3.0876  1.2268 -0.2268
 6744TIP3   OH241722   6.773   1.907  15.524  0.2168  0.0657 -0.5366
 6744TIP3    H141723   6.840   1.967  15.489  0.2561  0.2179 -0.2025
 6744TIP3    H241724   6.721   1.883  15.448  1.4857 -1.1391 -1.0575
 6745TIP3   OH241725   0.409   1.291  15.435 -0.0700 -0.2090 -0.0739
 6745TIP3    H141726   0.453   1.217  15.475  0.6153 -0.1171 -0.6567
 6745TIP3    H241727   0.320   1.288  15.471  0.0778 -1.0525  0.2299
 6746TIP3   OH241728   0.970   4.554  12.056 -0.1404 -0.0186 -0.1641
 6746TIP3    H141729   1.053   4.544  12.010 -1.4613  1.4170 -3.0004
 6746TIP3    H241730   0.922   4.473  12.037  0.4710 -0.7338  1.2570
 6747TIP3   OH241731   4.449   0.702  12.174 -0.0618 -0.8228 -0.1552
 6747TIP3    H141732   4.538   0.666  12.177  0.7472  0.8930 -1.9556
 6747TIP3    H241733   4.433   0.733  12.263  1.1595 -1.1504  0.1912
 6748TIP3   OH241734   3.827   2.492   6.658  0.3615  0.1460 -0.3702
 6748TIP3    H141735   3.767   2.514   6.728 -1.1414 -2.7056 -0.7056
 6748TIP3    H241736   3.793   2.538   6.581 -0.2057  0.1965 -0.0880
 6749TIP3   OH241737   6.794   6.088   4.775 -0.3121  0.3377 -0.6692
 6749TIP3    H141738   6.779   6.106   4.868 -0.2373 -0.2331 -0.5422
 6749TIP3    H241739   6.888   6.099   4.763 -0.3746  0.7824 -0.7618
 6750TIP3   OH241740   1.643   5.327   3.085 -0.6550  0.1546 -0.5101
 6750TIP3    H141741   1.573   5.273   3.123 -1.1876  0.6084 -0.8317
 6750TIP3    H241742   1.611   5.347   2.997 -0.6348  1.3169 -0.2586
 6751TIP3   OH241743   5.332   1.588   6.731 -0.7894 -0.5050  0.2011
 6751TIP3    H141744   5.278   1.667   6.734  0.6765  0.4940  0.8754
 6751TIP3    H241745   5.318   1.546   6.816 -0.2977 -0.0887  0.4944
 6752TIP3   OH241746   2.363   0.324   3.769  0.3608 -0.0436 -0.0777
 6752TIP3    H141747   2.422   0.271   3.716  0.8242 -0.3785  0.7648
 6752TIP3    H241748   2.419   0.389   3.812  0.1473 -0.4116  0.7864
 6753TIP3   OH241749   4.398   3.653  15.561  0.1395 -0.5608 -0.4443
 6753TIP3    H141750   4.417   3.734  15.514  0.1175  0.9357  2.0625
 6753TIP3    H241751   4.484   3.615  15.580  0.2319  0.0585  0.3868
 6754TIP3   OH241752   1.369   2.744   3.251  0.0874  0.2456  0.0433
 6754TIP3    H141753   1.408   2.819   3.297  1.5158  0.0106 -0.7613
 6754TIP3    H241754   1.306   2.708   3.314 -0.6056  2.0981  0.4470
 6755TIP3   OH241755   6.594   5.072   2.071  0.4235 -0.6443  0.1620
 6755TIP3    H141756   6.633   5.159   2.081 -2.0533  0.8317 -2.3695
 6755TIP3    H241757   6.656   5.024   2.016 -0.1833  0.9510 -1.9711
 6756TIP3   OH241758   0.034   4.203   5.290 -0.4518 -0.3859  0.2136
 6756TIP3    H141759  -0.019   4.123   5.291 -0.4000 -0.4220  1.1000
 6756TIP3    H241760   0.097   4.190   5.219 -1.1266 -0.6798 -0.3294
 6757TIP3   OH241761   6.422   0.922   2.263  0.1304  0.1265  0.6452
 6757TIP3    H141762   6.337   0.953   2.230 -0.2417 -1.1740  0.3670
 6757TIP3    H241763   6.487   0.973   2.214 -0.4781  1.5860  1.3007
 6758TIP3   OH241764   1.385   1.947   2.352  0.0098 -0.1807 -0.3532
 6758TIP3    H141765   1.305   1.999   2.357  1.1173  1.4785  1.0053
 6758TIP3    H241766   1.443   1.998   2.296  0.4624 -0.8870 -0.5348
 6759TIP3   OH241767   4.480   4.936  10.515  0.0443  0.2918 -0.1068
 6759TIP3    H141768   4.475   4.885  10.434  0.0020 -0.7328  0.5240
 6759TIP3    H241769   4.391   4.970  10.527  0.4016  1.6240 -1.2307
 6760TIP3   OH241770   1.918   1.444  13.762 -0.4062 -0.4484 -0.4440
 6760TIP3    H141771   1.888   1.524  13.720 -0.5428  0.1235  0.7103
 6760TIP3    H241772   1.964   1.396  13.693  0.0363  0.8043 -1.0387
 6761TIP3   OH241773   5.680   5.084  11.628 -0.2720  0.2898 -0.1950
 6761TIP3    H141774   5.682   5.087  11.724  0.1536  1.0073 -0.2218
 6761TIP3    H241775   5.765   5.120  11.602 -0.0159 -0.7752 -0.8254
 6762TIP3   OH241776   6.451   4.273  16.780 -0.6049 -0.3942  0.3607
 6762TIP3    H141777   6.459   4.178  16.774 -0.8360 -0.4002  0.1616
 6762TIP3    H241778   6.375   4.295  16.727  0.1617  0.0174 -0.5943
 6763TIP3   OH241779   4.348   4.881  13.566  0.1348  0.1373  0.1514
 6763TIP3    H141780   4.392   4.803  13.602  1.2701  1.2245  1.1577
 6763TIP3    H241781   4.393   4.898  13.484 -0.0099 -0.1856  0.0061
 6764TIP3   OH241782   1.222   4.840   6.015  0.0973  0.2524 -0.2649
 6764TIP3    H141783   1.227   4.795   6.099 -1.1786  0.7759  0.0958
 6764TIP3    H241784   1.132   4.870   6.008  0.6397  1.8149 -0.9831
 6765TIP3   OH241785   2.249   1.606  15.006 -0.1443 -0.3868  0.2352
 6765TIP3    H141786   2.288   1.622  14.920 -1.0409 -0.4136 -0.1801
 6765TIP3    H241787   2.269   1.514  15.025  0.0043 -0.3960  0.0307
 6766TIP3   OH241788   1.728   5.490   4.497 -0.0773  0.3691 -0.1385
 6766TIP3    H141789   1.744   5.565   4.440 -1.3513  1.4300  0.8719
 6766TIP3    H241790   1.674   5.431   4.444 -0.1376  0.7447 -0.5004
 6767TIP3   OH241791   2.437   6.441   6.159 -0.2767  0.2771 -0.5422
 6767TIP3    H141792   2.483   6.467   6.079 -2.4913 -0.1601 -2.0062
 6767TIP3    H241793   2.352   6.486   6.154 -0.0539  1.1438  2.1335
 6768TIP3   OH241794   4.515   1.956  13.500 -0.8867  0.1085  0.3374
 6768TIP3    H141795   4.561   2.040  13.505  0.8385 -0.8664  1.4159
 6768TIP3    H241796   4.435   1.970  13.550 -1.4105  1.6112 -0.8976
 6769TIP3   OH241797   1.142   0.103   1.623  0.1829  0.0810 -0.0734
 6769TIP3    H141798   1.110   0.107   1.533 -0.1018  0.6733  0.0470
 6769TIP3    H241799   1.144   0.010   1.644 -2.3685  0.0342  0.2052
 6770TIP3   OH241800   3.856   5.728   5.660 -0.2975  0.3130 -0.5268
 6770TIP3    H141801   3.849   5.792   5.730 -1.9847 -0.0127 -0.3759
 6770TIP3    H241802   3.826   5.774   5.582  0.0323  0.1795 -0.7362
 6771TIP3   OH241803   3.958   0.850   2.110 -0.5321 -0.6460 -0.4325
 6771TIP3    H141804   3.975   0.884   2.022  0.5614  1.2150  0.4541
 6771TIP3    H241805   4.044   0.851   2.153 -1.3032 -0.0660  1.1299
 6772TIP3   OH241806   5.602   5.621   1.066 -0.3302 -0.1920  0.1206
 6772TIP3    H141807   5.621   5.572   1.146 -1.0029 -0.7948 -0.0813
 6772TIP3    H241808   5.644   5.569   0.996  0.2036  0.2994  0.0722
 6773TIP3   OH241809   3.652   6.276   6.179 -0.2872 -0.4240  0.7237
 6773TIP3    H141810   3.745   6.294   6.190 -0.2490 -0.7968  1.0401
 6773TIP3    H241811   3.638   6.194   6.226 -0.5363 -0.9929 -0.3232
 6774TIP3   OH241812   1.019   5.161  10.629 -0.2943 -0.4259 -0.4262
 6774TIP3    H141813   0.927   5.180  10.648  0.5266  1.1173  2.3011
 6774TIP3    H241814   1.024   5.066  10.623 -1.8582 -0.5872  0.5848
 6775TIP3   OH241815   0.410   5.494   1.251  0.0901  0.5033 -0.3423
 6775TIP3    H141816   0.451   5.526   1.170  1.1849 -0.6901 -0.2783
 6775TIP3    H241817   0.463   5.418   1.275 -1.0337  0.0840  0.7949
 6776TIP3   OH241818   3.719   1.441  14.516  0.0822 -0.0201 -0.1844
 6776TIP3    H141819   3.633   1.410  14.488 -0.3391  0.7914  0.2000
 6776TIP3    H241820   3.729   1.408  14.605 -0.5377  1.2718  0.3715
 6777TIP3   OH241821   1.297   1.170  14.728  0.3282  0.3461  0.0825
 6777TIP3    H141822   1.391   1.158  14.718  0.4845  0.4229  1.3468
 6777TIP3    H241823   1.280   1.256  14.690  1.1529  1.3301  1.8675
 6778TIP3   OH241824   3.533   5.343  11.665 -0.1226  0.3294  0.2859
 6778TIP3    H141825   3.559   5.415  11.723  1.1759 -0.3781  0.6023
 6778TIP3    H241826   3.451   5.310  11.702  0.1437  0.5769  1.0993
 6779TIP3   OH241827   0.530   5.896  12.474  0.2170 -0.3447  0.7469
 6779TIP3    H141828   0.474   5.973  12.470 -1.2246 -1.4251 -0.7283
 6779TIP3    H241829   0.490   5.834  12.413  1.6226 -2.0773  1.5292
 6780TIP3   OH241830   2.925   1.256  15.847  0.3582 -0.3378  0.2718
 6780TIP3    H141831   2.947   1.270  15.939 -0.3091 -2.5523  0.8176
 6780TIP3    H241832   2.833   1.281  15.840  0.4469 -0.0399  0.1820
 6781TIP3   OH241833   5.288   2.132   0.075  1.1655  0.0520  0.1718
 6781TIP3    H141834   5.255   2.094  -0.007 -0.8773  0.8015  0.6257
 6781TIP3    H241835   5.248   2.219   0.079  1.6499  0.2090  1.7173
 6782TIP3   OH241836   0.489   2.309   3.763 -0.2145  0.6619 -0.7664
 6782TIP3    H141837   0.537   2.255   3.827  0.0161  2.2448  0.4144
 6782TIP3    H241838   0.397   2.286   3.778 -0.0381 -0.3332 -1.1432
 6783TIP3   OH241839   0.164   6.750  17.090  0.3017  0.3671  0.0532
 6783TIP3    H141840   0.219   6.816  17.049 -1.0596  1.9103  0.6695
 6783TIP3    H241841   0.189   6.751  17.183 -0.0637  0.3856  0.1549
 6784TIP3   OH241842   5.549   5.669  12.026 -0.4906 -0.2391 -0.2484
 6784TIP3    H141843   5.520   5.740  12.083 -0.0173 -0.6937  0.5578
 6784TIP3    H241844   5.469   5.638  11.983 -0.9151 -0.2029  0.5148
 6785TIP3   OH241845   2.663   2.021   1.428  0.1695 -0.1303 -0.2370
 6785TIP3    H141846   2.741   2.076   1.429 -0.5998  0.9870 -0.4465
 6785TIP3    H241847   2.597   2.074   1.383 -1.8291  0.4584  3.2386
 6786TIP3   OH241848   1.248   3.601   5.337 -0.1068  0.4112 -0.2598
 6786TIP3    H141849   1.197   3.599   5.418 -1.1231 -2.7100 -0.9370
 6786TIP3    H241850   1.197   3.657   5.278 -0.2579  1.2327  0.6260
 6787TIP3   OH241851   2.034   2.674   0.544  0.2770  0.2787  0.2453
 6787TIP3    H141852   1.991   2.681   0.629  1.1814  1.4909  0.6059
 6787TIP3    H241853   2.075   2.587   0.545  0.2432  0.2717  1.0124
 6788TIP3   OH241854   4.597   2.885   3.627  0.1850 -0.6828  0.5708
 6788TIP3    H141855   4.640   2.916   3.706  0.6476  0.0007  0.0539
 6788TIP3    H241856   4.668   2.859   3.569 -0.1636 -1.6549  0.5567
 6789TIP3   OH241857   2.547   3.964  12.806  0.1562 -0.0527 -0.3923
 6789TIP3    H141858   2.515   3.953  12.717  2.4420 -1.8191 -1.0437
 6789TIP3    H241859   2.631   4.010  12.796 -0.4934  1.5176  1.0168
 6790TIP3   OH241860   6.129   3.491  16.577  0.2411  0.9407  0.5274
 6790TIP3    H141861   6.197   3.445  16.627 -0.4670 -0.2079  0.4677
 6790TIP3    H241862   6.081   3.541  16.642  0.4293  0.8469  0.7400
 6791TIP3   OH241863   4.863   4.323   4.361  0.4553  0.5113  0.5541
 6791TIP3    H141864   4.892   4.247   4.310 -0.6588  1.4297 -1.5067
 6791TIP3    H241865   4.782   4.351   4.317  0.4703  2.4395  1.7354
 6792TIP3   OH241866   3.416   6.329  12.489  0.1592  0.1776 -0.1955
 6792TIP3    H141867   3.448   6.261  12.547 -0.1016  0.5863  0.4348
 6792TIP3    H241868   3.361   6.385  12.545  0.0506  0.6743 -0.7882
 6793TIP3   OH241869   5.475   6.570   4.050 -0.2232 -0.3682 -0.3093
 6793TIP3    H141870   5.403   6.611   4.098  1.2244  0.5304  1.1564
 6793TIP3    H241871   5.540   6.640   4.041  1.4910 -1.8019  0.5497
 6794TIP3   OH241872   2.756   0.837  17.231  0.1144  0.1444  0.2133
 6794TIP3    H141873   2.789   0.916  17.274  0.7887 -0.6401  1.1716
 6794TIP3    H241874   2.713   0.787  17.301 -1.2868  0.1679 -0.5978
 6795TIP3   OH241875   1.887   0.593  16.365  0.4619 -0.0057 -0.2705
 6795TIP3    H141876   1.964   0.639  16.399 -0.3438  1.5764 -0.5707
 6795TIP3    H241877   1.818   0.609  16.429 -0.9128  2.5161 -2.2696
 6796TIP3   OH241878   1.482   2.980  14.413 -0.1773 -0.2382  0.2187
 6796TIP3    H141879   1.424   3.024  14.351  0.2672 -0.0322 -0.0443
 6796TIP3    H241880   1.506   3.048  14.476  0.6132 -0.0727 -0.2622
 6797TIP3   OH241881   3.508   1.096  15.946 -0.2689 -0.5236 -0.0971
 6797TIP3    H141882   3.592   1.093  15.900 -1.0505  1.7522 -1.7214
 6797TIP3    H241883   3.458   1.024  15.907  0.3470 -0.8690 -0.2652
 6798TIP3   OH241884   3.000   5.624  14.023 -0.6807 -0.2097 -0.2641
 6798TIP3    H141885   2.944   5.680  14.076  1.4482  1.3327  0.4697
 6798TIP3    H241886   3.063   5.587  14.085  1.0516  0.6097 -1.4799
 6799TIP3   OH241887   0.947   6.426  12.105  0.4900  0.4803 -0.0009
 6799TIP3    H141888   0.901   6.431  12.189 -0.6180 -2.1049 -0.4181
 6799TIP3    H241889   1.022   6.369  12.123  0.3740  0.1073 -0.7103
 6800TIP3   OH241890   4.243   0.605  15.461  0.3566 -0.3282 -0.0119
 6800TIP3    H141891   4.296   0.603  15.381  0.2852  0.5648 -0.0862
 6800TIP3    H241892   4.304   0.633  15.529 -0.2749  1.8101 -0.3065
 6801TIP3   OH241893   2.030   4.938  14.434  0.2007 -0.2559  0.0106
 6801TIP3    H141894   2.108   4.993  14.437  0.4573 -0.6023 -0.2934
 6801TIP3    H241895   1.999   4.946  14.344  0.5499 -1.0414 -0.1786
 6802TIP3   OH241896   3.310   5.021  16.249 -0.4457 -0.2294 -0.0434
 6802TIP3    H141897   3.251   4.946  16.251 -0.1163 -0.4848  0.2226
 6802TIP3    H241898   3.254   5.096  16.269 -0.6008 -0.5235  0.6543
 6803TIP3   OH241899   6.639   6.461   2.655 -0.7078  0.1189 -0.0233
 6803TIP3    H141900   6.568   6.458   2.591 -3.4163 -1.2106  2.9040
 6803TIP3    H241901   6.599   6.498   2.734  0.8889 -3.5666  2.7002
 6804TIP3   OH241902   1.559   2.892   3.411 -0.4215  0.0950 -0.0462
 6804TIP3    H141903   1.552   2.817   3.470 -0.1369 -0.3346 -0.5568
 6804TIP3    H241904   1.653   2.912   3.407 -0.6576  1.6337  1.5226
 6805TIP3   OH241905   2.510   6.296  17.079  0.0410 -0.4595 -0.1415
 6805TIP3    H141906   2.605   6.309  17.085  0.0207  0.0999 -1.0164
 6805TIP3    H241907   2.485   6.339  16.998 -1.0223 -0.3137  0.2615
 6806TIP3   OH241908   4.670   0.066   6.019 -0.2901  0.3734 -0.9594
 6806TIP3    H141909   4.611   0.140   6.030  0.1134  0.6758 -0.8371
 6806TIP3    H241910   4.640   0.023   5.939  0.1541  1.2972 -1.6297
 6807TIP3   OH241911   4.504   4.476  13.381  0.4448  0.1751  0.4308
 6807TIP3    H141912   4.525   4.472  13.288  3.5088  1.8384  0.9489
 6807TIP3    H241913   4.438   4.409  13.394  0.2986 -0.4192 -2.8496
 6808TIP3   OH241914   5.383   5.202  10.777 -0.0235  0.1142  0.3434
 6808TIP3    H141915   5.348   5.133  10.720  1.2360  0.2774 -0.6442
 6808TIP3    H241916   5.468   5.168  10.806  0.1140  0.7854  0.7223
 6809TIP3   OH241917   6.676   5.580   5.767 -0.2243 -1.1265 -0.4178
 6809TIP3    H141918   6.718   5.497   5.746 -0.3263 -1.2421 -0.1655
 6809TIP3    H241919   6.742   5.646   5.747  0.4264 -1.3649  0.8921
 6810TIP3   OH241920   1.497   3.075   2.249 -0.7046 -0.4232  0.2228
 6810TIP3    H141921   1.439   3.133   2.298 -1.0867 -1.8389  1.4724
 6810TIP3    H241922   1.575   3.067   2.305 -0.0009  0.1222 -0.6657
 6811TIP3   OH241923   3.850   4.377   2.004  0.1848 -0.2873  0.1562
 6811TIP3    H141924   3.793   4.393   2.080 -0.6693  0.1407 -0.5701
 6811TIP3    H241925   3.844   4.283   1.990  0.6060 -0.4164  0.8290
 6812TIP3   OH241926   3.387   1.036  13.778 -0.5134 -0.4771  0.0666
 6812TIP3    H141927   3.439   0.965  13.742  0.7817 -0.2054  1.3782
 6812TIP3    H241928   3.304   1.032  13.730 -0.2323 -2.4990 -0.2606
 6813TIP3   OH241929   1.696   0.246  15.674 -0.1399 -0.0212 -0.4551
 6813TIP3    H141930   1.677   0.281  15.761 -0.5719 -0.8704 -0.1958
 6813TIP3    H241931   1.613   0.252  15.627  0.3375  1.3382 -1.1317
 6814TIP3   OH241932   3.320   5.965   2.763  0.3190 -0.1144 -0.1063
 6814TIP3    H141933   3.411   5.934   2.758  0.1900 -0.6404  0.8673
 6814TIP3    H241934   3.328   6.057   2.789  0.5694 -0.1508 -0.0491
 6815TIP3   OH241935   4.369   6.780   3.488 -0.1984 -0.4769 -0.0034
 6815TIP3    H141936   4.449   6.730   3.473  1.5061  2.2361 -0.3483
 6815TIP3    H241937   4.400   6.866   3.518 -2.8365  1.5914 -2.8808
 6816TIP3   OH241938   2.871   1.716   5.276  0.7600  0.7414  0.0956
 6816TIP3    H141939   2.833   1.648   5.220  2.0023  2.2579 -2.6642
 6816TIP3    H241940   2.920   1.668   5.342 -2.1066 -1.1337  0.9633
 6817TIP3   OH241941   3.813   3.988  14.985 -0.3962  0.7528 -1.0293
 6817TIP3    H141942   3.878   4.059  14.987  0.9993 -0.5189  0.2867
 6817TIP3    H241943   3.733   4.028  15.020  0.9400  1.1810  1.6721
 6818TIP3   OH241944   5.250   3.373   4.910 -0.0834  0.1347  0.5198
 6818TIP3    H141945   5.200   3.448   4.944 -0.5114  0.3237 -0.5225
 6818TIP3    H241946   5.286   3.331   4.988 -2.1194 -0.1808  1.3183
 6819TIP3   OH241947   2.841   5.830   5.520 -0.6899 -0.2755 -0.4633
 6819TIP3    H141948   2.802   5.915   5.504  0.2242  0.0307 -1.1257
 6819TIP3    H241949   2.811   5.806   5.608  1.0937  1.8917  0.8081
 6820TIP3   OH241950   5.200   3.703   4.326 -0.1401  0.2177  0.0911
 6820TIP3    H141951   5.196   3.645   4.402 -0.8770  0.2192  0.0558
 6820TIP3    H241952   5.258   3.774   4.354  1.9692 -1.2707 -0.3894
 6821TIP3   OH241953   4.983   5.868  14.917 -0.2413 -0.2497 -0.6735
 6821TIP3    H141954   5.057   5.811  14.898 -0.0403 -0.0229 -0.5787
 6821TIP3    H241955   5.002   5.949  14.869  0.6544  0.6185  1.0729
 6822TIP3   OH241956   2.966   2.249  13.638 -0.3291  1.1815  0.3938
 6822TIP3    H141957   3.028   2.320  13.653  0.5896  0.8577 -1.6957
 6822TIP3    H241958   3.013   2.187  13.582 -1.7864 -0.1221  0.5714
 6823TIP3   OH241959   2.774   4.472  12.294  0.7455  0.0113 -0.5914
 6823TIP3    H141960   2.712   4.430  12.236 -1.4036  2.3113 -0.0550
 6823TIP3    H241961   2.725   4.489  12.375  2.8319 -0.4940  0.8397
 6824TIP3   OH241962   3.941   5.432   5.727 -0.3024 -0.3417  0.4323
 6824TIP3    H141963   3.957   5.469   5.814 -0.3081  0.8258 -0.0479
 6824TIP3    H241964   3.851   5.458   5.706 -0.5327 -1.1883  0.3553
 6825TIP3   OH241965   4.344   2.262   5.712  0.0116  0.1383  0.6133
 6825TIP3    H141966   4.351   2.305   5.797  0.3106 -0.5858  0.9566
 6825TIP3    H241967   4.432   2.266   5.675 -0.0759  0.2840  0.4210
 6826TIP3   OH241968   1.275   0.545   0.195  0.4723 -0.3073 -0.3536
 6826TIP3    H141969   1.304   0.477   0.135  1.3731  0.3329 -0.6420
 6826TIP3    H241970   1.353   0.570   0.244  0.3731  1.2732 -0.9866
 6827TIP3   OH241971   3.948   2.063   1.401  0.0142 -0.2368  0.3566
 6827TIP3    H141972   4.027   2.014   1.425  0.6584 -0.6710 -2.3645
 6827TIP3    H241973   3.981   2.140   1.355 -1.1152 -0.3726 -0.7213
 6828TIP3   OH241974   2.032   6.177  13.061  0.1122 -0.3111  0.7893
 6828TIP3    H141975   1.950   6.138  13.030  0.3934  0.0344 -0.3786
 6828TIP3    H241976   2.044   6.254  13.006  0.2555  0.6985  2.2091
 6829TIP3   OH241977   1.975   5.364  12.598 -0.4957  0.2669  0.5097
 6829TIP3    H141978   1.987   5.293  12.535 -0.9526 -0.9300  1.7600
 6829TIP3    H241979   2.052   5.420  12.586 -1.8036  1.4848 -2.9080
 6830TIP3   OH241980   2.722   4.870  16.316 -0.0722 -1.0383  0.1815
 6830TIP3    H141981   2.758   4.864  16.228  0.7098  0.2250  0.4082
 6830TIP3    H241982   2.727   4.963  16.338 -0.1293 -1.3647  1.6072
 6831TIP3   OH241983   6.458   3.422  11.615  0.2118 -0.1243 -0.2820
 6831TIP3    H141984   6.428   3.458  11.699 -0.9810  1.6706 -1.4462
 6831TIP3    H241985   6.402   3.346  11.600 -0.0394 -0.0381  0.2075
 6832TIP3   OH241986   1.690   6.377  13.583 -0.4590  0.2805 -0.6879
 6832TIP3    H141987   1.761   6.377  13.647  0.7714 -1.2326 -2.0078
 6832TIP3    H241988   1.628   6.442  13.616  1.8323  2.1272  0.1526
 6833TIP3   OH241989   4.274   0.647  11.055 -0.4856 -0.4955  0.3041
 6833TIP3    H141990   4.323   0.719  11.015 -0.2756  0.0361  1.4826
 6833TIP3    H241991   4.338   0.602  11.110 -1.6853  1.3586  3.3751
 6834TIP3   OH241992   5.638   1.544  14.529  0.8519  0.2186 -0.3648
 6834TIP3    H141993   5.667   1.619  14.581 -0.0694  0.3626 -0.0382
 6834TIP3    H241994   5.701   1.475  14.549  1.0013  0.5383  0.2965
 6835TIP3   OH241995   1.254   2.720   1.160 -0.0100 -0.3749  0.2410
 6835TIP3    H141996   1.175   2.717   1.213 -0.5512  1.9541 -0.3793
 6835TIP3    H241997   1.326   2.708   1.222 -0.7299  0.3792  1.2326
 6836TIP3   OH241998   1.182   5.065   0.621 -0.2163  0.0952 -0.0578
 6836TIP3    H141999   1.270   5.062   0.582 -0.4895 -0.3419 -0.6493
 6836TIP3    H242000   1.179   4.989   0.679 -0.2268  0.0782 -0.0811
 6837TIP3   OH242001   1.095   0.058   2.740 -0.8553  0.3751 -0.0754
 6837TIP3    H142002   1.187   0.041   2.758 -0.8156 -0.2016 -0.8208
 6837TIP3    H242003   1.068   0.119   2.809 -0.0564  0.1415  0.4477
 6838TIP3   OH242004   6.510   0.991   3.645 -0.0981 -0.1077  0.4051
 6838TIP3    H142005   6.479   1.033   3.725 -0.9627 -0.7852  0.4369
 6838TIP3    H242006   6.587   1.042   3.619 -0.1508  0.4655  1.3476
 6839TIP3   OH242007   1.069   5.132  16.383  0.3781  0.1832 -0.1755
 6839TIP3    H142008   1.030   5.203  16.433  0.2850  0.8204 -1.1462
 6839TIP3    H242009   1.009   5.058  16.394 -0.7831  0.9746 -1.1524
 6840TIP3   OH242010   5.826   4.140   5.716 -0.9007  0.4301 -0.1676
 6840TIP3    H142011   5.794   4.053   5.692 -1.2263 -0.2161  2.4282
 6840TIP3    H242012   5.747   4.192   5.729 -0.8114  0.2536  1.2135
 6841TIP3   OH242013   3.080   1.110  12.312 -0.0225 -0.1358 -0.3496
 6841TIP3    H142014   3.069   1.022  12.276 -1.3917 -0.0978 -0.0796
 6841TIP3    H242015   3.148   1.100  12.379  3.1815 -0.0194 -3.4613
 6842TIP3   OH242016   1.077   3.143  12.076 -0.1764 -0.2536  0.4494
 6842TIP3    H142017   1.019   3.073  12.047  1.3514 -0.9671 -0.9628
 6842TIP3    H242018   1.150   3.142  12.014  1.9508 -0.1803  2.8289
 6843TIP3   OH242019   6.811   6.298  12.182  0.0868 -0.5023  0.4656
 6843TIP3    H142020   6.789   6.389  12.162  1.1219 -0.5768 -1.0659
 6843TIP3    H242021   6.822   6.257  12.097  1.0107 -1.7357  1.1707
 6844TIP3   OH242022   5.644   1.450   3.475 -0.4993  0.2956 -0.3493
 6844TIP3    H142023   5.589   1.435   3.552  1.3728  0.9312  1.1438
 6844TIP3    H242024   5.649   1.545   3.468 -0.2618  0.2383 -0.9588
 6845TIP3   OH242025   2.536   0.810  12.511  0.2712  0.2950 -0.5924
 6845TIP3    H142026   2.495   0.893  12.485  0.0532  0.2551 -0.3752
 6845TIP3    H242027   2.553   0.765  12.428  1.8151  1.2343 -0.7908
 6846TIP3   OH242028   4.124   4.419   1.986  0.0541  0.1592  0.4936
 6846TIP3    H142029   4.120   4.513   2.003 -2.1680  0.6329 -2.1916
 6846TIP3    H242030   4.032   4.392   1.982  0.6649 -1.9205  0.2549
 6847TIP3   OH242031   5.906   4.795  16.326  0.0448 -0.4179  0.3387
 6847TIP3    H142032   5.813   4.807  16.346  0.1424  2.2967 -0.5868
 6847TIP3    H242033   5.951   4.861  16.380  1.2364 -0.3038 -0.7638
 6848TIP3   OH242034   6.761   3.438  11.522  1.0025 -0.2901 -0.2226
 6848TIP3    H142035   6.797   3.418  11.608  0.6981 -1.7583 -0.4334
 6848TIP3    H242036   6.684   3.493  11.541  2.1228  1.1362  0.3187
 6849TIP3   OH242037   0.833   5.178   5.374 -0.0894 -0.2557 -0.4667
 6849TIP3    H142038   0.796   5.259   5.337 -0.4693  0.0848  0.6294
 6849TIP3    H242039   0.928   5.191   5.368 -0.1473  0.0356 -0.8053
 6850TIP3   OH242040   3.376   6.160   4.407  0.1047 -0.3992  0.4820
 6850TIP3    H142041   3.334   6.132   4.325 -0.4118 -0.1789  0.6706
 6850TIP3    H242042   3.310   6.142   4.474  0.4724 -0.4324  0.8278
 6851TIP3   OH242043   3.295   1.490  11.241  0.4212  0.1977  0.5435
 6851TIP3    H142044   3.225   1.534  11.192  1.3380  2.1616  0.9654
 6851TIP3    H242045   3.375   1.508  11.191  0.6998 -1.8757  0.1714
 6852TIP3   OH242046   0.322   6.365   1.792 -0.3012  0.1017  0.1083
 6852TIP3    H142047   0.232   6.336   1.805  0.4730 -2.2349  0.4861
 6852TIP3    H242048   0.366   6.347   1.875  0.9583 -0.5129 -0.6752
 6853TIP3   OH242049   6.604   4.521  15.365 -0.2049  0.4625 -0.2469
 6853TIP3    H142050   6.677   4.567  15.405  0.0815  0.5791 -0.8902
 6853TIP3    H242051   6.645   4.449  15.316 -0.6299 -0.3424  0.5760
 6854TIP3   OH242052   1.123   4.432  15.504 -0.1912 -0.2400 -0.2103
 6854TIP3    H142053   1.182   4.506  15.493  0.8670 -1.3289 -2.0733
 6854TIP3    H242054   1.169   4.373  15.563 -0.0385 -0.4265 -0.5128
 6855TIP3   OH242055   6.421   1.626  14.340 -0.3272 -0.0114  0.2277
 6855TIP3    H142056   6.446   1.647  14.250 -2.0130 -1.8063 -0.6775
 6855TIP3    H242057   6.351   1.561  14.332  0.5314 -1.3473  2.8507
 6856TIP3   OH242058   6.689   0.473  13.767  0.1627 -0.4157  0.0033
 6856TIP3    H142059   6.649   0.464  13.680  0.4006 -2.5477  0.0870
 6856TIP3    H242060   6.624   0.438  13.827  1.0198 -1.3381  0.4167
 6857TIP3   OH242061   4.060   5.228  14.431 -0.0261  0.0495  0.4605
 6857TIP3    H142062   4.117   5.178  14.373  2.1575  2.2189  0.6523
 6857TIP3    H242063   4.113   5.244  14.509 -1.0860  1.6167  0.8863
 6858TIP3   OH242064   0.008   3.549  13.840  0.2823  0.6292 -0.4095
 6858TIP3    H142065  -0.058   3.577  13.776 -1.8446 -3.1882 -0.0723
 6858TIP3    H242066   0.002   3.613  13.910 -1.7642  1.4554 -1.2874
 6859TIP3   OH242067   1.065   4.013  10.869  0.4723 -0.1615  0.1764
 6859TIP3    H142068   0.997   3.958  10.909 -1.0897  3.2003  2.3332
 6859TIP3    H242069   1.018   4.068  10.807  1.1627  2.0985  1.5774
 6860TIP3   OH242070   6.407   6.484   0.121  0.9248  0.0398 -0.4445
 6860TIP3    H142071   6.428   6.396   0.151 -0.6186  0.4851  2.1180
 6860TIP3    H242072   6.404   6.536   0.202  1.5643  2.3848 -1.8981
 6861TIP3   OH242073   6.236   4.204   4.178 -0.2623  0.0558  0.3699
 6861TIP3    H142074   6.323   4.171   4.153 -0.4186 -0.1905  0.1516
 6861TIP3    H242075   6.240   4.211   4.274 -0.8825 -2.4795  0.6183
 6862TIP3   OH242076   6.294   3.526   4.371 -0.4092  0.0296  0.4653
 6862TIP3    H142077   6.203   3.557   4.368 -0.2744  0.3576 -0.6213
 6862TIP3    H242078   6.286   3.431   4.367 -0.6459  0.1227 -2.4665
 6863TIP3   OH242079   4.721   5.340  16.879 -0.1970 -0.0095  0.2621
 6863TIP3    H142080   4.787   5.410  16.885 -0.9641  0.6653  1.0729
 6863TIP3    H242081   4.646   5.382  16.837 -0.0673 -0.8138 -0.7937
 6864TIP3   OH242082   6.707   1.066  12.162  0.5149 -0.4194  0.1232
 6864TIP3    H142083   6.686   1.017  12.083  0.0191  1.1480 -0.7583
 6864TIP3    H242084   6.750   1.004  12.219 -0.3435 -1.9340 -0.8475
 6865TIP3   OH242085   4.120   1.201  14.950 -0.6142  0.5096  0.2956
 6865TIP3    H142086   4.067   1.280  14.945 -0.0985  0.7187 -2.9889
 6865TIP3    H242087   4.072   1.142  15.009 -0.9350  3.2414  2.8826
 6866TIP3   OH242088   4.639   1.640  14.069  0.1057  0.4693 -0.2157
 6866TIP3    H142089   4.680   1.709  14.016  0.3190 -0.5404 -1.3852
 6866TIP3    H242090   4.554   1.626  14.027 -0.3863  0.7464  0.6608
 6867TIP3   OH242091   6.193   2.153   3.243 -0.2873  0.1789 -0.2731
 6867TIP3    H142092   6.156   2.105   3.168  0.5130  1.8254 -1.7609
 6867TIP3    H242093   6.122   2.208   3.274 -0.4903 -0.1770 -0.1052
 6868TIP3   OH242094   0.378   2.386   4.105  0.5343 -0.2549 -0.0933
 6868TIP3    H142095   0.324   2.311   4.083  0.7160 -1.5602  3.6506
 6868TIP3    H242096   0.466   2.350   4.117  0.7184  0.6017  1.2524
 6869TIP3   OH242097   4.442   1.404  17.072 -0.2047 -0.5370  0.4267
 6869TIP3    H142098   4.505   1.346  17.114  1.0084  0.7250  0.3898
 6869TIP3    H242099   4.479   1.421  16.985 -0.8115 -0.1372  0.2430
 6870TIP3   OH242100   6.491   5.068   3.600 -0.3489  0.1334 -0.8443
 6870TIP3    H142101   6.421   5.114   3.646 -1.6362  0.6477 -3.2210
 6870TIP3    H242102   6.503   5.118   3.519  0.3727 -1.9342 -2.0498
 6871TIP3   OH242103   4.523   1.849  15.795 -0.0770 -0.2847 -0.0294
 6871TIP3    H142104   4.525   1.880  15.704 -1.1350 -1.4082 -0.4536
 6871TIP3    H242105   4.610   1.867  15.829  0.3286  0.1361 -1.2724
 6872TIP3   OH242106   0.987   3.695  13.690 -0.3089  0.5558 -0.0751
 6872TIP3    H142107   1.057   3.682  13.753  0.8914 -0.7736 -1.6193
 6872TIP3    H242108   0.997   3.786  13.661 -0.0907  0.7866  0.7330
 6873TIP3   OH242109   2.888   0.441  12.452  0.1370  0.3141  0.4020
 6873TIP3    H142110   2.812   0.392  12.486  0.9462 -1.9667 -0.9585
 6873TIP3    H242111   2.852   0.498  12.384 -0.3019 -1.1509 -0.6139
 6874TIP3   OH242112   5.223   5.548   4.600 -0.4072  0.4851 -0.2227
 6874TIP3    H142113   5.253   5.469   4.555 -0.2713  0.2700  0.2418
 6874TIP3    H242114   5.295   5.570   4.660  0.5300  2.2287 -1.9242
 6875TIP3   OH242115   2.654   6.146  11.338 -0.2616 -0.4694  0.7865
 6875TIP3    H142116   2.640   6.187  11.253 -1.0691 -1.3303  0.5032
 6875TIP3    H242117   2.735   6.187  11.371 -1.0372  1.3402  0.5135
 6876TIP3   OH242118   2.252   0.521  15.620 -0.4731  0.9511 -0.2332
 6876TIP3    H142119   2.215   0.517  15.532 -2.9683 -0.0601  0.8303
 6876TIP3    H242120   2.199   0.460  15.671  1.5382  0.8257  1.7711
 6877TIP3   OH242121   2.782   4.402  17.230 -0.3696  0.2735 -0.1890
 6877TIP3    H142122   2.763   4.311  17.207  0.5152  0.4646 -1.8111
 6877TIP3    H242123   2.832   4.397  17.311  0.7003 -0.7918 -0.8817
 6878TIP3   OH242124   0.887   2.391   3.663 -0.3215 -0.1947  0.0036
 6878TIP3    H142125   0.915   2.378   3.572  2.7556  1.1529  0.6752
 6878TIP3    H242126   0.811   2.448   3.657 -0.0270  0.0402 -1.7371
 6879TIP3   OH242127   5.011   5.675  14.580  0.0948  1.1171 -0.0865
 6879TIP3    H142128   4.963   5.716  14.507  1.9572  1.7622 -0.9984
 6879TIP3    H242129   5.081   5.738  14.601  1.4502 -0.4421  0.1971
 6880TIP3   OH242130   6.807   0.226   5.336 -0.3089  0.1873 -0.6887
 6880TIP3    H142131   6.888   0.254   5.379  1.5789 -0.3103 -3.7536
 6880TIP3    H242132   6.812   0.130   5.336 -1.0928  0.1407 -0.5991
 6881TIP3   OH242133   1.532   0.554  14.952 -0.3507  0.2837  0.2896
 6881TIP3    H142134   1.582   0.475  14.931 -1.4676  0.2373 -2.4018
 6881TIP3    H242135   1.441   0.529  14.937 -0.5893  2.6009 -2.4931
 6882TIP3   OH242136   4.226   5.257  16.719 -0.4268  0.4079  0.2641
 6882TIP3    H142137   4.256   5.166  16.725 -0.0443  0.5183 -0.0128
 6882TIP3    H242138   4.144   5.258  16.770  0.0475  0.1178  1.0488
 6883TIP3   OH242139   1.167   5.165   3.685 -0.1125 -0.1365  0.5306
 6883TIP3    H142140   1.173   5.181   3.780  0.1742  1.7093  0.2233
 6883TIP3    H242141   1.073   5.162   3.667 -0.2323  3.6119  0.2574
 6884TIP3   OH242142   3.480   5.156  17.050 -0.5773 -0.2233  0.7051
 6884TIP3    H142143   3.529   5.147  16.968  0.6840  1.9049  1.1928
 6884TIP3    H242144   3.434   5.072  17.059 -0.2103 -0.7546 -1.8224
 6885TIP3   OH242145   0.995   0.319  14.422 -0.3898  0.3046  0.1757
 6885TIP3    H142146   0.987   0.351  14.512  2.7504 -0.7374  0.9231
 6885TIP3    H242147   1.057   0.380  14.381  0.4880 -0.9502 -0.3776
 6886TIP3   OH242148   3.995   1.166  12.499  0.1786 -0.1048 -0.3029
 6886TIP3    H142149   3.988   1.108  12.575  1.5484  0.7146  0.4746
 6886TIP3    H242150   4.088   1.162  12.476 -0.0746  0.3250 -1.4134
 6887TIP3   OH242151   5.970   3.180  11.077 -0.4215 -0.2817  0.0606
 6887TIP3    H142152   6.015   3.097  11.063 -1.0465 -0.7224  0.6485
 6887TIP3    H242153   5.998   3.235  11.003  1.3771 -0.4154  0.6167
 6888TIP3   OH242154   2.572   2.453   4.663  0.0348  0.0997  0.0862
 6888TIP3    H142155   2.667   2.458   4.671 -0.0145 -0.5126  1.1511
 6888TIP3    H242156   2.541   2.541   4.684  0.4370  0.5897 -1.3777
 6889TIP3   OH242157   1.135   5.779  17.186 -0.3770  0.0268  0.3094
 6889TIP3    H142158   1.169   5.866  17.206 -1.0074  0.4086 -0.2888
 6889TIP3    H242159   1.213   5.727  17.165  0.2066 -0.0834  2.5687
 6890TIP3   OH242160   6.359   2.442   5.472  0.6610  0.4351  0.4390
 6890TIP3    H142161   6.329   2.363   5.518  1.5798  0.3596  0.9047
 6890TIP3    H242162   6.410   2.490   5.537  0.2585  1.3319  0.1010
 6891TIP3   OH242163   2.997   3.152   0.785  0.2288 -0.1064  0.8534
 6891TIP3    H142164   2.930   3.084   0.797 -1.6114  1.5298  0.1935
 6891TIP3    H242165   3.003   3.195   0.870 -0.1645  0.2570  0.7029
 6892TIP3   OH242166   4.610   2.890  12.746 -0.0938 -0.2324 -0.3669
 6892TIP3    H142167   4.694   2.935  12.747 -0.3951  0.3200 -0.2442
 6892TIP3    H242168   4.618   2.821  12.812  0.5298 -0.6665 -0.8902
 6893TIP3   OH242169   2.056   5.091  10.991 -0.2619  0.1711 -0.5431
 6893TIP3    H142170   2.151   5.079  10.993 -0.3605 -1.3540 -2.4480
 6893TIP3    H242171   2.042   5.170  10.938 -0.0636  0.0613 -0.7604
 6894TIP3   OH242172   5.870   3.650  12.139 -0.1002  0.1816 -0.5460
 6894TIP3    H142173   5.875   3.711  12.212  0.6319  0.3477 -0.7370
 6894TIP3    H242174   5.955   3.655  12.096 -0.3221 -0.3471 -1.0672
 6895TIP3   OH242175   0.986   1.456   1.364 -0.4184  0.3583 -0.5419
 6895TIP3    H142176   0.994   1.535   1.310 -0.6557  0.2021 -0.8084
 6895TIP3    H242177   0.984   1.489   1.454 -2.7976  0.8466 -0.7202
 6896TIP3   OH242178   0.584   2.112  17.023 -0.6374  0.2327 -0.3073
 6896TIP3    H142179   0.498   2.074  17.043 -1.8857  1.2431 -3.5863
 6896TIP3    H242180   0.630   2.042  16.976  0.4035 -0.3175  1.4713
 6897TIP3   OH242181   2.365   5.186  16.359 -0.4344 -0.0540 -0.2709
 6897TIP3    H142182   2.298   5.164  16.294 -1.5564  0.3870  0.7272
 6897TIP3    H242183   2.316   5.207  16.438  0.8811  0.4480  0.4218
 6898TIP3   OH242184   4.745   2.809   1.281  0.3352 -0.0787 -0.0601
 6898TIP3    H142185   4.744   2.851   1.367 -0.8180  1.4511 -0.8133
 6898TIP3    H242186   4.822   2.752   1.284  0.1393 -0.2559  2.0829
 6899TIP3   OH242187   2.844   1.592  13.176  0.0692 -0.5842  0.3354
 6899TIP3    H142188   2.848   1.670  13.231  0.7920 -0.3048 -0.1011
 6899TIP3    H242189   2.817   1.625  13.090 -2.9834 -1.2709  0.9913
 6900TIP3   OH242190   3.296   5.496   5.144  0.3498  0.0758 -1.0103
 6900TIP3    H142191   3.222   5.491   5.084 -0.4535 -1.8726  0.0769
 6900TIP3    H242192   3.257   5.491   5.231  1.6424  0.5835 -0.3861
 6901TIP3   OH242193   1.708   6.059  16.936  0.6567  0.0624 -0.3454
 6901TIP3    H142194   1.624   6.092  16.902  1.1401 -0.7889 -2.4287
 6901TIP3    H242195   1.729   5.985  16.880  2.5200 -0.1120  0.5551
 6902TIP3   OH242196   1.294   3.631   1.691 -0.1514 -0.2290 -0.5969
 6902TIP3    H142197   1.349   3.552   1.691  0.8230  0.4493 -0.7871
 6902TIP3    H242198   1.255   3.633   1.604  0.3605 -0.1345 -0.8276
 6903TIP3   OH242199   4.684   6.042  15.462  0.3239 -0.2104  0.0860
 6903TIP3    H142200   4.761   5.989  15.480  1.0981  0.0078 -2.4376
 6903TIP3    H242201   4.636   5.994  15.395 -1.6312 -0.2247  1.4500
 6904TIP3   OH242202   5.372   4.070  15.252  0.4189 -0.1863  0.6677
 6904TIP3    H142203   5.301   4.022  15.294  0.4275  1.0452  2.1324
 6904TIP3    H242204   5.364   4.159  15.286  1.0532  0.5987 -1.1839
 6905TIP3   OH242205   2.815   0.799   2.696  0.1569 -0.1201 -0.0498
 6905TIP3    H142206   2.825   0.833   2.785 -1.0331  0.8207 -0.2613
 6905TIP3    H242207   2.727   0.763   2.694  0.0056  0.2918 -0.9880
 6906TIP3   OH242208   5.852   2.191  13.499  0.5753 -0.0435  0.7560
 6906TIP3    H142209   5.859   2.283  13.472 -0.0495 -0.6771 -1.7196
 6906TIP3    H242210   5.776   2.188  13.556 -0.9010  0.5685 -1.1401
 6907TIP3   OH242211   4.730   0.105  16.437  0.4840 -0.1401 -0.1834
 6907TIP3    H142212   4.732   0.149  16.352  0.1304  0.9682  0.3705
 6907TIP3    H242213   4.776   0.164  16.496 -1.1956  0.1754  0.8702
 6908TIP3   OH242214   1.192   3.325  12.586 -0.0524 -0.3505  0.7132
 6908TIP3    H142215   1.106   3.298  12.554  0.3988 -0.4161 -0.4450
 6908TIP3    H242216   1.177   3.412  12.623 -0.6417 -0.4153  0.6372
 6909TIP3   OH242217   2.568   1.255  12.796 -0.0357  0.3931  0.5048
 6909TIP3    H142218   2.546   1.173  12.839  2.1465 -1.8992 -2.5992
 6909TIP3    H242219   2.656   1.276  12.828 -0.4242  1.3488  0.9771
 6910TIP3   OH242220   6.050   0.400   4.993 -0.3928  0.4512 -0.0149
 6910TIP3    H142221   5.960   0.400   5.026 -0.9605  2.1160 -1.4821
 6910TIP3    H242222   6.102   0.364   5.065 -2.1096  0.3304  1.1916
 6911TIP3   OH242223   4.626   0.249   4.767 -0.5048 -0.4909  0.5883
 6911TIP3    H142224   4.706   0.198   4.779  0.1300 -0.1373 -1.9541
 6911TIP3    H242225   4.564   0.211   4.830  0.4482 -3.3373 -0.1211
 6912TIP3   OH242226   5.905   2.631  16.970  0.1555  0.4512 -0.3159
 6912TIP3    H142227   5.822   2.622  17.017  0.4728  4.2083  1.0922
 6912TIP3    H242228   5.970   2.589  17.027 -0.2017  0.8229  0.3669
 6913TIP3   OH242229   5.056   6.125  17.230  0.5782  0.0038 -0.5791
 6913TIP3    H142230   5.003   6.204  17.245  0.6771  0.0414 -0.4230
 6913TIP3    H242231   5.032   6.066  17.301 -0.1459 -0.4540 -1.1978
 6914TIP3   OH242232   0.321   2.389  17.024  0.6129  0.2153 -0.0640
 6914TIP3    H142233   0.402   2.399  16.974  0.2687 -0.3063 -0.7413
 6914TIP3    H242234   0.295   2.298  17.009 -0.2419  0.4564 -0.0716
 6915TIP3   OH242235   0.415   3.695  11.419  0.1042  0.4156 -0.3137
 6915TIP3    H142236   0.390   3.787  11.421 -0.3003  0.4188 -3.3867
 6915TIP3    H242237   0.366   3.655  11.491 -1.2669  2.2022 -0.2167
 6916TIP3   OH242238   1.790   0.674   2.522  0.1027  0.0892  0.0893
 6916TIP3    H142239   1.793   0.702   2.614  1.4710 -1.2766  0.4839
 6916TIP3    H242240   1.876   0.634   2.507 -0.5590 -0.7693 -1.4511
 6917TIP3   OH242241   6.256   5.151  14.513  0.2634 -0.4469 -0.6385
 6917TIP3    H142242   6.300   5.235  14.497 -1.0344  0.3133 -0.2933
 6917TIP3    H242243   6.309   5.087  14.466  2.0877  0.3553  0.2985
 6918TIP3   OH242244   6.248   3.500   0.386 -0.1275  0.3155 -0.3551
 6918TIP3    H142245   6.276   3.591   0.400  0.9876 -0.0034 -0.5471
 6918TIP3    H242246   6.184   3.506   0.315 -0.0263  0.9487 -0.3973
 6919TIP3   OH242247   6.501   6.560   4.005  0.7037 -0.3783 -0.1134
 6919TIP3    H142248   6.513   6.531   4.096  0.4159  0.5298  0.2258
 6919TIP3    H242249   6.500   6.479   3.954  1.0959 -0.8862  0.6655
 6920TIP3   OH242250   0.805   1.428   3.906  0.1178  0.4606  0.3011
 6920TIP3    H142251   0.751   1.351   3.923 -1.5253  1.2801 -1.0599
 6920TIP3    H242252   0.816   1.469   3.992  1.7639 -1.7368  1.1901
 6921TIP3   OH242253   3.782   2.053   0.357  0.2568  0.0474  0.2636
 6921TIP3    H142254   3.748   2.079   0.443  0.7171 -0.5078  0.6232
 6921TIP3    H242255   3.727   1.980   0.330  0.7178 -0.4053  0.5327
 6922TIP3   OH242256   2.734   3.177   1.124 -0.1789 -0.1986  0.0360
 6922TIP3    H142257   2.735   3.109   1.192 -1.6301  1.0778  1.3938
 6922TIP3    H242258   2.823   3.180   1.092  0.4016 -1.2782  1.4793
 6923TIP3   OH242259   3.531   0.725   2.563  0.2870 -0.2577 -0.7797
 6923TIP3    H142260   3.619   0.752   2.591  0.8116 -1.4746 -1.1970
 6923TIP3    H242261   3.514   0.645   2.614 -0.5441 -0.0732 -0.7650
 6924TIP3   OH242262   6.473   4.741  14.443  0.0854  0.6247  0.4484
 6924TIP3    H142263   6.543   4.746  14.379 -0.2484 -1.1387 -0.0686
 6924TIP3    H242264   6.515   4.706  14.522 -0.5870 -2.4284 -0.4854
 6925TIP3   OH242265   2.118   5.217   2.327  0.4210 -0.1785 -0.2938
 6925TIP3    H142266   2.028   5.227   2.358  0.6703 -0.4565  0.5076
 6925TIP3    H242267   2.160   5.300   2.348  0.2409  0.1082 -1.0493
 6926TIP3   OH242268   0.860   5.329  12.263 -0.1613  0.2825 -0.6235
 6926TIP3    H142269   0.902   5.403  12.306 -1.2282  0.7131 -0.3290
 6926TIP3    H242270   0.772   5.326  12.299 -0.5128 -0.4004 -1.5172
 6927TIP3   OH242271   4.581   1.746   3.295 -0.2363  0.5029 -0.9078
 6927TIP3    H142272   4.632   1.666   3.300 -1.4988 -0.2097  1.1464
 6927TIP3    H242273   4.510   1.726   3.234 -0.1165  0.3415 -0.9954
 6928TIP3   OH242274   1.297   2.241   2.715  0.1152  0.5769  0.1942
 6928TIP3    H142275   1.344   2.158   2.727 -0.1160  0.5441  0.8601
 6928TIP3    H242276   1.272   2.240   2.622 -1.8259 -1.1502  0.6926
 6929TIP3   OH242277   3.928   3.328   3.003 -0.1515  0.0516 -0.4214
 6929TIP3    H142278   3.843   3.367   3.024 -1.3520 -1.7411 -1.7596
 6929TIP3    H242279   3.985   3.403   2.986 -1.9216  1.2612 -1.2205
 6930TIP3   OH242280   5.988   4.144   1.365 -0.4445 -0.2380 -0.0232
 6930TIP3    H142281   6.054   4.076   1.377  0.8064  0.9250 -0.1654
 6930TIP3    H242282   5.938   4.117   1.288 -0.4514 -1.3698  0.3704
 6931TIP3   OH242283   6.081   6.327   1.931 -0.0949 -1.1115 -0.0379
 6931TIP3    H142284   6.044   6.337   2.019  0.3865 -0.3059  0.0867
 6931TIP3    H242285   6.173   6.351   1.942  0.3077 -2.4595 -0.4699
 6932TIP3   OH242286   4.339   5.370  10.701  0.4176 -0.2966  0.2115
 6932TIP3    H142287   4.350   5.389  10.607  0.1509  1.1580  0.4582
 6932TIP3    H242288   4.403   5.302  10.719  0.5575 -0.5059 -1.0115
 6933TIP3   OH242289   0.144   2.371  13.233 -0.1907 -0.4416  0.8830
 6933TIP3    H142290   0.144   2.406  13.144  0.4866 -2.1487  0.1945
 6933TIP3    H242291   0.166   2.278  13.222 -2.2040 -1.1643  2.6270
 6934TIP3   OH242292   1.969   1.328  14.625  0.2003 -0.1865  0.6831
 6934TIP3    H142293   1.971   1.424  14.619  0.3697 -0.2096  0.3701
 6934TIP3    H242294   2.057   1.305  14.654  0.6146 -0.3473 -0.6834
 6935TIP3   OH242295   5.369   5.511  11.087  0.2383  0.5654 -0.3324
 6935TIP3    H142296   5.355   5.417  11.075  0.9514  0.5519 -1.0595
 6935TIP3    H242297   5.444   5.531  11.032 -0.7527  1.8236 -1.2386
 6936TIP3   OH242298   4.134   3.864   4.535 -0.2425  0.2522  0.0818
 6936TIP3    H142299   4.099   3.950   4.514  1.0176  0.5869 -0.7024
 6936TIP3    H242300   4.229   3.875   4.530  0.0054 -0.5539  2.4419
 6937TIP3   OH242301   1.788   6.420   6.131 -0.0149  0.1601  0.0525
 6937TIP3    H142302   1.793   6.514   6.110  0.6286 -0.3088 -2.0554
 6937TIP3    H242303   1.879   6.396   6.149 -0.2438  0.0306  1.0374
 6938TIP3   OH242304   3.867   2.113  13.725 -0.0875 -0.2867 -0.0328
 6938TIP3    H142305   3.835   2.135  13.812 -0.6667  0.3068 -0.3911
 6938TIP3    H242306   3.826   2.029  13.704  0.1443 -0.4866  0.3124
 6939TIP3   OH242307   0.258   6.532  11.218 -0.0627  0.1615 -0.1263
 6939TIP3    H142308   0.305   6.589  11.158 -0.0758 -2.4650 -2.7578
 6939TIP3    H242309   0.277   6.443  11.187 -4.3825 -1.1050  0.5031
 6940TIP3   OH242310   5.191   6.789   1.641 -0.0207  0.1760 -0.5901
 6940TIP3    H142311   5.124   6.724   1.621 -1.3443  1.1328  0.6452
 6940TIP3    H242312   5.225   6.763   1.726  1.6862 -0.7025 -1.5214
 6941TIP3   OH242313   3.639   6.566   6.202  0.5143  0.3132 -0.4685
 6941TIP3    H142314   3.634   6.471   6.188  2.3189  0.1837 -0.2931
 6941TIP3    H242315   3.603   6.580   6.289 -0.3571 -0.1190 -0.7454
 6942TIP3   OH242316   5.534   4.051   4.564 -0.8718 -0.3438  0.1833
 6942TIP3    H142317   5.474   4.026   4.494  0.9206  0.3921 -1.6467
 6942TIP3    H242318   5.592   3.975   4.574 -0.1083  0.1834 -0.2484
 6943TIP3   OH242319   2.378   0.535   2.833 -0.0342  0.0543  0.3859
 6943TIP3    H142320   2.405   0.449   2.866 -1.4948 -0.4371  0.3266
 6943TIP3    H242321   2.301   0.517   2.780  0.6865  1.1843 -1.0999
 6944TIP3   OH242322   6.303   0.200  13.495  0.8651 -0.6967 -0.0445
 6944TIP3    H142323   6.393   0.174  13.473  0.8466  0.5800 -1.7479
 6944TIP3    H242324   6.308   0.296  13.503 -0.0222 -0.7724  1.4080
 6945TIP3   OH242325   0.507   2.452   3.474 -0.1493  0.3234  0.0230
 6945TIP3    H142326   0.528   2.367   3.513 -0.2165  0.3566  0.1310
 6945TIP3    H242327   0.509   2.513   3.547  1.0237  0.6095 -0.2319
 6946TIP3   OH242328   5.562   0.453   2.108  0.2186  0.1576 -0.3185
 6946TIP3    H142329   5.522   0.536   2.134  1.3779  0.5572  0.2315
 6946TIP3    H242330   5.542   0.393   2.180  0.2737  0.2437 -0.2320
 6947TIP3   OH242331   3.379   3.171   0.857  0.0103  0.0192 -0.5016
 6947TIP3    H142332   3.373   3.197   0.948  1.3890  0.4022 -0.5140
 6947TIP3    H242333   3.386   3.253   0.808  2.0877 -0.2687 -0.7194
 6948TIP3   OH242334   3.189   1.360   1.990  0.0010 -0.0730  0.1647
 6948TIP3    H142335   3.186   1.430   1.925 -0.5484 -0.4317 -0.1982
 6948TIP3    H242336   3.283   1.347   2.007  0.0838  1.1160  0.6289
 6949TIP3   OH242337   0.190   3.688  11.863 -0.2779  0.4288 -0.1104
 6949TIP3    H142338   0.177   3.764  11.919  0.7153  0.7470 -0.2984
 6949TIP3    H242339   0.227   3.622  11.921  0.9331  0.8220 -0.4220
 6950TIP3   OH242340   0.525   1.701  14.923  0.1728  0.0051  0.0054
 6950TIP3    H142341   0.483   1.618  14.942  0.0147  0.3666  1.2810
 6950TIP3    H242342   0.617   1.679  14.908  0.5629 -0.1870  2.4104
 6951TIP3   OH242343   5.522   4.312   4.493 -0.1135 -0.3624 -0.1540
 6951TIP3    H142344   5.549   4.232   4.539 -1.0084 -0.2253  0.6334
 6951TIP3    H242345   5.589   4.376   4.514 -1.1149  0.0465  1.9847
 6952TIP3   OH242346   3.977   0.424   5.590 -0.0151 -0.1319 -0.4739
 6952TIP3    H142347   3.974   0.512   5.628  0.0671 -0.8838  1.3137
 6952TIP3    H242348   4.070   0.400   5.593 -0.3342 -1.2165  1.2734
 6953TIP3   OH242349   6.606   0.595  10.847 -0.0508  0.6108 -0.1762
 6953TIP3    H142350   6.604   0.672  10.790  0.4117 -0.8699 -2.2431
 6953TIP3    H242351   6.651   0.528  10.795 -0.3353 -1.0185  1.6372
 6954TIP3   OH242352   6.500   1.014   5.680 -0.5026 -0.0618 -0.0575
 6954TIP3    H142353   6.557   0.954   5.631 -1.3901 -1.4297  0.5588
 6954TIP3    H242354   6.550   1.096   5.684  1.1604 -1.0486 -0.0587
 6955TIP3   OH242355   1.102   5.050   2.608  0.2630 -0.6944 -0.4002
 6955TIP3    H142356   1.017   5.015   2.581 -0.3938 -0.5196  1.3532
 6955TIP3    H242357   1.147   5.071   2.526 -1.7966  0.1653 -1.3435
 6956TIP3   OH242358   1.681   6.608  15.507  0.1566 -0.1522  0.4596
 6956TIP3    H142359   1.694   6.668  15.581  1.9062  0.2524 -0.1575
 6956TIP3    H242360   1.587   6.613  15.489 -0.1510  0.3493  2.1500
 6957TIP3   OH242361   3.637   0.882   2.911  0.1617  0.7624  0.0465
 6957TIP3    H142362   3.730   0.902   2.924  0.5487 -0.0726 -1.2565
 6957TIP3    H242363   3.638   0.797   2.866 -1.1696  1.4490 -1.3238
 6958TIP3   OH242364   1.498   2.526  13.791 -0.3873  0.4567  0.4807
 6958TIP3    H142365   1.563   2.565  13.850  1.3045 -1.2353 -0.2038
 6958TIP3    H242366   1.433   2.486  13.849 -0.0136  0.8587  1.1792
 6959TIP3   OH242367   6.427   1.052   4.951  0.0367  0.1911 -0.3220
 6959TIP3    H142368   6.349   1.018   4.995  0.4549  1.6561  1.6333
 6959TIP3    H242369   6.435   0.999   4.872 -1.4195 -1.7470  0.7765
 6960TIP3   OH242370   3.596   4.004   0.476  0.1960 -0.1741 -0.3469
 6960TIP3    H142371   3.676   4.055   0.469 -0.4460  0.5972 -2.3695
 6960TIP3    H242372   3.529   4.067   0.502 -0.0608 -0.5159 -0.1676
 6961TIP3   OH242373   2.526   3.313  16.855 -0.2386 -0.2401  0.2895
 6961TIP3    H142374   2.486   3.238  16.813 -1.0092  0.7662 -0.7985
 6961TIP3    H242375   2.602   3.277  16.902 -0.2247 -1.5793 -0.7494
 6962TIP3   OH242376   3.607   2.878  12.582 -0.5027 -0.3641 -0.0867
 6962TIP3    H142377   3.521   2.919  12.591  0.4549  1.1659  2.8752
 6962TIP3    H242378   3.668   2.943  12.617  1.8363 -1.5919 -1.7414
 6963TIP3   OH242379   0.978   3.964   1.197  0.0665  0.1920 -0.4890
 6963TIP3    H142380   1.015   3.992   1.114  0.3328  1.0993 -0.0773
 6963TIP3    H242381   0.896   4.014   1.204 -0.3409 -0.4643 -0.5704
 6964TIP3   OH242382   4.388   0.858  13.809  0.3842 -0.1417 -0.0036
 6964TIP3    H142383   4.302   0.819  13.820  0.9302 -0.3695  4.0279
 6964TIP3    H242384   4.379   0.948  13.841  1.4529  0.0995 -0.3355
 6965TIP3   OH242385   3.065   0.409   3.450 -1.2854  0.8180  0.5918
 6965TIP3    H142386   3.008   0.402   3.526  0.2275 -1.5070  1.5798
 6965TIP3    H242387   3.098   0.320   3.436  0.1805  1.6232 -1.4377
 6966TIP3   OH242388   1.632   2.102  16.914 -0.3213  0.0051  0.1556
 6966TIP3    H142389   1.590   2.184  16.887  1.7659  0.5018 -1.7842
 6966TIP3    H242390   1.585   2.034  16.865 -1.0780  0.1761  0.6309
 6967TIP3   OH242391   5.609   2.252  13.615 -0.2208  0.6915  0.1744
 6967TIP3    H142392   5.569   2.169  13.641  0.0925  0.4132 -0.2233
 6967TIP3    H242393   5.535   2.309  13.596 -0.4556  0.8534  1.5134
 6968TIP3   OH242394   0.930   1.353  11.921 -0.0220 -0.4429  0.5586
 6968TIP3    H142395   0.927   1.258  11.909  1.0171 -0.4035 -0.0509
 6968TIP3    H242396   0.911   1.389  11.835  2.6060 -0.1283  0.0914
 6969TIP3   OH242397   4.650   3.569   3.288  0.3085 -0.1372  0.1267
 6969TIP3    H142398   4.680   3.638   3.228  1.1237 -1.4363 -0.9841
 6969TIP3    H242399   4.712   3.571   3.361  1.1342 -0.5979 -0.5597
 6970TIP3   OH242400   5.264   1.145  11.685 -0.1714 -0.3124  0.1641
 6970TIP3    H142401   5.185   1.199  11.685 -0.3939 -0.6155  1.1555
 6970TIP3    H242402   5.232   1.056  11.695  0.3217 -0.3511  1.6289
 6971TIP3   OH242403   3.782   3.697  12.871 -1.1329 -0.1908 -0.5330
 6971TIP3    H142404   3.744   3.634  12.810  1.4627 -3.9395  1.4957
 6971TIP3    H242405   3.780   3.652  12.956  1.9187  1.9564  0.7541
 6972TIP3   OH242406   5.442   4.263   4.118 -0.0563 -0.4692  0.2175
 6972TIP3    H142407   5.503   4.199   4.154  1.0578 -1.0631 -2.5839
 6972TIP3    H242408   5.493   4.345   4.115  0.1869 -0.6529 -0.8797
 6973TIP3   OH242409   4.585   3.610  14.466 -0.1731  0.0765 -0.0316
 6973TIP3    H142410   4.566   3.527  14.422  0.6139 -0.7980  1.2548
 6973TIP3    H242411   4.605   3.586  14.556 -0.8715  1.7611  0.6061
 6974TIP3   OH242412   1.379   3.320   5.787  0.2625  0.0617 -0.3140
 6974TIP3    H142413   1.340   3.247   5.738  0.2677 -0.2248  0.1077
 6974TIP3    H242414   1.327   3.326   5.867  0.6996  0.0765 -0.0313
 6975TIP3   OH242415   2.431   0.155  12.551 -0.2125  0.2012  0.1667
 6975TIP3    H142416   2.336   0.142  12.551 -0.2258  0.2972  0.1365
 6975TIP3    H242417   2.468   0.067  12.541 -0.3219  0.2967 -1.3191
 6976TIP3   OH242418   0.536   5.438  16.487  0.3006  0.6303 -0.8239
 6976TIP3    H142419   0.593   5.445  16.411 -0.5565  0.1741 -1.5099
 6976TIP3    H242420   0.590   5.394  16.553  0.6130 -0.1584 -1.6007
 6977TIP3   OH242421   1.772   4.207   5.640  0.2713 -0.1026  0.1495
 6977TIP3    H142422   1.717   4.136   5.607  3.1582 -1.7982 -1.1813
 6977TIP3    H242423   1.823   4.168   5.711  1.3476  0.8293 -0.0970
 6978TIP3   OH242424   3.238   4.685  17.060 -0.5651 -0.0840 -0.2971
 6978TIP3    H142425   3.183   4.742  17.007  0.3712  1.1839  0.0690
 6978TIP3    H242426   3.252   4.608  17.005  1.3608  1.6907 -2.4283
 6979TIP3   OH242427   2.512   0.366  13.239  0.2669 -0.7491 -0.0400
 6979TIP3    H142428   2.418   0.358  13.222  0.1222  0.7547  0.0289
 6979TIP3    H242429   2.518   0.423  13.315  1.3696  2.6783 -2.5738
 6980TIP3   OH242430   0.624   6.563  16.518 -0.0655 -0.5488  0.0770
 6980TIP3    H142431   0.564   6.594  16.586 -0.7555 -0.3709 -0.6126
 6980TIP3    H242432   0.622   6.632  16.451  3.2168  0.9507  1.3992
 6981TIP3   OH242433   4.307   2.824   0.707  0.3864  0.1989  0.0664
 6981TIP3    H142434   4.290   2.829   0.801  1.8999 -0.6697  0.4024
 6981TIP3    H242435   4.403   2.819   0.700  0.3689  1.7334 -1.5869
 6982TIP3   OH242436   1.151   1.903  14.140  0.1271 -0.2304 -0.5127
 6982TIP3    H142437   1.073   1.855  14.165 -1.1082  1.9771  0.0629
 6982TIP3    H242438   1.127   1.947  14.058  1.3936 -0.9493 -1.3005
 6983TIP3   OH242439   2.308   4.437   3.900  0.3992 -0.3834 -0.0185
 6983TIP3    H142440   2.369   4.419   3.828  0.2589  1.2313 -0.5784
 6983TIP3    H242441   2.259   4.356   3.912  1.0842 -0.9658 -1.1203
 6984TIP3   OH242442   2.245   3.467  15.879  0.8130  0.3035  0.3043
 6984TIP3    H142443   2.275   3.557  15.892 -1.0584  0.9001  0.6923
 6984TIP3    H242444   2.325   3.416  15.872  1.9136  1.7225  2.0194
 6985TIP3   OH242445   3.441   4.623  11.359 -0.1958 -0.0875 -0.7012
 6985TIP3    H142446   3.442   4.717  11.344 -1.8752 -0.2602 -2.0981
 6985TIP3    H242447   3.391   4.588  11.286 -1.7509 -1.8184  1.1341
 6986TIP3   OH242448   4.645   1.869   2.884  0.3657 -0.1513  0.0690
 6986TIP3    H142449   4.646   1.938   2.817 -0.1634 -0.2235 -0.0144
 6986TIP3    H242450   4.693   1.907   2.957  3.3931 -1.0847 -1.3343
 6987TIP3   OH242451   3.835   0.989  12.937 -0.3591  0.7085 -0.4684
 6987TIP3    H142452   3.869   1.076  12.918 -1.9325  1.0174 -2.0255
 6987TIP3    H242453   3.749   0.986  12.894 -1.2585 -0.8807  1.3222
 6988TIP3   OH242454   1.487   3.634   3.417  0.0403  0.2819 -0.5680
 6988TIP3    H142455   1.475   3.541   3.438  0.1201  0.5048  0.5200
 6988TIP3    H242456   1.415   3.654   3.358 -1.1690 -0.0001  0.7585
 6989TIP3   OH242457   3.131   2.584   6.016 -0.4263 -0.3896 -0.8250
 6989TIP3    H142458   3.148   2.596   6.109 -2.9697 -0.6589 -0.3032
 6989TIP3    H242459   3.209   2.619   5.973  0.8564 -0.4261  1.3979
 6990TIP3   OH242460   1.962   3.707  13.983  0.3474 -0.0491 -0.4446
 6990TIP3    H142461   1.964   3.740  13.893 -0.6061  0.2063 -0.3807
 6990TIP3    H242462   1.870   3.718  14.010  1.0934  2.0489  1.3556
 6991TIP3   OH242463   2.313   4.749  16.769  0.0321 -0.2773  0.2404
 6991TIP3    H142464   2.224   4.784  16.777 -0.0968 -0.6429  0.4334
 6991TIP3    H242465   2.353   4.768  16.854  0.7837  1.6384 -0.5021
 6992TIP3   OH242466   5.619   4.514   0.488 -0.2607 -0.0853  0.2836
 6992TIP3    H142467   5.574   4.429   0.485  1.7483 -1.1402 -2.4399
 6992TIP3    H242468   5.672   4.515   0.408  0.4323  3.3799  0.7393
 6993TIP3   OH242469   5.549   4.286  14.773  0.5275  0.5048  0.3214
 6993TIP3    H142470   5.634   4.327  14.756  0.3513  0.2555 -1.2117
 6993TIP3    H242471   5.557   4.252  14.863  2.4660 -0.5161 -0.2010
 6994TIP3   OH242472   6.109   6.104   6.520  0.1716  0.0475  0.0289
 6994TIP3    H142473   6.018   6.079   6.504  0.1086 -0.9054  1.8032
 6994TIP3    H242474   6.159   6.055   6.456 -0.4530 -0.4416 -0.0889
 6995TIP3   OH242475   6.480   4.526   0.084  0.1925 -0.0612  0.6045
 6995TIP3    H142476   6.466   4.434   0.061  0.4269  0.1807 -0.5907
 6995TIP3    H242477   6.458   4.532   0.176 -0.6629 -1.1403  0.4803
 6996TIP3   OH242478   4.316   6.122  11.291  0.6667  0.2237 -0.6892
 6996TIP3    H142479   4.379   6.160  11.230  0.7845  0.5823 -0.3391
 6996TIP3    H242480   4.365   6.110  11.372  0.7821 -1.1645 -0.9516
 6997TIP3   OH242481   0.055   1.702  11.324 -0.3536 -0.3994 -0.6811
 6997TIP3    H142482   0.106   1.688  11.403  0.1811 -1.9008 -1.2864
 6997TIP3    H242483  -0.031   1.663  11.342 -0.8457  0.8689 -0.1899
 6998TIP3   OH242484   4.989   0.489   5.025  0.4873 -0.3545  0.2372
 6998TIP3    H142485   4.921   0.510   4.960  1.8913  0.6694 -0.9150
 6998TIP3    H242486   4.995   0.567   5.080  1.8822  0.2039 -0.6866
 6999TIP3   OH242487   5.977   1.238   2.163 -0.1415  0.6166  0.1149
 6999TIP3    H142488   6.020   1.158   2.132 -2.7695 -0.5007 -0.8485
 6999TIP3    H242489   6.047   1.302   2.173  1.6490 -1.0092 -1.7425
 7000TIP3   OH242490   3.317   5.607   5.626  0.4742  0.5597 -0.4277
 7000TIP3    H142491   3.280   5.641   5.545 -2.0073 -2.4319 -0.6144
 7000TIP3    H242492   3.328   5.513   5.610  2.6589  0.3958  1.7295
 7001TIP3   OH242493   4.337   2.512   5.259 -0.1102 -0.0794 -0.1343
 7001TIP3    H142494   4.315   2.443   5.321  0.5625  1.1961  1.5875
 7001TIP3    H242495   4.415   2.480   5.214  1.5511  0.4958  2.2699
 7002TIP3   OH242496   6.087   6.297  12.784 -0.2331  0.1330 -0.8507
 7002TIP3    H142497   6.145   6.333  12.717 -1.7800  0.6362 -1.9620
 7002TIP3    H242498   5.999   6.318  12.752 -1.1353 -3.0207 -0.5912
 7003TIP3   OH242499   0.632   1.981  14.136  0.6726 -0.6554  0.2984
 7003TIP3    H142500   0.682   2.044  14.188  0.0442 -0.5115  0.7307
 7003TIP3    H242501   0.616   2.027  14.053  1.2107 -0.6850  0.1741
 7004TIP3   OH242502   2.378   6.648   3.742 -0.3164  0.0075  0.3659
 7004TIP3    H142503   2.304   6.703   3.714  0.0257  0.9361  1.2508
 7004TIP3    H242504   2.338   6.566   3.769 -0.9114  0.0833 -0.2606
 7005TIP3   OH242505   0.058   4.154  11.655  0.5965  0.4110  0.0932
 7005TIP3    H142506   0.141   4.198  11.670  0.4267  0.5413  0.6563
 7005TIP3    H242507   0.041   4.166  11.561  1.1502  0.4832 -0.0001
 7006TIP3   OH242508   4.508   3.632   4.507  0.1412 -0.1511 -0.1585
 7006TIP3    H142509   4.430   3.603   4.555  0.2104  1.3998  0.9271
 7006TIP3    H242510   4.486   3.618   4.415 -0.8153 -1.1617  0.2068
 7007TIP3   OH242511   5.436   3.542  16.688  0.3526  0.0373 -0.0371
 7007TIP3    H142512   5.495   3.501  16.751  0.7315  0.2492 -0.2524
 7007TIP3    H242513   5.382   3.470  16.655 -1.3743  0.2589  2.1629
 7008TIP3   OH242514   3.776   5.177   3.066  0.3957  0.1891 -0.3946
 7008TIP3    H142515   3.755   5.106   3.004 -0.2296 -0.0249  0.0545
 7008TIP3    H242516   3.796   5.131   3.148 -0.3142  0.5354 -0.0182
 7009TIP3   OH242517   6.042   4.917   0.846 -0.3870 -0.4640  0.6522
 7009TIP3    H142518   5.953   4.904   0.813 -0.0219  1.1620 -1.0583
 7009TIP3    H242519   6.068   4.831   0.878 -1.5446 -1.6398 -1.4549
 7010TIP3   OH242520   4.763   2.052   3.082  0.3618 -0.5102  0.1974
 7010TIP3    H142521   4.818   1.983   3.119  1.2338  1.3048  2.4009
 7010TIP3    H242522   4.825   2.118   3.052 -0.4703 -0.6397 -1.8792
 7011TIP3   OH242523   1.793   2.501  15.195 -0.2198  0.0784 -0.4023
 7011TIP3    H142524   1.721   2.454  15.155 -0.5147  0.9459 -0.9136
 7011TIP3    H242525   1.791   2.588  15.153  0.0350  0.6894  0.8325
 7012TIP3   OH242526   0.637   4.529   2.672  0.4201 -0.3975 -0.2295
 7012TIP3    H142527   0.667   4.440   2.649 -1.7003 -0.7807 -1.7036
 7012TIP3    H242528   0.639   4.576   2.589  2.5552  1.2824  0.7449
 7013TIP3   OH242529   5.238   0.966  13.543  0.2567 -0.2877  0.1735
 7013TIP3    H142530   5.229   1.061  13.532  1.4040 -0.1687  0.2021
 7013TIP3    H242531   5.148   0.933  13.540 -0.0395  0.6257 -1.3828
 7014TIP3   OH242532   6.110   1.807  12.658 -0.3801 -0.3500 -0.3644
 7014TIP3    H142533   6.039   1.843  12.605 -1.0795  1.6145  1.7969
 7014TIP3    H242534   6.169   1.881  12.673  0.5583 -1.2206  0.3662
 7015TIP3   OH242535   1.019   0.916   0.624  0.2563  0.2768 -0.0869
 7015TIP3    H142536   0.946   0.861   0.653 -0.0893 -0.5668 -2.4157
 7015TIP3    H242537   1.090   0.853   0.607  0.8607  0.8754  0.2253
 7016TIP3   OH242538   1.516   5.278   2.809  0.2163 -0.3803 -0.5669
 7016TIP3    H142539   1.464   5.198   2.818  0.4408 -0.6956 -1.8956
 7016TIP3    H242540   1.462   5.336   2.755 -0.5423  0.9133  1.5441
 7017TIP3   OH242541   1.838   1.528   4.325  0.1424 -0.4101  0.3080
 7017TIP3    H142542   1.876   1.546   4.239 -0.0482 -0.6329  0.1774
 7017TIP3    H242543   1.913   1.526   4.385  0.1824  0.8115  0.3292
 7018TIP3   OH242544   1.224   6.228   4.821 -0.6278 -0.1062  1.1181
 7018TIP3    H142545   1.165   6.200   4.751  0.6550 -1.6487  0.6282
 7018TIP3    H242546   1.220   6.324   4.818 -0.9680 -0.1502 -0.7372
 7019TIP3   OH242547   6.795   0.757   5.112 -0.0005  0.2750  0.3209
 7019TIP3    H142548   6.714   0.724   5.151 -0.3378 -0.4633 -0.9745
 7019TIP3    H242549   6.862   0.742   5.179 -0.4371 -1.6642  0.3453
 7020TIP3   OH242550   0.774   1.484   1.132 -0.0196  0.2267  0.1025
 7020TIP3    H142551   0.858   1.457   1.095  0.2525  0.5825  0.4497
 7020TIP3    H242552   0.798   1.536   1.208 -0.6027 -2.1489  1.9570
 7021TIP3   OH242553   0.596   3.911   3.641 -0.2089 -0.2801  0.3876
 7021TIP3    H142554   0.583   3.964   3.719 -0.4644  2.0927 -1.2371
 7021TIP3    H242555   0.689   3.919   3.621 -0.3368 -0.0508 -0.1280
 7022TIP3   OH242556   4.415   0.674  15.677  0.0209  0.2088  0.2895
 7022TIP3    H142557   4.474   0.601  15.655  0.2376 -0.1845  2.1291
 7022TIP3    H242558   4.472   0.750  15.683 -0.3012  0.7228 -2.3609
 7023TIP3   OH242559   1.292   3.462  16.944  0.8501  0.2116  0.0766
 7023TIP3    H142560   1.284   3.539  17.002 -0.1668 -1.2185  1.8993
 7023TIP3    H242561   1.206   3.456  16.902  0.3568 -0.8584  1.1907
 7024TIP3   OH242562   2.300   1.888  14.809  0.0426 -0.0291  0.1746
 7024TIP3    H142563   2.247   1.808  14.812  1.3032 -0.8342  2.5951
 7024TIP3    H242564   2.255   1.949  14.867  0.1461  0.3174 -0.1137
 7025TIP3   OH242565   6.381   4.416   6.133 -0.0119 -0.2932 -0.4056
 7025TIP3    H142566   6.333   4.499   6.137 -0.2637 -0.5015  1.6405
 7025TIP3    H242567   6.434   4.416   6.212 -0.2695 -2.2310 -0.2088
 7026TIP3   OH242568   2.978   5.122   0.943  0.3932 -0.0278 -0.1692
 7026TIP3    H142569   3.051   5.184   0.949 -2.3065  3.2267  0.5841
 7026TIP3    H242570   2.986   5.068   1.021  2.9657 -0.8927 -0.9809
 7027TIP3   OH242571   4.561   1.313   0.854  0.0782 -0.5762 -0.9694
 7027TIP3    H142572   4.571   1.305   0.759  0.5938  0.1323 -0.9825
 7027TIP3    H242573   4.648   1.293   0.889 -0.0583 -0.6314 -0.6579
 7028TIP3   OH242574   3.095   6.517  16.718  0.0207  0.2504  0.1184
 7028TIP3    H142575   3.035   6.446  16.696  0.3509 -0.0177  0.0743
 7028TIP3    H242576   3.165   6.511  16.653  0.7473 -0.2372  0.9183
 7029TIP3   OH242577   3.488   1.806  16.239 -0.3343  0.0252 -0.0422
 7029TIP3    H142578   3.394   1.793  16.226  0.1302 -0.8047 -2.8318
 7029TIP3    H242579   3.530   1.737  16.188  1.8291  2.0384 -1.1256
 7030TIP3   OH242580   0.332   3.848  12.087 -0.2154 -0.1653  0.2493
 7030TIP3    H142581   0.312   3.755  12.076 -2.2742  0.3254 -0.4384
 7030TIP3    H242582   0.306   3.868  12.176 -0.1107 -0.1628  0.2795
 7031TIP3   OH242583   0.398   3.530  16.185  0.3039 -0.0477 -0.6113
 7031TIP3    H142584   0.316   3.487  16.159 -0.1724  0.1053  0.6385
 7031TIP3    H242585   0.415   3.594  16.116 -0.6986  0.0168 -0.7915
 7032TIP3   OH242586   4.528   1.678  15.517 -0.5585 -0.8655  1.0533
 7032TIP3    H142587   4.497   1.646  15.432 -0.6491  1.9901 -0.0430
 7032TIP3    H242588   4.624   1.673  15.510 -0.5596 -0.3847  0.6807
 7033TIP3   OH242589   6.329   4.434  13.307  0.2347  0.2448  0.0697
 7033TIP3    H142590   6.355   4.365  13.368  0.6391  1.0733  0.8619
 7033TIP3    H242591   6.243   4.407  13.275 -0.3666  0.1901  1.6619
 7034TIP3   OH242592   3.222   5.220   1.985  0.0320  0.4927  0.0716
 7034TIP3    H142593   3.150   5.229   2.047 -2.5320 -1.5822 -2.4422
 7034TIP3    H242594   3.266   5.139   2.010 -1.5863 -0.8481 -1.3303
 7035TIP3   OH242595   1.808   3.696   1.528 -0.2372 -0.3943  0.0818
 7035TIP3    H142596   1.884   3.747   1.555 -0.5297 -0.8352  1.7861
 7035TIP3    H242597   1.810   3.698   1.432  1.2504  0.5711  0.1272
 7036TIP3   OH242598   3.826   5.930  15.856  0.4424  0.9310 -0.0324
 7036TIP3    H142599   3.807   5.923  15.762  1.3844  1.7685 -0.2941
 7036TIP3    H242600   3.833   5.840  15.886 -0.3361  0.6510 -0.6660
 7037TIP3   OH242601   1.131   5.213   3.984 -0.8205  0.3528 -0.2177
 7037TIP3    H142602   1.140   5.299   4.024 -0.5795  0.7284 -1.0589
 7037TIP3    H242603   1.039   5.189   3.998 -0.6232  0.2455  0.9887
 7038TIP3   OH242604   5.129   3.290  12.971  0.3566  0.0467 -0.1090
 7038TIP3    H142605   5.176   3.296  12.888 -0.5594 -0.2602 -0.6647
 7038TIP3    H242606   5.052   3.346  12.959  0.0822 -0.2086  0.4376
 7039TIP3   OH242607   3.446   5.026  13.769 -0.0271  0.1326  0.4001
 7039TIP3    H142608   3.496   5.071  13.837  0.4368  3.3147 -1.9316
 7039TIP3    H242609   3.498   5.035  13.689 -2.1377 -0.5422 -1.1221
 7040TIP3   OH242610   5.952   2.538   2.364  0.1726  0.7076 -0.0251
 7040TIP3    H142611   6.031   2.488   2.345 -0.1144 -0.2496  1.2495
 7040TIP3    H242612   5.914   2.496   2.441 -1.2646  1.5261 -0.2572
 7041TIP3   OH242613   0.863   3.251   4.376 -0.0927  0.0280  0.1082
 7041TIP3    H142614   0.799   3.180   4.383 -0.3569  0.3413  0.9574
 7041TIP3    H242615   0.853   3.284   4.287  2.0066 -2.8680 -1.2934
 7042TIP3   OH242616   4.494   1.819   5.650 -0.2970  0.3771  0.1519
 7042TIP3    H142617   4.542   1.761   5.591 -1.9680 -0.9447  0.0283
 7042TIP3    H242618   4.481   1.767   5.729 -0.2654  1.2363  0.7278
 7043TIP3   OH242619   6.182   1.328   1.493 -0.3987 -0.2222  0.0464
 7043TIP3    H142620   6.266   1.339   1.539 -0.8559  0.0908  0.8152
 7043TIP3    H242621   6.119   1.307   1.562 -1.5045  2.3511 -0.1216
 7044TIP3   OH242622   0.017   4.006   0.409 -0.6977 -0.1060 -0.2401
 7044TIP3    H142623   0.037   4.097   0.387 -2.4123  0.2191 -0.4774
 7044TIP3    H242624  -0.028   3.971   0.332 -0.4297 -1.0309  0.0153
 7045TIP3   OH242625   6.658   2.576  12.487  0.4840 -0.1686  0.7078
 7045TIP3    H142626   6.582   2.623  12.523  0.2018 -0.0631 -0.0168
 7045TIP3    H242627   6.696   2.637  12.423  1.2439 -0.1809  1.1495
 7046TIP3   OH242628   3.581   6.809  16.785  0.2444  0.2264 -0.0683
 7046TIP3    H142629   3.618   6.759  16.858 -1.0887 -1.0877 -0.2581
 7046TIP3    H242630   3.624   6.894  16.790  1.2227 -0.3298  1.3834
 7047TIP3   OH242631   1.947   3.249  15.624 -0.3212  0.4317  0.6079
 7047TIP3    H142632   2.003   3.176  15.650 -1.3096 -0.7948 -0.5974
 7047TIP3    H242633   1.901   3.274  15.704  0.1778 -0.1298  1.0735
 7048TIP3   OH242634   4.456   6.018  16.303 -0.4612  0.3666 -0.0096
 7048TIP3    H142635   4.474   6.004  16.210 -2.4130  0.6315 -0.4628
 7048TIP3    H242636   4.435   6.111  16.310 -2.0539  0.0051  0.3650
 7049TIP3   OH242637   5.057   2.532  12.980 -0.3995  0.1547  0.2867
 7049TIP3    H142638   5.023   2.621  12.990 -2.3330 -0.6089  0.7879
 7049TIP3    H242639   5.041   2.511  12.888 -0.6141  0.0692  0.3421
 7050TIP3   OH242640   2.963   4.103   3.234 -0.4774  0.4788 -0.3166
 7050TIP3    H142641   3.044   4.088   3.282  0.2887  2.5009 -0.9255
 7050TIP3    H242642   2.910   4.025   3.251 -0.0175  0.8970  3.3114
 7051TIP3   OH242643   2.704   4.798   4.727 -0.1432 -0.0146 -0.3209
 7051TIP3    H142644   2.797   4.819   4.725 -0.3091  0.7602 -0.2815
 7051TIP3    H242645   2.699   4.712   4.768  0.5777 -0.1859 -0.5941
 7052TIP3   OH242646   2.084   4.391  11.152 -0.4977  0.3991 -0.2674
 7052TIP3    H142647   2.173   4.390  11.116 -0.3343  1.4547  0.0826
 7052TIP3    H242648   2.083   4.318  11.214  0.2276  0.5827 -0.0311
 7053TIP3   OH242649   0.176   5.329  14.200 -0.1473 -0.0737 -0.1899
 7053TIP3    H142650   0.250   5.384  14.175 -0.0040 -0.6473 -1.0666
 7053TIP3    H242651   0.099   5.384  14.184 -0.0223 -0.2109 -1.3417
 7054TIP3   OH242652   1.862   3.402  12.224  0.4487  0.0358  0.5195
 7054TIP3    H142653   1.768   3.384  12.220  0.6761 -0.7994 -1.8782
 7054TIP3    H242654   1.898   3.334  12.280 -0.0602 -1.1358 -0.5545
 7055TIP3   OH242655   4.979   5.100   2.822 -0.2745  0.0903  0.0677
 7055TIP3    H142656   4.937   5.049   2.891 -1.1833 -0.4910 -0.8913
 7055TIP3    H242657   5.049   5.148   2.866 -1.4737  0.5058  1.5638
 7056TIP3   OH242658   2.425   5.451   4.636 -0.2379  0.5415  0.3388
 7056TIP3    H142659   2.434   5.396   4.714 -1.1603  1.1279  0.8643
 7056TIP3    H242660   2.349   5.506   4.654 -0.3284  0.8285 -0.8894
 7057TIP3   OH242661   1.865   3.570  12.508 -0.0467  0.0858  0.2368
 7057TIP3    H142662   1.953   3.535  12.494 -0.3920 -0.3779 -0.8724
 7057TIP3    H242663   1.807   3.500  12.481 -0.7458  1.4507 -2.0107
 7058TIP3   OH242664   4.057   2.672   0.016  0.1429 -0.1517  0.3990
 7058TIP3    H142665   4.069   2.733  -0.057 -1.1311  1.0069  1.1279
 7058TIP3    H242666   4.051   2.586  -0.026 -1.3584  0.5743 -0.9511
 7059TIP3   OH242667   6.735   5.550  11.383  0.0044  0.8281 -0.5614
 7059TIP3    H142668   6.752   5.534  11.476 -0.8689  1.5694 -0.2687
 7059TIP3    H242669   6.686   5.473  11.354  2.2701 -0.5156 -0.9963
 7060TIP3   OH242670   1.713   2.711   2.688  0.5112 -0.4058 -0.7898
 7060TIP3    H142671   1.698   2.761   2.769  1.9201 -1.3854  0.0870
 7060TIP3    H242672   1.706   2.620   2.715  2.0083 -0.7579 -1.5692
 7061TIP3   OH242673   6.573   2.684   1.358  0.5801  0.1485  0.1148
 7061TIP3    H142674   6.622   2.741   1.298 -1.1850  0.4272 -1.1167
 7061TIP3    H242675   6.584   2.596   1.322  3.4497 -0.3748  2.1145
 7062TIP3   OH242676   5.159   2.995  13.124  0.1769 -0.1951 -0.2193
 7062TIP3    H142677   5.210   3.030  13.051  1.6259 -0.8703  0.4333
 7062TIP3    H242678   5.134   3.072  13.175  0.3458  0.1614 -0.6724
 7063TIP3   OH242679   0.014   2.469  16.203 -0.0214  0.2474 -0.9147
 7063TIP3    H142680   0.016   2.446  16.110  0.9602 -0.1497 -0.8023
 7063TIP3    H242681  -0.079   2.484  16.222 -0.2480  0.1427 -1.9086
 7064TIP3   OH242682   3.852   4.987   1.786 -0.4635 -0.5805  0.1252
 7064TIP3    H142683   3.839   4.893   1.775 -1.8908 -0.2217 -1.6407
 7064TIP3    H242684   3.942   4.996   1.816 -0.1031 -2.4702 -0.3221
 7065TIP3   OH242685   1.362   4.098   0.383 -0.4331 -0.2237  0.5399
 7065TIP3    H142686   1.358   4.116   0.477 -2.4432  0.4937  0.3503
 7065TIP3    H242687   1.313   4.169   0.342 -0.3746 -1.0235 -0.9762
 7066TIP3   OH242688   5.629   5.618   3.340 -0.0857 -0.2363  0.0340
 7066TIP3    H142689   5.622   5.689   3.275  1.2799 -1.0687 -1.0643
 7066TIP3    H242690   5.585   5.652   3.418 -0.9797  1.1364 -1.0460
 7067TIP3   OH242691   4.506   4.528   3.638 -0.5291  0.0253 -0.1666
 7067TIP3    H142692   4.423   4.540   3.591  0.2255  1.6172 -1.1689
 7067TIP3    H242693   4.542   4.446   3.603 -1.7789 -0.7889  0.4393
 7068TIP3   OH242694   3.882   1.741   5.683 -0.3867  0.1037 -0.6507
 7068TIP3    H142695   3.945   1.670   5.672  0.5003  1.0548 -1.8112
 7068TIP3    H242696   3.797   1.700   5.669  0.2008 -0.4519 -2.7725
 7069TIP3   OH242697   6.376   0.472  12.488  0.5309 -0.3391 -0.0583
 7069TIP3    H142698   6.389   0.447  12.580  0.7773  2.5234  0.7630
 7069TIP3    H242699   6.464   0.496  12.458  0.2398  0.0701 -0.5869
 7070TIP3   OH242700   6.153   4.822   1.951  0.0797  0.3001 -0.5790
 7070TIP3    H142701   6.194   4.907   1.933  0.4812 -0.0151 -1.1793
 7070TIP3    H242702   6.218   4.758   1.923 -0.5277 -0.2106 -0.8318
 7071TIP3   OH242703   3.247   0.260   2.252 -0.3093  0.1927 -0.1910
 7071TIP3    H142704   3.275   0.171   2.230 -1.1412  0.1798 -1.2320
 7071TIP3    H242705   3.316   0.293   2.311  1.4859 -0.1269 -2.0420
 7072TIP3   OH242706   2.625   0.317  12.494  0.3232  0.1110 -0.4487
 7072TIP3    H142707   2.609   0.402  12.535  0.1600 -0.8436  1.5439
 7072TIP3    H242708   2.545   0.267  12.512  0.6745 -0.6712 -1.0471
 7073TIP3   OH242709   3.624   3.739  16.855  0.4297 -0.4087 -0.2273
 7073TIP3    H142710   3.556   3.801  16.829  1.0310  0.5167  0.3382
 7073TIP3    H242711   3.591   3.700  16.936  1.0913  0.9502  0.7284
 7074TIP3   OH242712   5.236   4.308  12.186  0.1289  0.1965 -0.4340
 7074TIP3    H142713   5.156   4.360  12.201  0.8544  1.1443  0.2375
 7074TIP3    H242714   5.298   4.371  12.149  0.0262 -0.9320 -2.5865
 7075TIP3   OH242715   0.686   3.908  12.865 -0.3211 -0.0987 -0.6249
 7075TIP3    H142716   0.669   3.822  12.828 -2.6293 -0.0427  0.2654
 7075TIP3    H242717   0.771   3.900  12.908 -0.5048 -1.9046 -0.5800
 7076TIP3   OH242718   1.077   1.937  14.757  0.1794 -0.5615 -0.2494
 7076TIP3    H142719   1.155   1.960  14.808 -1.2338 -1.9563  2.6574
 7076TIP3    H242720   1.015   2.007  14.776 -0.1504 -0.7734 -0.5509
 7077TIP3   OH242721   2.166   2.012  15.977 -0.0483  0.1579  0.1538
 7077TIP3    H142722   2.259   2.032  15.992 -0.3572  0.8516  1.2264
 7077TIP3    H242723   2.163   1.978  15.888  0.9891  1.7814 -0.5398
 7078TIP3   OH242724   3.243   2.872   4.769  0.7590  0.2799  0.7390
 7078TIP3    H142725   3.277   2.896   4.854 -3.1638  0.5430  2.3488
 7078TIP3    H242726   3.189   2.946   4.743  0.2115 -0.6961 -0.9977
 7079TIP3   OH242727   4.390   6.682  12.230 -0.1290  0.4397  0.7896
 7079TIP3    H142728   4.331   6.742  12.184  1.2791  1.0938 -0.1965
 7079TIP3    H242729   4.356   6.595  12.211 -0.5320  0.7886 -0.1213
 7080TIP3   OH242730   0.323   3.466  11.957  0.3296  0.2000  0.0118
 7080TIP3    H142731   0.417   3.481  11.965  0.2404 -0.1050  1.7511
 7080TIP3    H242732   0.306   3.386  12.006 -0.7809  0.0329 -0.6216
 7081TIP3   OH242733   3.401   1.541   3.412 -0.7945  0.8307 -0.2614
 7081TIP3    H142734   3.457   1.500   3.347 -2.2069 -1.4572 -0.0771
 7081TIP3    H242735   3.329   1.580   3.361 -0.6582  1.1052 -0.2473
 7082TIP3   OH242736   3.693   6.748   6.569  0.0094  0.5975 -0.0044
 7082TIP3    H142737   3.758   6.686   6.603  0.4279  0.9127 -0.2172
 7082TIP3    H242738   3.621   6.693   6.539 -0.9097  0.3857  2.5083
 7083TIP3   OH242739   4.956   1.395  10.926 -0.3690  0.2871  0.1041
 7083TIP3    H142740   4.983   1.446  10.850 -0.3584 -1.9876 -1.4533
 7083TIP3    H242741   4.880   1.344  10.896  1.1966 -2.5658  0.7896
 7084TIP3   OH242742   6.644   4.672  12.202  0.1237  0.1742 -0.7055
 7084TIP3    H142743   6.704   4.598  12.188  2.5801  1.9907 -0.1414
 7084TIP3    H242744   6.599   4.651  12.284 -0.5226 -1.5367 -1.4734
 7085TIP3   OH242745   2.368   2.259   0.846 -0.5488  0.1556 -0.5943
 7085TIP3    H142746   2.304   2.193   0.874 -1.6829  1.2004 -0.6512
 7085TIP3    H242747   2.428   2.211   0.789 -0.6282 -1.0908  0.3413
 7086TIP3   OH242748   4.942   2.838   3.165  0.4813  0.4701 -0.0776
 7086TIP3    H142749   4.883   2.787   3.110  0.0431  1.0754 -0.1725
 7086TIP3    H242750   4.922   2.929   3.143  0.3924  0.7078  1.0005
 7087TIP3   OH242751   0.335   4.553   3.467  0.1033  0.6084 -0.2391
 7087TIP3    H142752   0.336   4.639   3.509  0.9637  0.5522 -0.1447
 7087TIP3    H242753   0.243   4.527   3.469  0.2722  0.0983  2.6455
 7088TIP3   OH242754   6.130   4.023  12.125 -0.2194  0.4901  0.2075
 7088TIP3    H142755   6.173   4.003  12.207 -1.4009 -1.0143  0.4830
 7088TIP3    H242756   6.037   4.031  12.147 -0.4506  0.9089 -0.8366
 7089TIP3   OH242757   5.929   5.362  13.955  0.1336  1.1233 -0.3384
 7089TIP3    H142758   6.020   5.388  13.940  1.1216  0.6904  4.3123
 7089TIP3    H242759   5.926   5.271  13.926  1.9799  0.2553  2.0347
 7090TIP3   OH242760   5.743   0.721  13.667  0.2650  0.1601 -0.0762
 7090TIP3    H142761   5.718   0.806  13.704 -0.4142 -0.4354  0.8620
 7090TIP3    H242762   5.702   0.719  13.581  1.2387  1.2513 -0.5827
 7091TIP3   OH242763   5.499   1.052  12.462  0.3547  0.1144 -0.3828
 7091TIP3    H142764   5.549   0.996  12.403  0.6519  0.6549 -0.6445
 7091TIP3    H242765   5.413   1.010  12.469 -0.0934  0.6901 -2.1456
 7092TIP3   OH242766   1.223   5.277  12.308  0.0690 -0.4414 -0.3090
 7092TIP3    H142767   1.233   5.186  12.278  0.8526 -0.5148  0.1484
 7092TIP3    H242768   1.216   5.329  12.228 -1.6965 -1.0424 -0.5676
 7093TIP3   OH242769   6.736   6.504   1.584 -0.0946  0.2053  0.2223
 7093TIP3    H142770   6.797   6.515   1.510  0.9957 -2.3404  0.6607
 7093TIP3    H242771   6.777   6.550   1.656  0.5571 -0.1749  0.1010
 7094TIP3   OH242772   2.559   3.094  11.432 -0.7897 -0.3004  0.4729
 7094TIP3    H142773   2.588   3.034  11.364  0.0318 -0.2664  0.7840
 7094TIP3    H242774   2.534   3.174  11.386  2.0678  0.5911  0.3967
 7095TIP3   OH242775   0.061   3.926  17.290  0.6856 -0.0612 -0.6990
 7095TIP3    H142776   0.145   3.933  17.335  0.9768 -0.2622 -1.2039
 7095TIP3    H242777   0.035   4.016  17.273  0.2214  0.0388  0.5143
 7096TIP3   OH242778   3.963   3.601  14.253 -0.0228 -0.8126 -0.3499
 7096TIP3    H142779   4.029   3.615  14.321  1.6042 -2.3077 -1.5349
 7096TIP3    H242780   3.989   3.518  14.212 -2.1201 -0.9559 -1.4722
 7097TIP3   OH242781   3.390   3.727   6.130 -0.0293 -0.1064  0.3970
 7097TIP3    H142782   3.485   3.718   6.129 -0.1321 -1.1367 -0.4898
 7097TIP3    H242783   3.362   3.707   6.041 -1.0023  1.0736  0.4286
 7098TIP3   OH242784   0.643   0.843  15.216  0.0101 -0.5546 -0.4886
 7098TIP3    H142785   0.610   0.779  15.279 -0.3510  0.7115  0.6478
 7098TIP3    H242786   0.565   0.882  15.177  0.2297 -0.9912 -1.3742
 7099TIP3   OH242787   1.133   1.506  17.271  0.5179  0.0126 -0.0517
 7099TIP3    H142788   1.041   1.497  17.297  0.8930 -0.8434  0.9732
 7099TIP3    H242789   1.175   1.549  17.345  1.4763 -1.9818  0.6160
 7100TIP3   OH242790   3.419   5.625   4.420  0.0778 -0.0372  0.4119
 7100TIP3    H142791   3.504   5.630   4.464 -0.1563  1.8069  0.7166
 7100TIP3    H242792   3.428   5.552   4.358  1.8675  0.1149  0.4556
 7101TIP3   OH242793   2.552   0.089  11.846  0.2377  0.0973  0.4076
 7101TIP3    H142794   2.572   0.078  11.753 -0.2402  0.9560  0.2043
 7101TIP3    H242795   2.495   0.165  11.850  0.2865  0.0879  1.4141
 7102TIP3   OH242796   2.460   6.581   0.257 -0.0662 -0.3147  0.3062
 7102TIP3    H142797   2.546   6.559   0.222 -0.7339 -1.3764 -0.6746
 7102TIP3    H242798   2.406   6.503   0.242 -1.8430  1.1496 -1.2320
 7103TIP3   OH242799   4.066   4.400  16.376  0.8023  0.4558  0.1257
 7103TIP3    H142800   4.142   4.353  16.343 -0.2326 -0.6652 -0.7339
 7103TIP3    H242801   4.072   4.392  16.471  2.0094  0.7998  0.0849
 7104TIP3   OH242802   4.032   0.313   2.713 -0.0920 -0.4160 -0.3179
 7104TIP3    H142803   3.939   0.316   2.691 -0.4006 -1.1563  0.8219
 7104TIP3    H242804   4.056   0.221   2.705  0.1557 -0.4713  0.8721
 7105TIP3   OH242805   2.264   2.142   2.729  0.4972 -0.1805 -0.1889
 7105TIP3    H142806   2.177   2.153   2.691  0.6746  1.2645 -0.2039
 7105TIP3    H242807   2.299   2.230   2.733  1.0249 -0.4601  2.0508
 7106TIP3   OH242808   3.873   3.690   2.562 -0.2137 -0.1752  0.0223
 7106TIP3    H142809   3.899   3.782   2.553  0.6291 -0.3631  0.4192
 7106TIP3    H242810   3.836   3.684   2.650 -1.5305  0.0684 -0.5040
 7107TIP3   OH242811   4.631   4.285   3.468  0.1013 -0.6073 -0.3349
 7107TIP3    H142812   4.676   4.345   3.408  0.8243 -1.8784 -1.0709
 7107TIP3    H242813   4.698   4.258   3.531 -0.4168 -0.0445  0.4736
 7108TIP3   OH242814   0.434   0.829  12.732 -0.0552  0.5880  0.2159
 7108TIP3    H142815   0.440   0.764  12.661  1.5338  0.8758  0.0647
 7108TIP3    H242816   0.435   0.776  12.812  2.2634  0.4194  0.1289
 7109TIP3   OH242817   1.479   2.282   1.332 -0.2470 -0.3771 -0.1083
 7109TIP3    H142818   1.396   2.240   1.311  1.2601 -3.3202 -0.4333
 7109TIP3    H242819   1.455   2.357   1.387 -3.2043 -0.2542 -1.4676
 7110TIP3   OH242820   5.491   3.587   0.636 -1.0627  0.5219  0.2026
 7110TIP3    H142821   5.479   3.495   0.611  1.0009  0.0254  0.9876
 7110TIP3    H242822   5.565   3.586   0.696 -1.6225  2.5975  0.9567
 7111TIP3   OH242823   3.635   3.627  15.242 -0.4928  0.3394 -0.4725
 7111TIP3    H142824   3.547   3.591  15.249  0.1484 -1.3443 -0.7307
 7111TIP3    H242825   3.689   3.567  15.294  0.8602  0.0069 -2.2092
 7112TIP3   OH242826   4.326   4.551   0.637  0.3283  0.0818  0.1656
 7112TIP3    H142827   4.234   4.568   0.620  0.6746  0.9860 -0.8988
 7112TIP3    H242828   4.334   4.456   0.632 -0.1708  0.1164 -1.9306
 7113TIP3   OH242829   4.785   6.273   0.778 -0.5598  0.0727  0.7582
 7113TIP3    H142830   4.881   6.269   0.781 -0.5107  1.1060  0.8159
 7113TIP3    H242831   4.758   6.249   0.866 -0.4822 -3.0542 -0.0247
 7114TIP3   OH242832   5.547   1.426   0.466 -0.2469  0.7311  1.1860
 7114TIP3    H142833   5.604   1.473   0.405 -0.2532 -0.0891  0.5293
 7114TIP3    H242834   5.465   1.475   0.465 -0.4175  0.4317  0.1313
 7115TIP3   OH242835   0.160   1.238   0.949  0.1390 -0.3164  0.3099
 7115TIP3    H142836   0.188   1.182   1.021 -0.4230 -0.0428  0.7384
 7115TIP3    H242837   0.242   1.262   0.905  0.4737 -0.5703  0.7834
 7116TIP3   OH242838   5.941   6.818  15.731  0.3707 -0.0742 -0.3635
 7116TIP3    H142839   5.903   6.835  15.644 -0.7126  1.7698  0.4299
 7116TIP3    H242840   5.906   6.733  15.756  0.1912 -0.3393 -1.4770
 7117TIP3   OH242841   0.441   4.285   2.700 -0.2848  0.9295  0.2437
 7117TIP3    H142842   0.525   4.310   2.663  0.2387 -1.7520 -0.4693
 7117TIP3    H242843   0.380   4.287   2.626  0.3237 -2.3764 -0.4162
 7118TIP3   OH242844   3.990   1.470   1.167 -0.1821  0.5208  0.5047
 7118TIP3    H142845   4.001   1.546   1.223 -0.0732  0.7553  0.1679
 7118TIP3    H242846   3.935   1.410   1.217 -2.5459  1.9295 -0.3154
 7119TIP3   OH242847   1.032   2.851  14.647  0.0455 -0.0136 -0.6325
 7119TIP3    H142848   1.019   2.831  14.740 -1.7614  0.2463 -0.8093
 7119TIP3    H242849   1.120   2.820  14.628  1.9095  3.2156  2.0689
 7120TIP3   OH242850   6.625   5.174   4.818  0.1004  0.3309  0.1849
 7120TIP3    H142851   6.709   5.130   4.806  0.2415  0.8010 -0.5756
 7120TIP3    H242852   6.588   5.134   4.897 -0.4902 -2.2833 -1.3616
 7121TIP3   OH242853   6.086   2.996   0.385  0.3567 -0.3641 -0.1855
 7121TIP3    H142854   6.065   3.080   0.427  0.7074 -0.9323  1.1810
 7121TIP3    H242855   6.172   3.010   0.345  0.3980 -0.0592  0.0057
 7122TIP3   OH242856   1.057   2.049   4.998 -0.3589  0.2886  0.9095
 7122TIP3    H142857   1.142   2.054   5.042 -0.1943 -1.2600  0.7883
 7122TIP3    H242858   1.002   1.998   5.058 -0.3334 -1.2482 -0.3270
 7123TIP3   OH242859   0.134   6.500  16.081  0.1892  0.1224 -0.3102
 7123TIP3    H142860   0.213   6.552  16.088  0.4127 -0.1410 -0.8893
 7123TIP3    H242861   0.157   6.427  16.023  0.2798 -1.3648  1.5350
 7124TIP3   OH242862   5.718   5.270  11.885 -0.6056 -0.3891 -0.2779
 7124TIP3    H142863   5.748   5.179  11.891 -1.0934 -0.6034 -1.0609
 7124TIP3    H242864   5.634   5.270  11.932 -3.1262 -1.4945 -4.4426
 7125TIP3   OH242865   1.863   2.503   3.064  0.3646 -0.1281 -0.0612
 7125TIP3    H142866   1.792   2.551   3.107 -0.2924 -1.8636  0.8376
 7125TIP3    H242867   1.895   2.443   3.131  2.8597  0.7920 -0.3916
 7126TIP3   OH242868   0.698   5.132   6.336 -0.1235 -0.2518  0.0863
 7126TIP3    H142869   0.733   5.118   6.424 -1.3029  0.7753  0.7311
 7126TIP3    H242870   0.712   5.048   6.291  0.7814 -0.6799  1.1406
 7127TIP3   OH242871   0.499   3.178  14.857 -0.2608 -0.2248  0.5355
 7127TIP3    H142872   0.532   3.177  14.947 -1.1287 -1.6933  0.8537
 7127TIP3    H242873   0.577   3.190  14.803 -0.0314  3.8001  1.5697
 7128TIP3   OH242874   1.239   3.799  16.397 -0.0623 -0.1679 -0.0848
 7128TIP3    H142875   1.171   3.795  16.464 -1.0560 -0.8549 -1.1284
 7128TIP3    H242876   1.232   3.716  16.350  2.0641 -0.6232  0.3469
 7129TIP3   OH242877   0.409   0.448  14.678  0.1529  0.0771 -0.5977
 7129TIP3    H142878   0.440   0.529  14.720  0.2279  0.6747 -1.7889
 7129TIP3    H242879   0.389   0.474  14.588  0.1832 -1.2447 -0.9898
 7130TIP3   OH242880   0.594   2.037   4.318  0.5610 -0.2665  0.1283
 7130TIP3    H142881   0.591   2.110   4.379 -0.7089  0.6828 -1.0635
 7130TIP3    H242882   0.652   1.973   4.360  0.3516  0.7184  1.9278
 7131TIP3   OH242883   2.824   0.265   6.109  0.0621 -0.0645  0.3827
 7131TIP3    H142884   2.812   0.255   6.204  1.2951  2.8771  0.9108
 7131TIP3    H242885   2.739   0.294   6.077 -0.0479  0.0651  0.7794
 7132TIP3   OH242886   3.397   1.895  10.841 -0.0917  0.0874 -0.4159
 7132TIP3    H142887   3.429   1.853  10.921  0.6380 -0.3652 -0.9391
 7132TIP3    H242888   3.412   1.989  10.856  2.9102 -0.1934 -1.2112
 7133TIP3   OH242889   6.088   2.835   4.786 -0.4536  0.0380 -0.1237
 7133TIP3    H142890   6.049   2.806   4.703 -1.1404  1.5328 -0.3313
 7133TIP3    H242891   6.182   2.834   4.769 -0.4782 -1.4923 -0.3031
 7134TIP3   OH242892   2.264   6.240   0.980  0.0749  0.3520 -0.3240
 7134TIP3    H142893   2.353   6.270   0.999  0.1431  0.9181 -1.4653
 7134TIP3    H242894   2.222   6.232   1.065  1.0329  0.6853  0.1823
 7135TIP3   OH242895   4.404   0.511   2.855 -0.1602  0.6977 -0.3178
 7135TIP3    H142896   4.397   0.425   2.896 -0.2119  0.1132 -1.5335
 7135TIP3    H242897   4.384   0.573   2.925  0.4437 -0.2537  0.7059
 7136TIP3   OH242898   4.129   1.007  15.591  0.6195 -0.5221  0.2497
 7136TIP3    H142899   4.115   1.031  15.499  2.3480  0.2298  0.1658
 7136TIP3    H242900   4.066   0.937  15.607 -1.6136  1.2160 -0.6970
 7137TIP3   OH242901   4.569   5.837  13.819 -0.2622 -0.2053 -0.2598
 7137TIP3    H142902   4.523   5.774  13.875 -0.5246 -0.3711 -0.6596
 7137TIP3    H242903   4.510   5.912  13.816 -0.1432 -0.1065 -0.1294
 7138TIP3   OH242904   4.339   0.210   2.826  0.2755 -0.2920 -0.4384
 7138TIP3    H142905   4.280   0.167   2.765 -0.7335 -0.7252  0.8292
 7138TIP3    H242906   4.322   0.168   2.911  0.9211  0.9896  0.3529
 7139TIP3   OH242907   2.507   6.706   5.465 -0.0811  0.4200  0.1433
 7139TIP3    H142908   2.495   6.623   5.512  0.9795  0.2921  0.2020
 7139TIP3    H242909   2.540   6.767   5.530  1.0299  0.3433 -0.3240
 7140TIP3   OH242910   3.969   5.530  13.276  0.4511 -0.2467 -0.4095
 7140TIP3    H142911   3.924   5.479  13.209  1.7807  1.0382 -2.3322
 7140TIP3    H242912   3.904   5.595  13.304 -0.3557 -1.2652  0.1379
 7141TIP3   OH242913   0.397   3.673   2.544  0.4544 -0.0603 -0.4288
 7141TIP3    H142914   0.476   3.621   2.531  0.8040  0.2504  0.4325
 7141TIP3    H242915   0.325   3.611   2.530  0.8734 -1.2471  2.3995
 7142TIP3   OH242916   3.129   5.230   4.057 -0.1523 -0.3445  0.2754
 7142TIP3    H142917   3.167   5.212   4.143 -1.8613 -2.0427  0.7023
 7142TIP3    H242918   3.040   5.260   4.076 -1.3877 -3.0753 -0.9719
 7143TIP3   OH242919   5.963   4.470   1.041 -0.4708 -0.1311 -0.3188
 7143TIP3    H142920   5.912   4.397   1.006  2.0579 -3.3536  2.4051
 7143TIP3    H242921   5.933   4.479   1.132  0.7769  0.7917  0.0108
 7144TIP3   OH242922   1.796   2.634   3.791 -0.3853  0.4855 -0.0853
 7144TIP3    H142923   1.879   2.637   3.743 -0.6228 -0.4105 -0.5702
 7144TIP3    H242924   1.775   2.540   3.795 -1.2391  0.6906  0.2741
 7145TIP3   OH242925   5.331   6.247  12.865 -0.2563  0.4653  0.4819
 7145TIP3    H142926   5.363   6.247  12.775  2.1925  1.9443  1.3138
 7145TIP3    H242927   5.258   6.309  12.864 -0.2285  0.4957 -0.4622
 7146TIP3   OH242928   0.651   4.212  15.126 -0.0430 -0.0262  0.8388
 7146TIP3    H142929   0.719   4.159  15.169 -0.2383 -0.7993  0.2234
 7146TIP3    H242930   0.572   4.157  15.130  0.2379 -0.6672 -1.5942
 7147TIP3   OH242931   5.800   1.361  16.580 -0.1498  0.2151  0.3651
 7147TIP3    H142932   5.808   1.352  16.675 -0.1320  1.7848  0.5336
 7147TIP3    H242933   5.706   1.369  16.564 -0.0477  1.5939  0.4258
 7148TIP3   OH242934   2.136   0.690   1.887  0.0347  0.3917  1.0419
 7148TIP3    H142935   2.135   0.602   1.925  0.6964 -0.6089 -1.2024
 7148TIP3    H242936   2.183   0.680   1.804  0.1858  2.8810  0.7907
 7149TIP3   OH242937   3.220   1.107  15.593 -0.5912 -0.0606  0.3073
 7149TIP3    H142938   3.181   1.118  15.680 -1.3429 -1.0142  0.0996
 7149TIP3    H242939   3.295   1.049  15.607  0.1941  0.9988  0.5516
 7150TIP3   OH242940   0.004   6.338  12.475 -0.0118  0.0142  0.3537
 7150TIP3    H142941  -0.026   6.428  12.484 -1.2793 -0.3521 -0.0621
 7150TIP3    H242942   0.018   6.326  12.381 -0.6512 -0.4608  0.3130
 7151TIP3   OH242943   4.094   3.212   4.093 -0.1280 -0.3990 -0.2943
 7151TIP3    H142944   4.026   3.152   4.123  0.4634 -0.4603  0.9618
 7151TIP3    H242945   4.124   3.256   4.172  1.9720 -1.0816 -0.6813
 7152TIP3   OH242946   3.023   1.568   6.027  0.2697 -0.1196  0.8211
 7152TIP3    H142947   2.930   1.588   6.016  0.0341 -0.7730  1.5598
 7152TIP3    H242948   3.052   1.625   6.098  0.0703 -0.9546  1.5890
 7153TIP3   OH242949   3.087   3.726  13.055 -0.2003 -0.7538  1.1129
 7153TIP3    H142950   3.172   3.682  13.046 -0.6962 -1.5928  0.4584
 7153TIP3    H242951   3.061   3.746  12.965 -0.7162 -0.5309  1.3111
 7154TIP3   OH242952   0.545   2.390  13.882 -0.4639 -0.1009 -0.5911
 7154TIP3    H142953   0.594   2.322  13.929 -1.2521  0.2677  0.8045
 7154TIP3    H242954   0.580   2.472  13.916 -0.3432  0.1823 -1.4000
 7155TIP3   OH242955   0.498   5.005  13.560 -0.4204 -0.0967  0.1839
 7155TIP3    H142956   0.405   4.987  13.575 -1.1958  3.1355 -0.3963
 7155TIP3    H242957   0.502   5.043  13.472  1.5592 -0.8469 -0.0851
 7156TIP3   OH242958   6.756   0.564  17.104 -0.0558  0.0278 -0.0746
 7156TIP3    H142959   6.760   0.643  17.157  3.8447 -0.0226 -0.1656
 7156TIP3    H242960   6.768   0.492  17.166 -0.0749 -0.2935 -0.4371
 7157TIP3   OH242961   0.216   5.773  15.562 -0.3437 -0.5048 -0.7799
 7157TIP3    H142962   0.241   5.762  15.654 -0.6417  0.2536 -0.6061
 7157TIP3    H242963   0.299   5.773  15.514 -0.1160  0.3365 -0.3831
 7158TIP3   OH242964   1.555   6.617   3.554 -0.6202 -0.3519 -0.3006
 7158TIP3    H142965   1.514   6.532   3.536 -1.5564 -0.1159  0.6626
 7158TIP3    H242966   1.558   6.622   3.649  0.8404  0.0370 -0.3626
 7159TIP3   OH242967   6.104   0.770   2.397  0.1214 -0.3022 -0.8184
 7159TIP3    H142968   6.014   0.790   2.424  0.4830  2.8917 -1.7710
 7159TIP3    H242969   6.153   0.763   2.479 -0.2772  1.7729 -0.3723
 7160TIP3   OH242970   5.804   0.110  12.905 -0.5215 -0.7590  0.1815
 7160TIP3    H142971   5.750   0.035  12.877 -0.1012 -0.8287 -0.4295
 7160TIP3    H242972   5.768   0.185  12.857 -0.2257 -0.7639 -0.0462
 7161TIP3   OH242973   1.566   3.256   4.245  0.1674  0.0973  0.5309
 7161TIP3    H142974   1.642   3.310   4.265 -0.2130  1.2419 -0.9801
 7161TIP3    H242975   1.531   3.230   4.330  1.3585  0.8205  1.2484
 7162TIP3   OH242976   6.337   1.442   4.442 -0.2791  0.7499  0.2752
 7162TIP3    H142977   6.362   1.528   4.476  1.0554  0.8748 -0.9627
 7162TIP3    H242978   6.254   1.458   4.397 -0.6817  1.1217  1.1290
 7163TIP3   OH242979   0.774   3.782  16.307 -0.3974 -0.2442 -0.6295
 7163TIP3    H142980   0.681   3.763  16.303 -0.2557 -1.1820  0.3814
 7163TIP3    H242981   0.814   3.725  16.242 -0.3718 -0.8459 -0.0869
 7164TIP3   OH242982   0.125   1.285  16.717  0.4957 -0.1460  0.1630
 7164TIP3    H142983   0.151   1.223  16.649 -0.1577  1.1532 -1.3278
 7164TIP3    H242984   0.054   1.241  16.764 -0.7045 -0.1553 -1.5697
 7165TIP3   OH242985   1.232   3.249   3.747 -0.1044  0.0344 -0.1335
 7165TIP3    H142986   1.274   3.198   3.677 -0.6388 -0.3325 -0.1896
 7165TIP3    H242987   1.240   3.194   3.825 -1.2424 -0.4285 -0.3285
 7166TIP3   OH242988   2.414   4.810   4.857  0.2941 -0.3339  0.0426
 7166TIP3    H142989   2.427   4.716   4.845  0.3742 -0.3324  0.1155
 7166TIP3    H242990   2.418   4.847   4.769 -0.4671 -0.4894 -0.0681
 7167TIP3   OH242991   6.393   2.782  15.032 -0.1329 -0.0803  0.3848
 7167TIP3    H142992   6.399   2.877  15.024 -0.4455 -0.2473 -2.8377
 7167TIP3    H242993   6.344   2.755  14.953 -0.1337 -2.8920  1.2906
 7168TIP3   OH242994   1.798   2.507  16.240 -0.0526  0.4177 -0.1773
 7168TIP3    H142995   1.773   2.599  16.245 -1.1662  0.0655  0.9371
 7168TIP3    H242996   1.819   2.483  16.330 -0.9031 -0.7246 -0.2717
 7169TIP3   OH242997   1.319   0.182  14.882 -0.3330  0.0257  0.3402
 7169TIP3    H142998   1.365   0.260  14.850  0.8541 -0.9881 -0.4564
 7169TIP3    H242999   1.244   0.173  14.824 -0.4234  0.5174  0.3743
 7170TIP3   OH243000   1.479   2.102  12.616  0.3752 -0.2406  0.2503
 7170TIP3    H143001   1.433   2.066  12.540  1.6341 -0.4596 -0.4170
 7170TIP3    H243002   1.545   2.036  12.638  2.0712  1.1791 -0.3976
 7171TIP3   OH243003   6.757   6.233   1.574  0.5527  0.1519 -0.2116
 7171TIP3    H143004   6.747   6.324   1.602  1.6135 -0.3350  1.7685
 7171TIP3    H243005   6.717   6.231   1.487 -1.7186  1.9431  0.7519
 7172TIP3   OH243006   1.836   4.216  16.279 -0.1169  0.3727 -0.0666
 7172TIP3    H143007   1.856   4.295  16.328  0.1293  0.3463 -0.1239
 7172TIP3    H243008   1.756   4.237  16.231 -0.0380  0.5953 -0.1015
 7173TIP3   OH243009   2.699   0.324  16.091  0.6966  0.0774  0.4696
 7173TIP3    H143010   2.721   0.330  15.998  2.1323  0.2413  0.8109
 7173TIP3    H243011   2.728   0.407  16.128 -0.8147  0.4410  0.8954
 7174TIP3   OH243012   2.270   4.284   1.102  0.0074 -0.1859 -0.3713
 7174TIP3    H143013   2.266   4.198   1.060  0.7350 -0.2064 -0.4027
 7174TIP3    H243014   2.351   4.323   1.070  0.7662 -0.3464  1.2869
 7175TIP3   OH243015   0.637   1.822  17.087  0.2496  0.2296  0.0427
 7175TIP3    H143016   0.619   1.742  17.137  0.7705 -0.7871 -1.3739
 7175TIP3    H243017   0.723   1.808  17.049  1.3667  2.4626  1.6683
 7176TIP3   OH243018   3.590   6.452  16.347  0.4893  0.0234 -0.1937
 7176TIP3    H143019   3.681   6.482  16.345  0.6609 -0.5186 -0.5429
 7176TIP3    H243020   3.579   6.400  16.268  0.0628 -0.4720  0.1815
 7177TIP3   OH243021   1.338   1.706  17.169  0.1031  0.2044 -0.1863
 7177TIP3    H143022   1.422   1.713  17.215  0.5671  2.2736 -1.2579
 7177TIP3    H243023   1.284   1.774  17.208 -0.0914  0.7989 -1.4515
 7178TIP3   OH243024   2.403   2.018   0.675  0.5681  0.1344  0.0655
 7178TIP3    H143025   2.434   1.949   0.616 -0.9351  0.2942 -0.9362
 7178TIP3    H243026   2.444   1.998   0.759  0.9104 -1.4206 -0.4558
 7179TIP3   OH243027   6.732   2.403   0.537 -0.1187  0.0787  0.7311
 7179TIP3    H143028   6.799   2.400   0.605  0.8553 -1.9835 -0.2944
 7179TIP3    H243029   6.780   2.397   0.455 -1.2337  3.3326 -0.2345
 7180TIP3   OH243030   2.268   6.696  11.739  0.1115 -0.0224  0.3112
 7180TIP3    H143031   2.321   6.666  11.665 -0.7540  1.7797 -1.0875
 7180TIP3    H243032   2.303   6.782  11.760 -3.0483  1.8590 -1.5675
 7181TIP3   OH243033   6.052   2.347  12.426  0.2639 -0.2097  0.3036
 7181TIP3    H143034   6.115   2.401  12.378 -0.5717  0.7974  0.3189
 7181TIP3    H243035   5.990   2.317  12.359 -1.2087  1.6319  0.7945
 7182TIP3   OH243036   5.100   6.084  14.800  0.1730  0.1567 -0.2924
 7182TIP3    H143037   5.080   6.161  14.853 -0.7030  1.1343 -1.9963
 7182TIP3    H243038   5.166   6.115  14.738  0.6932 -0.7935 -0.2156
 7183TIP3   OH243039   2.102   2.232  14.773  0.2763  0.3757  0.3443
 7183TIP3    H143040   2.152   2.176  14.713  0.7174  0.9960  0.1339
 7183TIP3    H243041   2.158   2.243  14.849 -0.6082 -1.0782  1.2486
 7184TIP3   OH243042   6.308   6.469  15.783  0.7701  0.3242  0.2181
 7184TIP3    H143043   6.218   6.487  15.808  1.3958 -0.2837  3.0582
 7184TIP3    H243044   6.312   6.373  15.774  0.9141  0.4201 -0.7734
 7185TIP3   OH243045   6.001   3.622  11.441 -0.2903 -0.0019  0.8053
 7185TIP3    H143046   5.979   3.714  11.450 -0.6027  0.0358 -0.2514
 7185TIP3    H243047   5.981   3.601  11.350  1.3551 -0.6978  0.5819
 7186TIP3   OH243048   5.946   2.881  13.448  0.6924  0.1115 -0.4993
 7186TIP3    H143049   6.025   2.829  13.432  0.5680 -1.3444  3.1014
 7186TIP3    H243050   5.964   2.927  13.530 -1.0504  2.1431 -1.2177
 7187TIP3   OH243051   1.388   6.202  10.260  0.0836  0.1870  0.2040
 7187TIP3    H143052   1.337   6.176  10.337 -0.5513  1.2490  0.1490
 7187TIP3    H243053   1.427   6.285  10.285  2.0337 -0.7505  0.3435
 7188TIP3   OH243054   1.527   3.776  16.089  0.1251 -0.4665  0.6805
 7188TIP3    H143055   1.434   3.782  16.066  0.1998 -0.2733  0.4286
 7188TIP3    H243056   1.573   3.804  16.010  0.3632  0.9216  1.2940
 7189TIP3   OH243057   0.763   1.903   4.498 -0.3849 -0.4236  0.2703
 7189TIP3    H143058   0.756   1.830   4.437 -1.2973 -0.0983 -0.0196
 7189TIP3    H243059   0.856   1.926   4.498 -0.4460 -0.1480 -1.3141
 7190TIP3   OH243060   3.461   6.668  15.434 -0.0878 -0.2000  0.2664
 7190TIP3    H143061   3.374   6.628  15.434 -0.1901  0.0220  0.5491
 7190TIP3    H243062   3.450   6.750  15.481  0.3749 -0.3985  0.7272
 7191TIP3   OH243063   5.724   3.096   2.140 -0.2294 -0.3597 -0.1091
 7191TIP3    H143064   5.677   3.155   2.199  1.0923 -1.3657  2.0063
 7191TIP3    H243065   5.665   3.021   2.129  0.2089 -0.9387  1.3368
 7192TIP3   OH243066   1.887   1.413   2.627  0.1476 -0.1939  0.4724
 7192TIP3    H143067   1.882   1.499   2.584  2.2808 -1.1673 -1.8850
 7192TIP3    H243068   1.801   1.374   2.611 -1.1156  1.7688  2.2422
 7193TIP3   OH243069   6.153   0.509   3.906 -0.3001 -0.5768  0.2364
 7193TIP3    H143070   6.248   0.504   3.892  0.3609  0.6824  3.6584
 7193TIP3    H243071   6.126   0.589   3.862  0.7180  0.4160  1.3702
 7194TIP3   OH243072   4.375   6.499   0.655  0.1454  0.3778  0.2206
 7194TIP3    H143073   4.362   6.524   0.564 -0.3537 -1.5683 -0.2637
 7194TIP3    H243074   4.470   6.509   0.670  0.2798  0.3248 -0.6075
 7195TIP3   OH243075   5.077   4.297  16.730 -0.1010 -0.1923  0.0159
 7195TIP3    H143076   5.001   4.320  16.784 -1.0343 -1.0398 -0.9219
 7195TIP3    H243077   5.047   4.224  16.676  0.9180  0.4574 -1.4557
 7196TIP3   OH243078   5.418   5.264   3.369  0.7341 -0.5244 -0.1230
 7196TIP3    H143079   5.509   5.244   3.348  0.7504  0.4354 -0.9757
 7196TIP3    H243080   5.423   5.309   3.454  0.8855 -2.1395  0.7348
 7197TIP3   OH243081   4.047   3.733   3.129  0.1476 -0.4944 -0.4588
 7197TIP3    H143082   3.959   3.710   3.160 -1.3491  2.4723 -2.2605
 7197TIP3    H243083   4.074   3.658   3.075 -0.7389 -1.9504  1.0542
 7198TIP3   OH243084   2.800   3.545  14.162  0.1404  0.4905 -0.3810
 7198TIP3    H143085   2.796   3.578  14.252  0.8192  2.4645 -1.0397
 7198TIP3    H243086   2.780   3.452  14.169 -3.1264  1.2773  1.4122
 7199TIP3   OH243087   2.347   4.717  11.664 -0.6553  0.5662  0.5345
 7199TIP3    H143088   2.389   4.689  11.745 -1.1812  0.0281  0.6299
 7199TIP3    H243089   2.255   4.695  11.676 -0.3152 -2.0869 -1.2800
 7200TIP3   OH243090   6.819   6.106  11.674  0.6845 -0.1950  0.7897
 7200TIP3    H143091   6.856   6.165  11.608  2.1208 -0.6024  1.2129
 7200TIP3    H243092   6.725   6.113  11.662  0.8686  1.3079  0.0597
 7201TIP3   OH243093   5.389   3.692   3.247 -0.1094 -0.4052 -0.1303
 7201TIP3    H143094   5.439   3.615   3.220  1.1680  0.2566  0.3186
 7201TIP3    H243095   5.303   3.681   3.204 -0.5877 -2.9875  1.3696
 7202TIP3   OH243096   1.007   0.692  12.379  0.4291  0.2508 -0.5175
 7202TIP3    H143097   0.994   0.598  12.380  1.4797  0.0987 -0.3591
 7202TIP3    H243098   0.957   0.723  12.303  1.3006 -0.6138 -1.4464
 7203TIP3   OH243099   1.212   0.436   2.579 -0.1309 -0.2851 -0.3148
 7203TIP3    H143100   1.156   0.375   2.531 -2.6409 -0.9738  3.3030
 7203TIP3    H243101   1.264   0.382   2.638 -0.5353  0.8540  1.1269
 7204TIP3   OH243102   2.969   6.135   2.920 -0.4978 -0.5809  0.6974
 7204TIP3    H143103   2.953   6.225   2.892  0.0478 -0.2692  1.3990
 7204TIP3    H243104   2.904   6.119   2.988 -1.3628 -1.1126 -0.2279
 7205TIP3   OH243105   6.203   1.943   0.301  0.8427  0.0196 -0.0251
 7205TIP3    H143106   6.127   1.981   0.345  0.4305 -0.3889 -0.3804
 7205TIP3    H243107   6.214   1.998   0.223  0.9093  0.0713  0.0202
 7206TIP3   OH243108   2.331   6.404  16.428  0.4582  0.3503  0.1825
 7206TIP3    H143109   2.377   6.444  16.502 -0.9836 -1.7715  2.3158
 7206TIP3    H243110   2.241   6.435  16.436  0.0889 -0.6267 -0.1240
 7207TIP3   OH243111   4.743   6.325  15.772 -0.4745 -0.2944 -0.2352
 7207TIP3    H143112   4.778   6.308  15.684 -0.7965  0.6646 -0.5512
 7207TIP3    H243113   4.656   6.286  15.771 -0.3681 -0.5367 -0.2421
 7208TIP3   OH243114   1.658   1.480   3.901 -0.7217 -0.3208  0.7395
 7208TIP3    H143115   1.747   1.493   3.933  0.0633 -0.7471 -1.1887
 7208TIP3    H243116   1.649   1.385   3.892 -0.8918 -0.2156 -0.3085
 7209TIP3   OH243117   0.994   6.245  17.099  0.1779  0.0649  0.4655
 7209TIP3    H143118   0.912   6.247  17.148  0.4229  0.2037  0.8663
 7209TIP3    H243119   1.032   6.159  17.118 -0.7418 -0.7160 -1.1379
 7210TIP3   OH243120   2.720   5.108  14.457 -0.1065 -0.8448 -0.7809
 7210TIP3    H143121   2.756   5.193  14.434 -0.8873 -0.7549 -1.6965
 7210TIP3    H243122   2.780   5.073  14.523 -0.6431  1.0661  0.7536
 7211TIP3   OH243123   4.565   6.114   5.288  0.1984 -0.4386  0.6947
 7211TIP3    H143124   4.638   6.171   5.312  0.9066 -0.6854 -0.8083
 7211TIP3    H243125   4.508   6.115   5.365  2.9490 -2.1539  2.8499
 7212TIP3   OH243126   0.680   0.596  13.452 -0.5964  0.3320  0.2748
 7212TIP3    H143127   0.708   0.649  13.527  0.7540  0.2314 -0.1344
 7212TIP3    H243128   0.755   0.540  13.434 -1.1183 -0.0248 -0.8157
 7213TIP3   OH243129   1.554   3.323   5.487 -0.3993  0.7257  0.7166
 7213TIP3    H143130   1.568   3.337   5.393 -1.1359 -0.2174  0.4562
 7213TIP3    H243131   1.641   3.300   5.521  0.4391  3.8164  0.7951
 7214TIP3   OH243132   6.536   4.721  17.173 -0.4357  0.4218 -0.0333
 7214TIP3    H143133   6.509   4.644  17.222  3.1557 -0.7019  0.3161
 7214TIP3    H243134   6.567   4.782  17.240 -1.1413  1.2793 -0.4822
 7215TIP3   OH243135   1.116   0.882   3.058  0.1984  0.2903 -0.8361
 7215TIP3    H143136   1.155   0.805   3.017 -0.3972 -0.1636 -0.5666
 7215TIP3    H243137   1.033   0.895   3.012 -0.1540  0.1891 -0.2369
 7216TIP3   OH243138   6.728   6.639   6.333  0.2272  0.4978  0.0841
 7216TIP3    H143139   6.634   6.646   6.347 -0.1171 -0.3996 -1.6885
 7216TIP3    H243140   6.750   6.713   6.276  0.4474  0.2067 -0.2100
 7217TIP3   OH243141   3.060   2.190   3.376 -0.4437 -0.3343 -0.0180
 7217TIP3    H143142   3.151   2.162   3.384 -1.1818 -3.1971 -1.2534
 7217TIP3    H243143   3.031   2.205   3.466  0.4810 -1.9560  0.5626
 7218TIP3   OH243144   5.328   2.109   3.203 -0.4305  0.7491 -0.1524
 7218TIP3    H143145   5.397   2.119   3.138  0.1484 -1.2764  0.1159
 7218TIP3    H243146   5.306   2.199   3.229  0.3023  1.5123 -2.0921
 7219TIP3   OH243147   1.704   6.118   3.938  0.2143 -0.0012 -0.1462
 7219TIP3    H143148   1.775   6.064   3.903 -0.2491 -2.1909  2.0875
 7219TIP3    H243149   1.624   6.077   3.905 -0.1083  0.0814  0.5231
 7220TIP3   OH243150   6.009   0.672  14.894 -0.4829  0.0139 -0.3795
 7220TIP3    H143151   5.943   0.716  14.948 -0.1462  0.7453 -0.5570
 7220TIP3    H243152   6.091   0.719  14.913 -0.1205 -0.5385 -0.5677
 7221TIP3   OH243153   3.473   6.311   4.895 -0.0969  0.5937  0.3522
 7221TIP3    H143154   3.401   6.323   4.832  1.2098  0.8074 -1.1265
 7221TIP3    H243155   3.453   6.228   4.938 -1.6703  1.0501  0.5332
 7222TIP3   OH243156   0.743   0.643   1.322 -0.0865 -0.0054  0.6427
 7222TIP3    H143157   0.649   0.642   1.308  0.0252 -1.8494 -0.2718
 7222TIP3    H243158   0.764   0.732   1.349 -2.1073  0.3631  0.9966
 7223TIP3   OH243159   3.037   5.191  15.758  0.8869 -0.2775 -0.6279
 7223TIP3    H143160   3.009   5.169  15.847  0.7830  1.3202 -0.2582
 7223TIP3    H243161   3.009   5.117  15.705 -0.7425 -0.3801  0.3602
 7224TIP3   OH243162   1.625   4.446  13.416 -0.0296  0.1011  0.4463
 7224TIP3    H143163   1.673   4.363  13.418  0.8562  0.4600 -2.8475
 7224TIP3    H243164   1.683   4.508  13.461  1.1331 -0.2031 -0.6027
 7225TIP3   OH243165   4.195   1.103   1.568 -0.3301  0.6167 -0.3991
 7225TIP3    H143166   4.143   1.104   1.488  3.2639 -0.4182 -2.8710
 7225TIP3    H243167   4.271   1.157   1.548  1.4555 -0.9833  1.7346
 7226TIP3   OH243168   0.041   4.055  12.342 -0.3727  0.0182 -0.4086
 7226TIP3    H143169   0.035   4.042  12.436 -1.2337  0.5452 -0.3864
 7226TIP3    H243170   0.100   4.130  12.331 -1.2291  0.7215 -0.2364
 7227TIP3   OH243171   0.533   4.037   1.558  0.6559 -0.4785  0.2358
 7227TIP3    H143172   0.466   3.983   1.516  1.5255 -1.0911 -0.3843
 7227TIP3    H243173   0.500   4.052   1.647  0.2747 -1.7867  0.3204
 7228TIP3   OH243174   5.236   5.381   0.626  0.4315 -0.1531  0.0128
 7228TIP3    H143175   5.196   5.323   0.690 -0.5982 -0.8062 -1.1838
 7228TIP3    H243176   5.245   5.327   0.547  1.3530  0.7232 -0.4944
 7229TIP3   OH243177   2.183   2.328  10.980 -0.0844  0.5438  0.1842
 7229TIP3    H143178   2.172   2.421  10.998 -0.0051  0.9091 -1.5424
 7229TIP3    H243179   2.094   2.294  10.973 -0.1354  0.8788 -0.9779
 7230TIP3   OH243180   1.962   0.485   4.396  0.3564 -0.3258  0.2262
 7230TIP3    H143181   1.891   0.455   4.338  1.7013  0.5991 -1.9549
 7230TIP3    H243182   2.026   0.413   4.393  1.3427  0.5802 -1.0875
 7231TIP3   OH243183   4.785   2.454  11.255  0.0110 -0.4585 -0.0889
 7231TIP3    H143184   4.740   2.458  11.340 -1.1671  0.5636 -0.7468
 7231TIP3    H243185   4.824   2.366  11.253 -2.1749 -1.4762  0.3960
 7232TIP3   OH243186   0.576   3.129  15.109  0.4057 -0.3772 -0.0455
 7232TIP3    H143187   0.652   3.118  15.167  1.0970 -0.6481 -0.9945
 7232TIP3    H243188   0.521   3.053  15.128  0.5615 -0.3981  0.3452
 7233TIP3   OH243189   3.872   2.420  15.862 -0.1212  0.0617  0.5615
 7233TIP3    H143190   3.782   2.389  15.851 -0.2198  0.7926 -0.7829
 7233TIP3    H243191   3.865   2.491  15.926 -0.4060 -0.2583  0.8918
 7234TIP3   OH243192   3.522   3.454   4.645 -0.8424 -0.0673 -0.7986
 7234TIP3    H143193   3.536   3.435   4.552  1.4467 -0.3929 -0.4260
 7234TIP3    H243194   3.521   3.367   4.687 -0.9664  0.1258 -0.3991
 7235TIP3   OH243195   4.922   0.426  13.459 -0.4039 -0.3986  0.3023
 7235TIP3    H143196   4.947   0.349  13.409  1.4178  0.5684 -0.3581
 7235TIP3    H243197   4.913   0.496  13.393 -0.7090  0.2573  1.0245
 7236TIP3   OH243198   6.216   2.889  16.144 -0.0120 -0.3694 -0.6423
 7236TIP3    H143199   6.166   2.838  16.208  0.6352 -1.5668 -1.0694
 7236TIP3    H243200   6.279   2.939  16.198 -0.9775  0.3671 -0.1880
 7237TIP3   OH243201   1.174   0.897  11.840 -0.2899 -0.3300  0.0098
 7237TIP3    H143202   1.146   0.974  11.890 -1.2348 -0.5225 -0.2130
 7237TIP3    H243203   1.247   0.861  11.890 -1.3784 -0.6610  1.4040
 7238TIP3   OH243204   0.724   3.298  12.092  0.3198 -0.3772 -0.4681
 7238TIP3    H143205   0.687   3.220  12.135  0.8877  0.1692  1.0546
 7238TIP3    H243206   0.652   3.332  12.039 -0.9004 -0.2115  1.2380
 7239TIP3   OH243207   6.329   4.268   4.423 -0.3814 -0.4067 -0.0355
 7239TIP3    H143208   6.313   4.226   4.508  0.2061  1.5688  1.0658
 7239TIP3    H243209   6.368   4.352   4.445  0.0044  0.0141 -2.2925
 7240TIP3   OH243210   2.904   6.133  13.612 -0.5838  0.2686 -0.0034
 7240TIP3    H143211   2.899   6.133  13.516  1.1192  0.4233 -0.1013
 7240TIP3    H243212   2.916   6.041  13.635  2.3097  0.5486 -0.1615
 7241TIP3   OH243213   0.649   6.650   6.351 -0.2621 -0.4633 -0.0404
 7241TIP3    H143214   0.621   6.645   6.259 -4.0962  1.9966  0.8713
 7241TIP3    H243215   0.736   6.688   6.347 -0.5691  0.1084 -2.6559
 7242TIP3   OH243216   5.261   0.566   1.896 -0.2865 -0.3971 -0.2081
 7242TIP3    H143217   5.336   0.510   1.877  0.1435 -0.5668  1.8718
 7242TIP3    H243218   5.216   0.575   1.812  2.8536  0.9473 -1.8430
 7243TIP3   OH243219   4.598   3.637   0.517 -0.3261  0.0082  0.1998
 7243TIP3    H143220   4.602   3.559   0.572 -0.1367  1.0407  1.6838
 7243TIP3    H243221   4.514   3.678   0.539 -0.7991 -0.1760 -1.1639
 7244TIP3   OH243222   4.259   3.344   2.361  0.8755  0.2235 -0.0757
 7244TIP3    H143223   4.196   3.416   2.360  0.9372  0.2920  0.8769
 7244TIP3    H243224   4.247   3.301   2.276 -0.6451  0.0529  0.2187
 7245TIP3   OH243225   2.191   0.670   0.575 -0.0630 -0.3684  0.8333
 7245TIP3    H143226   2.258   0.641   0.636 -0.1266 -2.7760 -0.1490
 7245TIP3    H243227   2.239   0.709   0.502  0.1322  0.4053  1.3798
 7246TIP3   OH243228   5.787   4.904  13.933  0.3937  0.2219  0.5315
 7246TIP3    H143229   5.755   4.837  13.873  0.2968  0.3289  0.4645
 7246TIP3    H243230   5.801   4.981  13.878  2.6960 -0.4011  0.1787
 7247TIP3   OH243231   2.209   6.521   1.617  0.3124  0.0368 -0.8037
 7247TIP3    H143232   2.219   6.483   1.704  0.4784  0.9212 -0.4237
 7247TIP3    H243233   2.224   6.448   1.556  1.7451 -0.2581 -0.1106
 7248TIP3   OH243234   6.395   6.382   4.208 -0.0507  0.1259  0.9339
 7248TIP3    H143235   6.380   6.305   4.263  0.7139 -0.0019  0.9735
 7248TIP3    H243236   6.340   6.369   4.131 -0.7583  0.0691  1.4457
 7249TIP3   OH243237   5.892   1.539  14.255 -0.2327  0.0738  0.2642
 7249TIP3    H143238   5.899   1.633  14.242  0.4304  0.3843  2.5702
 7249TIP3    H243239   5.881   1.503  14.167  0.5529  2.2099 -0.7406
 7250TIP3   OH243240   0.259   3.175   6.259  0.3481 -0.2053 -0.8776
 7250TIP3    H143241   0.242   3.184   6.353  0.5375  0.8867 -0.9421
 7250TIP3    H243242   0.336   3.119   6.254 -0.2079 -1.0220 -0.4152
 7251TIP3   OH243243   3.581   0.911   1.647  0.0505 -0.6602  0.3738
 7251TIP3    H143244   3.520   0.918   1.720 -0.3183 -0.0083 -0.0008
 7251TIP3    H243245   3.527   0.919   1.568  0.5813 -0.3160  0.0368
 7252TIP3   OH243246   6.412   4.707   4.004 -0.2871 -0.1568 -0.0777
 7252TIP3    H143247   6.372   4.792   3.989 -1.9569 -0.8868  0.1391
 7252TIP3    H243248   6.384   4.653   3.930  1.5231 -0.2643 -0.7085
 7253TIP3   OH243249   1.956   2.870   5.848  0.4750 -0.1459 -0.3734
 7253TIP3    H143250   1.992   2.827   5.770  1.3589  0.0617 -0.0914
 7253TIP3    H243251   1.867   2.837   5.855  0.2003  0.2472 -1.7840
 7254TIP3   OH243252   1.759   6.225   6.583 -0.4940  0.3937  0.1023
 7254TIP3    H143253   1.704   6.221   6.505 -2.7711 -0.5010  1.7098
 7254TIP3    H243254   1.773   6.318   6.599 -1.4852  0.6226 -0.3778
 7255TIP3   OH243255   6.510   5.711   3.756 -0.7114  0.0987  0.1304
 7255TIP3    H143256   6.492   5.619   3.735 -0.2703  0.1280 -0.3728
 7255TIP3    H243257   6.424   5.753   3.753 -1.3984 -0.8990  3.4755
 7256TIP3   OH243258   6.024   2.058  11.244 -0.1386  0.1490  0.4418
 7256TIP3    H143259   5.977   2.131  11.203 -0.7972 -0.5558 -0.0644
 7256TIP3    H243260   5.981   2.048  11.330 -0.1775  0.2359  0.4328
 7257TIP3   OH243261   1.169   1.132   1.151  0.3848 -0.7126  0.0340
 7257TIP3    H143262   1.190   1.154   1.242 -0.3718  1.5384 -0.3080
 7257TIP3    H243263   1.254   1.117   1.110  0.7771 -0.9282  0.9086
 7258TIP3   OH243264   2.864   1.825  13.338 -0.1934 -0.4542  0.3634
 7258TIP3    H143265   2.915   1.867  13.407  1.2645  1.8530 -2.0359
 7258TIP3    H243266   2.804   1.893  13.307  1.5471 -0.3198 -2.9407
 7259TIP3   OH243267   5.929   0.106   4.986 -0.6885  0.2073 -0.7389
 7259TIP3    H143268   5.855   0.049   4.965  0.9589 -1.9697 -0.8688
 7259TIP3    H243269   5.914   0.133   5.077 -3.0192  2.0186 -1.6406
 7260TIP3   OH243270   1.550   0.203   1.042 -0.3606 -0.8312 -0.8984
 7260TIP3    H143271   1.586   0.155   0.967 -0.2367 -1.8121 -0.2246
 7260TIP3    H243272   1.458   0.176   1.046 -0.5888 -0.1103 -1.2185
 7261TIP3   OH243273   0.520   3.353   1.027 -0.2671  0.0480  0.2791
 7261TIP3    H143274   0.539   3.352   1.121  1.2459 -0.8014 -0.0152
 7261TIP3    H243275   0.557   3.436   0.996  1.0943 -0.6054  0.0949
 7262TIP3   OH243276   1.764   0.728  14.722  0.5927  0.0962  0.2984
 7262TIP3    H143277   1.675   0.696  14.707  0.0012  1.1751  1.4048
 7262TIP3    H243278   1.819   0.677  14.662 -0.6752 -1.0631  0.1186
 7263TIP3   OH243279   5.873   4.021   1.585 -0.3124 -0.1871 -0.2999
 7263TIP3    H143280   5.912   4.070   1.512 -0.7717 -2.3687 -2.0581
 7263TIP3    H243281   5.920   4.052   1.662  1.1323  1.1848 -1.6904
 7264TIP3   OH243282   5.912   6.459   3.915 -0.1737 -0.4017 -0.1440
 7264TIP3    H143283   5.891   6.519   3.987  1.6519  0.2772 -0.1436
 7264TIP3    H243284   5.974   6.508   3.861 -0.8606 -1.2408 -1.7030
 7265TIP3   OH243285   3.934   6.109   5.626  0.0869  0.1253  0.0862
 7265TIP3    H143286   3.876   6.112   5.702  1.2898  0.4409  1.0129
 7265TIP3    H243287   3.907   6.184   5.573 -1.3652 -0.6280 -0.2708
 7266TIP3   OH243288   1.787   4.360  15.920  0.4474  0.8427 -0.2447
 7266TIP3    H143289   1.760   4.425  15.855 -1.0480  0.6358  0.1428
 7266TIP3    H243290   1.707   4.341  15.969  1.2839  0.0737  0.8465
 7267TIP3   OH243291   6.490   1.385   0.885  0.4562 -0.3556 -0.3651
 7267TIP3    H143292   6.401   1.354   0.898  0.5353 -0.5430 -0.2776
 7267TIP3    H243293   6.527   1.327   0.819  0.6630 -0.5582 -0.0708
 7268TIP3   OH243294   4.214   0.030  12.112  0.1942 -0.0160  0.2382
 7268TIP3    H143295   4.138   0.044  12.169  0.8417  0.1974  1.0624
 7268TIP3    H243296   4.190   0.071  12.029 -0.6517 -0.0733  0.4545
 7269TIP3   OH243297   1.660   5.782   1.474  0.0452  0.2171  0.4786
 7269TIP3    H143298   1.570   5.763   1.501  1.0911 -0.6998  3.5929
 7269TIP3    H243299   1.689   5.850   1.535  1.9435 -0.6151  0.5362
 7270TIP3   OH243300   4.183   2.522  15.797 -0.4660 -0.3552  0.1252
 7270TIP3    H143301   4.196   2.428  15.788 -1.0631 -0.4440  0.1498
 7270TIP3    H243302   4.145   2.533  15.884  0.1791 -0.0317  0.3649
 7271TIP3   OH243303   1.213   3.919   1.384 -0.3444 -0.4101  0.5557
 7271TIP3    H143304   1.262   4.000   1.399 -0.6985  0.3258 -2.1688
 7271TIP3    H243305   1.127   3.948   1.353 -0.4195 -1.8187 -0.5920
 7272TIP3   OH243306   1.512   3.591   0.944  0.2135 -0.5339  0.4911
 7272TIP3    H143307   1.484   3.578   0.854  1.3312 -0.2168  0.0894
 7272TIP3    H243308   1.607   3.588   0.940  0.2519 -1.1706  1.7654
 7273TIP3   OH243309   2.091   6.794  14.123 -0.4125  0.0700 -0.3854
 7273TIP3    H143310   2.062   6.851  14.051 -0.4082 -2.5950 -2.6099
 7273TIP3    H243311   2.169   6.751  14.088 -0.5546 -1.4508  1.1356
 7274TIP3   OH243312   0.164   2.026  11.572 -0.0185 -0.0314  0.9846
 7274TIP3    H143313   0.208   2.091  11.516  0.5264 -1.1116  0.1350
 7274TIP3    H243314   0.219   1.948  11.566  0.3918  0.0145  3.5514
 7275TIP3   OH243315   4.087   0.917   3.518  0.1714 -0.0357 -0.1857
 7275TIP3    H143316   4.139   0.880   3.447  0.0127 -0.0116 -0.3136
 7275TIP3    H243317   4.001   0.878   3.508  0.6104 -1.3583  1.0208
 7276TIP3   OH243318   5.872   0.123   3.928 -0.1771 -0.1570  0.4324
 7276TIP3    H143319   5.877   0.213   3.897  0.4308 -0.5800 -0.7232
 7276TIP3    H243320   5.939   0.076   3.877 -0.0547 -1.1251  1.4612
 7277TIP3   OH243321   0.948   0.708  15.389  0.1817  0.0790 -0.0591
 7277TIP3    H143322   1.022   0.669  15.435  0.2579  0.0753 -0.1861
 7277TIP3    H243323   0.873   0.693  15.447  0.7438  2.5531  1.4205
 7278TIP3   OH243324   3.405   0.056  10.559  0.0226  0.1984 -0.2371
 7278TIP3    H143325   3.481   0.098  10.599 -0.1104  0.9308 -0.7448
 7278TIP3    H243326   3.385   0.109  10.482 -1.4062  0.4019  0.2545
 7279TIP3   OH243327   5.752   3.670   1.216 -0.4058  0.0188  0.1189
 7279TIP3    H143328   5.725   3.737   1.154 -2.2698 -1.4817 -0.7716
 7279TIP3    H243329   5.749   3.713   1.301 -1.8578  0.9943 -0.4061
 7280TIP3   OH243330   0.354   3.846   2.748  0.3965  0.5045 -0.1540
 7280TIP3    H143331   0.372   3.787   2.676  2.8624 -0.9963  1.6190
 7280TIP3    H243332   0.290   3.800   2.802 -0.8912  1.3146 -0.9525
 7281TIP3   OH243333   0.557   4.828   2.864  0.8970  0.0748 -0.4337
 7281TIP3    H143334   0.630   4.868   2.816  0.7364  0.2838 -0.5062
 7281TIP3    H243335   0.545   4.885   2.940  1.0860 -0.2014 -0.1961
 7282TIP3   OH243336   4.180   3.115   6.043  0.4556 -0.3619 -0.8164
 7282TIP3    H143337   4.085   3.106   6.046  0.2352  2.1428  0.5835
 7282TIP3    H243338   4.211   3.071   6.122  0.3152  0.2743 -0.4016
 7283TIP3   OH243339   0.068   0.956   3.451  0.0557  0.0519 -0.3757
 7283TIP3    H143340   0.097   1.037   3.411  0.3553 -0.0555 -0.3779
 7283TIP3    H243341  -0.011   0.932   3.403 -0.4107  0.6870  0.0605
 7284TIP3   OH243342   0.988   0.095  16.993 -0.3993  0.0841  0.2556
 7284TIP3    H143343   0.918   0.068  17.052 -2.4129 -0.8737 -2.5123
 7284TIP3    H243344   0.945   0.146  16.925  1.5810 -0.5924 -1.5442
 7285TIP3   OH243345   6.508   1.110  12.409  0.2887 -0.3647  0.5837
 7285TIP3    H143346   6.445   1.177  12.382 -0.4272 -1.2742 -0.0448
 7285TIP3    H243347   6.589   1.135  12.364 -0.0695 -0.1089  0.0645
 7286TIP3   OH243348   0.904   2.306  15.436 -0.2862  0.6315  0.1905
 7286TIP3    H143349   0.936   2.332  15.349  0.6443 -0.6484  0.1408
 7286TIP3    H243350   0.819   2.268  15.419 -1.1698  2.5547  0.1305
 7287TIP3   OH243351   6.016   2.788  11.587 -0.0053  0.1900 -0.9128
 7287TIP3    H143352   6.043   2.794  11.495 -0.1421  0.0068 -0.9649
 7287TIP3    H243353   6.073   2.721  11.625  0.6027  0.8367 -0.6612
 7288TIP3   OH243354   4.136   1.191   5.730  0.4254  0.2282  0.4498
 7288TIP3    H143355   4.095   1.134   5.795 -0.2061  1.4058  1.1033
 7288TIP3    H243356   4.229   1.183   5.746  0.5130 -2.5133 -1.0779
 7289TIP3   OH243357   0.844   1.305  14.752  0.0399 -0.7394 -0.2223
 7289TIP3    H143358   0.868   1.212  14.756  1.1814 -0.4337  0.1928
 7289TIP3    H243359   0.846   1.327  14.659  0.0043 -1.0721 -0.3019
 7290TIP3   OH243360   1.222   5.348  12.038 -0.5493  0.1715 -0.4797
 7290TIP3    H143361   1.194   5.429  11.995 -0.0644 -0.6071 -2.3021
 7290TIP3    H243362   1.300   5.321  11.991  0.8454  0.0400  1.8346
 7291TIP3   OH243363   1.591   1.432  15.642  0.1621 -0.3935 -0.0630
 7291TIP3    H143364   1.554   1.356  15.598 -0.9960 -0.4711  1.0014
 7291TIP3    H243365   1.625   1.487  15.572 -0.1047 -1.3109 -0.9207
 7292TIP3   OH243366   5.479   3.371   5.443 -0.1650 -0.1426 -0.0954
 7292TIP3    H143367   5.392   3.402   5.466 -0.1760 -0.3178  0.1036
 7292TIP3    H243368   5.464   3.304   5.376 -0.1237  0.4583 -0.7043
 7293TIP3   OH243369   3.309   5.355   3.851  0.2144  0.0256 -0.5649
 7293TIP3    H143370   3.256   5.318   3.922  0.4205 -0.2411 -0.5490
 7293TIP3    H243371   3.273   5.442   3.837  0.9549  0.5595  0.7181
 7294TIP3   OH243372   1.005   0.851  16.905  0.5238 -0.1430  0.3013
 7294TIP3    H143373   1.017   0.781  16.841 -0.7902  0.0315 -0.1430
 7294TIP3    H243374   1.006   0.932  16.854  1.4217  0.1355  0.7422
 7295TIP3   OH243375   4.243   1.090  12.772  0.6539 -0.6450 -0.0610
 7295TIP3    H143376   4.307   1.100  12.841 -0.4938 -1.2009  1.1125
 7295TIP3    H243377   4.187   1.168  12.779  0.8438 -0.4497 -0.6909
 7296TIP3   OH243378   6.658   4.114  12.645  0.0950  0.1892  0.1773
 7296TIP3    H143379   6.740   4.066  12.637  1.2297  2.0588  0.3030
 7296TIP3    H243380   6.660   4.151  12.733 -1.4115 -0.6810  0.5936
 7297TIP3   OH243381   2.367   0.568  12.345  0.8650  0.0912  0.3441
 7297TIP3    H143382   2.297   0.609  12.295  0.2206  0.1285  1.2731
 7297TIP3    H243383   2.427   0.534  12.279  0.1188  0.3090 -0.4483
 7298TIP3   OH243384   2.925   5.974   1.558  0.3403 -0.0323  0.5030
 7298TIP3    H143385   2.974   6.046   1.519 -0.9547 -0.2862 -1.6500
 7298TIP3    H243386   2.989   5.905   1.572  1.3731  1.1250  1.5556
 7299TIP3   OH243387   1.428   4.554   5.318 -0.2796 -0.3895  0.4417
 7299TIP3    H143388   1.389   4.473   5.351 -1.2849 -1.1947 -2.5234
 7299TIP3    H243389   1.522   4.538   5.318 -0.4539 -1.4452  0.1915
 7300TIP3   OH243390   5.442   0.384   4.089 -0.4736  0.1548  0.2371
 7300TIP3    H143391   5.451   0.448   4.160  0.0830 -0.0293  0.3420
 7300TIP3    H243392   5.530   0.348   4.079  0.2480  2.5384 -2.7722
 7301TIP3   OH243393   6.076   2.690   1.569 -0.9186 -0.3654  0.5266
 7301TIP3    H143394   6.010   2.743   1.524 -0.4727 -0.5927 -0.4247
 7301TIP3    H243395   6.153   2.694   1.512 -1.0460 -2.4366  0.1592
 7302TIP3   OH243396   3.841   5.847   1.323 -0.0202 -0.1840  0.1939
 7302TIP3    H143397   3.770   5.901   1.287  0.0578  0.7393  1.4068
 7302TIP3    H243398   3.908   5.909   1.351  0.1040 -0.8911  1.5342
 7303TIP3   OH243399   0.977   6.589   1.447 -0.1391 -0.1269 -0.3157
 7303TIP3    H143400   1.034   6.565   1.374 -0.2109  0.1918 -0.4770
 7303TIP3    H243401   0.922   6.659   1.413 -1.4134 -1.2009 -0.5175
 7304TIP3   OH243402   1.922   3.780   1.293  0.0151 -0.0923  0.4927
 7304TIP3    H143403   1.904   3.873   1.302 -1.1654 -0.0870 -1.6738
 7304TIP3    H243404   2.002   3.775   1.241  1.7225 -0.2686  3.0594
 7305TIP3   OH243405   1.024   1.489   3.677 -0.5902  0.4130 -0.2756
 7305TIP3    H143406   1.013   1.393   3.678  0.2233  0.3176 -0.6227
 7305TIP3    H243407   0.953   1.521   3.733  0.2741 -0.5012  1.3916
 7306TIP3   OH243408   0.397   4.675   5.724  0.0888  0.1871 -0.3381
 7306TIP3    H143409   0.399   4.587   5.686  1.0034  0.3745 -0.7392
 7306TIP3    H243410   0.436   4.731   5.656 -2.0134  1.1776 -0.7706
 7307TIP3   OH243411   4.536   2.680  15.135  0.0378  0.5008  0.1034
 7307TIP3    H143412   4.470   2.662  15.068  0.6698  3.1859 -1.2832
 7307TIP3    H243413   4.551   2.774  15.129  5.4579 -0.2940 -0.9779
 7308TIP3   OH243414   5.156   3.825   5.437 -0.2495 -0.1919  0.0706
 7308TIP3    H143415   5.087   3.819   5.371  2.0670 -0.0511 -2.4802
 7308TIP3    H243416   5.237   3.829   5.386  1.5201  1.8763  2.9030
 7309TIP3   OH243417   0.306   6.642   3.731  0.1138  0.2246  0.2275
 7309TIP3    H143418   0.257   6.573   3.686  0.6266 -0.3998  0.6108
 7309TIP3    H243419   0.363   6.679   3.663  0.7014 -0.5444  0.2880
 7310TIP3   OH243420   5.899   0.204  17.260  0.3837  0.2870 -0.4355
 7310TIP3    H143421   5.910   0.299  17.248  2.2398  0.1768  0.2169
 7310TIP3    H243422   5.982   0.167  17.232  0.3639 -0.9845  1.1377
 7311TIP3   OH243423   0.457   2.067   2.883  0.0275 -0.7320 -0.6565
 7311TIP3    H143424   0.403   2.047   2.806  0.9994 -1.0095 -1.2886
 7311TIP3    H243425   0.449   1.989   2.938  0.6349 -1.2441 -1.2639
 7312TIP3   OH243426   1.278   0.612  13.870 -0.0730  0.2109  0.1686
 7312TIP3    H143427   1.222   0.690  13.862 -1.1443 -0.6537 -1.0400
 7312TIP3    H243428   1.335   0.631  13.944 -0.5262  2.0245  0.0893
 7313TIP3   OH243429   3.924   6.277  15.371 -0.7912  0.2536  0.4504
 7313TIP3    H143430   3.835   6.260  15.404 -0.5686 -1.6143  0.1266
 7313TIP3    H243431   3.982   6.239  15.437 -0.3110 -1.3737 -0.8553
 7314TIP3   OH243432   0.589   0.679  14.810 -0.4008 -0.4129  0.0066
 7314TIP3    H143433   0.596   0.767  14.845 -1.0783 -0.9681  1.5560
 7314TIP3    H243434   0.573   0.623  14.886  0.6015 -1.9529 -0.8660
 7315TIP3   OH243435   2.022   3.205   3.451 -0.0494  0.1437 -0.0882
 7315TIP3    H143436   2.044   3.250   3.370 -0.3163 -0.6912 -0.6282
 7315TIP3    H243437   2.025   3.273   3.518  0.6417  0.7416 -0.7201
 7316TIP3   OH243438   3.776   3.559  14.515 -0.0597 -0.1257  0.1070
 7316TIP3    H143439   3.722   3.592  14.443 -0.7211 -0.9874  0.2006
 7316TIP3    H243440   3.861   3.542  14.475 -0.0926  0.4732 -0.2223
 7317TIP3   OH243441   6.180   4.050   1.111  0.5921 -0.0275  0.1414
 7317TIP3    H143442   6.189   3.957   1.132  0.5183  0.3240  1.7237
 7317TIP3    H243443   6.086   4.063   1.103  0.6503 -0.3100 -1.1411
 7318TIP3   OH243444   0.237   5.068   0.649  0.4852  0.1567  0.2235
 7318TIP3    H143445   0.166   5.030   0.701 -0.4448  0.6062 -0.6982
 7318TIP3    H243446   0.292   4.994   0.624  0.4178 -0.1756  1.0432
 7319TIP3   OH243447   0.941   4.587  15.096 -0.1550 -0.0301 -0.2709
 7319TIP3    H143448   1.024   4.565  15.139  0.2569  0.1979 -0.9371
 7319TIP3    H243449   0.924   4.512  15.038 -1.3510 -0.9203  1.1980
 7320TIP3   OH243450   1.820   0.540  13.358  0.1748  0.0242 -0.2088
 7320TIP3    H143451   1.843   0.521  13.268  0.7338 -1.5732  0.2610
 7320TIP3    H243452   1.850   0.630  13.372 -2.4068  1.2950 -2.4134
 7321TIP3   OH243453   1.597   4.098   2.268  0.0494 -0.0583 -0.1839
 7321TIP3    H143454   1.662   4.088   2.198  0.0733 -1.6122  0.0556
 7321TIP3    H243455   1.640   4.157   2.331  0.7589 -0.1267 -0.5904
 7322TIP3   OH243456   2.139   6.611  16.517  0.0212  0.1965  0.3253
 7322TIP3    H143457   2.060   6.611  16.572 -0.3235  0.0965 -0.1737
 7322TIP3    H243458   2.111   6.652  16.435  0.8438  1.4712  0.6590
 7323TIP3   OH243459   5.671   0.099  11.979  0.2291  0.0615 -0.0664
 7323TIP3    H143460   5.662   0.192  11.957 -0.2263 -0.0106 -0.1780
 7323TIP3    H243461   5.761   0.091  12.010  0.2653  0.5467 -0.0379
 7324TIP3   OH243462   0.885   1.526  15.609 -0.4539  0.5510  0.3824
 7324TIP3    H143463   0.821   1.454  15.610 -0.4228  0.5167 -0.1625
 7324TIP3    H243464   0.966   1.487  15.639  0.3974 -0.4276 -3.0107
 7325TIP3   OH243465   3.861   0.276  11.447 -0.1378  0.6328  0.2376
 7325TIP3    H143466   3.782   0.311  11.408 -0.5641 -0.5936 -0.0110
 7325TIP3    H243467   3.870   0.323  11.530 -1.6552  0.1111  0.7150
 7326TIP3   OH243468   0.225   0.773  11.268 -0.1999  0.0093 -0.4910
 7326TIP3    H143469   0.264   0.840  11.213 -1.3776  0.8874 -0.2670
 7326TIP3    H243470   0.299   0.719  11.295  1.0409  2.2461  0.7600
 7327TIP3   OH243471   3.478   2.514   6.450  0.0446 -0.1674  0.1201
 7327TIP3    H143472   3.443   2.600   6.473 -2.2186 -0.3603 -2.3274
 7327TIP3    H243473   3.572   2.526   6.444 -0.1108  1.7661  1.2385
 7328TIP3   OH243474   5.604   3.363   0.108  0.8068 -0.2112 -0.4811
 7328TIP3    H143475   5.654   3.370   0.189  0.3962 -2.3717 -0.0080
 7328TIP3    H243476   5.667   3.331   0.043  0.5730 -0.7581 -0.4381
 7329TIP3   OH243477   0.535   0.908   5.553 -0.0140 -0.1768  0.2986
 7329TIP3    H143478   0.621   0.940   5.579  1.2726 -1.5937 -2.1370
 7329TIP3    H243479   0.504   0.972   5.489  0.5720 -1.3026 -1.1270
 7330TIP3   OH243480   1.523   5.524   0.891 -0.6064  0.0072 -0.2740
 7330TIP3    H143481   1.607   5.560   0.921 -0.2819 -0.0623 -1.0880
 7330TIP3    H243482   1.477   5.500   0.972  0.5065 -0.7257  0.1580
 7331TIP3   OH243483   6.278   1.335  13.049  0.2023  0.4168 -0.9788
 7331TIP3    H143484   6.248   1.394  13.117 -0.7659 -0.2664 -0.8019
 7331TIP3    H243485   6.211   1.266  13.045  2.1446 -1.6164  0.0277
 7332TIP3   OH243486   2.688   2.708  11.873  0.5711  0.0167  0.1510
 7332TIP3    H143487   2.653   2.709  11.784 -1.3990 -0.5003  0.8846
 7332TIP3    H243488   2.713   2.617  11.888 -0.4658 -0.1922  0.6303
 7333TIP3   OH243489   2.689   3.520   2.210 -0.1293 -0.2906  0.5054
 7333TIP3    H143490   2.632   3.490   2.281 -0.4617  0.8916  0.7493
 7333TIP3    H243491   2.716   3.440   2.165 -1.3402 -0.9134  0.8829
 7334TIP3   OH243492   5.085   0.174   1.079 -0.2735  0.0376 -0.2479
 7334TIP3    H143493   5.125   0.127   1.152  0.2230  0.2981 -0.3438
 7334TIP3    H243494   5.007   0.124   1.056  0.6465 -1.1535 -0.8361
 7335TIP3   OH243495   6.269   3.720  13.420 -0.1983  0.4521 -0.2569
 7335TIP3    H143496   6.249   3.811  13.396  0.5315  0.5661 -0.4471
 7335TIP3    H243497   6.364   3.716  13.418 -0.1620  0.1328  1.4072
 7336TIP3   OH243498   3.002   4.557   4.990  0.0385  0.3587  0.3585
 7336TIP3    H143499   3.054   4.486   5.028  0.1360  0.6470  0.7766
 7336TIP3    H243500   2.913   4.541   5.022 -0.0225  0.1736  0.0918
 7337TIP3   OH243501   4.256   4.332  17.102  0.3991  0.0571 -0.0120
 7337TIP3    H143502   4.237   4.248  17.143  2.1380 -0.7158 -0.7496
 7337TIP3    H243503   4.266   4.312  17.009  1.6762  0.9147 -0.0810
 7338TIP3   OH243504   2.477   1.996   4.092 -0.0714  0.4743 -0.0694
 7338TIP3    H143505   2.419   1.925   4.119  1.2576 -1.1370 -1.2715
 7338TIP3    H243506   2.556   1.951   4.062  0.9873  2.5113 -0.4086
 7339TIP3   OH243507   2.622   6.639  11.240  0.0060 -0.6023  0.0859
 7339TIP3    H143508   2.696   6.700  11.242 -0.3212  0.0696 -3.5718
 7339TIP3    H243509   2.628   6.591  11.322  2.0833  2.2384  1.6887
 7340TIP3   OH243510   0.398   6.224  13.245 -0.2289 -0.1004 -0.4401
 7340TIP3    H143511   0.307   6.242  13.221 -0.1051  0.5413 -0.4358
 7340TIP3    H243512   0.397   6.219  13.341 -0.1756  0.4149 -0.4085
 7341TIP3   OH243513   4.942   0.567   0.256  0.2439  0.2531  0.4510
 7341TIP3    H143514   4.905   0.615   0.181 -0.4303  0.0274  0.6379
 7341TIP3    H243515   4.972   0.484   0.219 -0.4078 -0.0035  0.4925
 7342TIP3   OH243516   5.604   5.652  11.009 -0.1928 -0.0964  0.0759
 7342TIP3    H143517   5.596   5.742  11.039  0.1428 -0.2116  0.5239
 7342TIP3    H243518   5.666   5.612  11.071  1.2434 -0.0897 -1.3359
 7343TIP3   OH243519   1.162   2.420   3.980  0.2058  0.1336 -0.1067
 7343TIP3    H143520   1.244   2.413   3.931 -0.0534  0.5846 -0.6102
 7343TIP3    H243521   1.106   2.475   3.926 -0.4152 -0.1268  0.2643
 7344TIP3   OH243522   6.570   4.273  16.413 -0.7187  0.0691 -0.3988
 7344TIP3    H143523   6.570   4.291  16.507 -0.2852  0.5410 -0.4888
 7344TIP3    H243524   6.642   4.325  16.378 -1.4931  0.6675 -1.1390
 7345TIP3   OH243525   0.958   6.548   2.474 -0.2801 -0.1619  0.1934
 7345TIP3    H143526   0.958   6.606   2.398 -0.0515 -0.6190 -0.1580
 7345TIP3    H243527   1.004   6.598   2.543 -1.2148  0.5789  0.2890
 7346TIP3   OH243528   0.610   3.892   4.361  0.2480 -0.3750 -0.1329
 7346TIP3    H143529   0.574   3.834   4.428 -2.2752  1.0322 -0.1944
 7346TIP3    H243530   0.671   3.948   4.409 -0.0260 -0.6995  0.6028
 7347TIP3   OH243531   5.961   2.167   3.383  0.0316 -0.5951 -0.0463
 7347TIP3    H143532   5.900   2.106   3.341 -1.2686 -0.6950  1.9490
 7347TIP3    H243533   6.012   2.112   3.442 -0.1789  0.0116  0.7042
 7348TIP3   OH243534   0.697   5.533   2.576 -0.2227 -0.1449 -0.0601
 7348TIP3    H143535   0.737   5.612   2.541  2.0640 -0.9491  0.6358
 7348TIP3    H243536   0.669   5.484   2.499  0.7217  0.1653 -0.6136
 7349TIP3   OH243537   3.716   4.590  15.925 -0.3238 -0.0352 -0.2532
 7349TIP3    H143538   3.773   4.607  16.000 -0.3445  0.6333 -0.3845
 7349TIP3    H243539   3.672   4.674  15.909 -0.7326 -0.3272 -0.6602
 7350TIP3   OH243540   2.292   1.836  17.189 -0.7395 -0.0106  0.5258
 7350TIP3    H143541   2.232   1.865  17.120  0.2498  0.9234  0.0277
 7350TIP3    H243542   2.353   1.777  17.144 -0.5729 -0.0200  0.7642
 7351TIP3   OH243543   3.597   3.002  16.790  0.9347 -0.3051  0.3431
 7351TIP3    H143544   3.635   3.059  16.725 -0.2345  0.5849  0.4253
 7351TIP3    H243545   3.530   3.055  16.833 -0.3453 -1.7895  0.2524
 7352TIP3   OH243546   4.859   3.831   1.931 -0.1113 -0.0317 -0.8077
 7352TIP3    H143547   4.929   3.780   1.970 -2.0609 -1.5900  0.7539
 7352TIP3    H243548   4.903   3.905   1.889  2.4028 -0.8251  0.3690
 7353TIP3   OH243549   4.240   3.885  10.485  0.1082  0.3077  0.1633
 7353TIP3    H143550   4.245   3.955  10.550  2.0122  1.7444 -1.5131
 7353TIP3    H243551   4.184   3.920  10.416  0.2804 -0.1976 -0.2323
 7354TIP3   OH243552   0.066   5.466  17.118  0.4249  0.5531 -0.1982
 7354TIP3    H143553   0.040   5.465  17.210  0.0636 -3.2316 -0.2540
 7354TIP3    H243554   0.152   5.424  17.117  0.1256 -0.0562 -1.6482
 7355TIP3   OH243555   0.388   1.093  12.104  0.2943 -0.3038  0.1924
 7355TIP3    H143556   0.336   1.157  12.055 -2.1729 -2.5711 -0.2740
 7355TIP3    H243557   0.326   1.053  12.165  2.1877 -1.0533  1.6656
 7356TIP3   OH243558   6.773   4.916   4.259  0.2576  0.4247  0.1481
 7356TIP3    H143559   6.784   4.858   4.334 -1.6540 -1.4110 -0.9575
 7356TIP3    H243560   6.759   5.003   4.298 -0.5204 -0.4751  1.9067
 7357TIP3   OH243561   6.130   4.132  13.833  0.3408  0.2629 -0.5141
 7357TIP3    H143562   6.197   4.079  13.788 -1.2634 -3.2663  1.1151
 7357TIP3    H243563   6.066   4.152  13.764 -0.2054 -1.9235 -0.6758
 7358TIP3   OH243564   3.754   2.608   2.274  0.2998  0.4051 -0.4180
 7358TIP3    H143565   3.705   2.621   2.193  0.2208 -2.5928 -0.9411
 7358TIP3    H243566   3.687   2.582   2.338  0.8068 -0.7463 -0.3455
 7359TIP3   OH243567   6.738   2.690  12.219 -0.5571  0.8786 -0.1911
 7359TIP3    H143568   6.653   2.731  12.201 -0.5440  0.4646 -1.1791
 7359TIP3    H243569   6.799   2.764  12.225 -0.6504  1.0484 -1.3243
 7360TIP3   OH243570   1.308   0.729  15.482  0.1847  0.5673  0.1661
 7360TIP3    H143571   1.264   0.645  15.466  1.2093  0.2372 -0.9624
 7360TIP3    H243572   1.301   0.742  15.576  0.1233 -0.8534  0.3689
 7361TIP3   OH243573   0.986   5.757   1.329 -0.4099 -0.4341  0.1182
 7361TIP3    H143574   0.983   5.834   1.273  3.0373  1.2343  2.0594
 7361TIP3    H243575   1.052   5.700   1.288 -1.1215 -1.2256  0.0546
 7362TIP3   OH243576   0.453   6.235   5.654  0.1624  0.3012 -0.1552
 7362TIP3    H143577   0.541   6.238   5.690  0.4610  0.1152 -0.8656
 7362TIP3    H243578   0.397   6.216   5.730  0.6110  1.4338  0.4765
 7363TIP3   OH243579   2.648   6.769   2.049  0.5265  0.3430  0.7740
 7363TIP3    H143580   2.679   6.689   2.007 -0.4918 -0.7963  2.1459
 7363TIP3    H243581   2.631   6.743   2.140 -0.6632  1.9050  1.0095
 7364TIP3   OH243582   5.089   6.661  14.592  0.1455  0.0560  1.2316
 7364TIP3    H143583   5.178   6.661  14.555 -1.2447  1.3568 -2.3109
 7364TIP3    H243584   5.063   6.569  14.590  0.4252 -0.0035 -0.2531
 7365TIP3   OH243585   2.538   1.159   0.073  0.5720 -0.0289  0.3614
 7365TIP3    H143586   2.605   1.109   0.026 -0.4374 -1.8167  0.8025
 7365TIP3    H243587   2.464   1.161   0.013  0.0665 -0.3879  0.9766
 7366TIP3   OH243588   1.669   1.314  12.350 -0.0204 -0.3823  0.2633
 7366TIP3    H143589   1.690   1.254  12.279  1.3952 -0.4067  0.6813
 7366TIP3    H243590   1.621   1.386  12.308  0.2706 -0.6931 -0.6012
 7367TIP3   OH243591   3.937   0.337   3.819  0.8674 -0.2845  0.7913
 7367TIP3    H143592   3.875   0.335   3.891  1.7887 -2.0033  1.5713
 7367TIP3    H243593   4.021   0.360   3.859  1.5331 -1.9498  0.4155
 7368TIP3   OH243594   4.445   0.507   6.680  0.0649  0.2132  0.4965
 7368TIP3    H143595   4.408   0.490   6.767  1.1383  0.7198  1.0676
 7368TIP3    H243596   4.523   0.451   6.677 -1.3896 -1.8111 -1.1866
 7369TIP3   OH243597   4.486   4.725  10.690  0.1673  0.5943  0.1883
 7369TIP3    H143598   4.392   4.735  10.678  0.0838 -0.8455 -0.5124
 7369TIP3    H243599   4.524   4.806  10.656 -0.5664 -0.5123 -3.4515
 7370TIP3   OH243600   3.589   3.581  15.660  1.0005  0.0689 -0.5363
 7370TIP3    H143601   3.625   3.599  15.747 -0.0813  0.4475 -0.1525
 7370TIP3    H243602   3.624   3.495  15.637  0.8817 -0.2726  0.5174
 7371TIP3   OH243603   3.720   4.810   5.689  0.4579 -0.4168 -0.0683
 7371TIP3    H143604   3.662   4.774   5.622  1.9323  1.4109 -2.4194
 7371TIP3    H243605   3.743   4.735   5.743 -0.3645 -2.0671 -1.9158
 7372TIP3   OH243606   2.479   1.191   4.433 -0.1358 -0.3011 -0.3454
 7372TIP3    H143607   2.457   1.266   4.488 -0.7585 -0.3251 -0.5465
 7372TIP3    H243608   2.565   1.210   4.398  1.4014 -1.4342  2.6337
 7373TIP3   OH243609   1.710   3.097  12.412 -0.1667  0.0584  0.1937
 7373TIP3    H143610   1.671   3.043  12.343  0.9008 -0.5547  0.0623
 7373TIP3    H243611   1.696   3.187  12.382  0.8697 -0.2101 -1.1732
 7374TIP3   OH243612   5.229   0.154  14.852 -0.5232  0.1681  0.2424
 7374TIP3    H143613   5.291   0.153  14.778  1.3799  1.8747  1.7469
 7374TIP3    H243614   5.267   0.093  14.915 -0.6469  0.8309  0.9582
 7375TIP3   OH243615   4.159   5.017   5.718  0.3924 -0.5477 -0.0564
 7375TIP3    H143616   4.156   4.926   5.690  1.3481 -0.4124 -0.6217
 7375TIP3    H243617   4.234   5.054   5.671  0.9768  0.1177  1.3695
 7376TIP3   OH243618   6.478   1.650   2.329 -0.1876 -0.1650  0.0533
 7376TIP3    H143619   6.465   1.634   2.422  0.6353  0.8120  0.3326
 7376TIP3    H243620   6.566   1.619   2.311 -0.2463 -0.1024 -0.3488
 7377TIP3   OH243621   2.447   1.173  11.459 -0.8124 -0.6779 -0.2598
 7377TIP3    H143622   2.535   1.149  11.428 -0.7417 -1.5618  0.6084
 7377TIP3    H243623   2.388   1.122  11.405 -0.7352 -1.2802  0.2262
 7378TIP3   OH243624   4.792   5.539   1.512 -0.1402  0.2057 -0.4400
 7378TIP3    H143625   4.883   5.527   1.488 -0.5752  0.1769 -2.0898
 7378TIP3    H243626   4.763   5.452   1.542  1.5911  1.1745  4.4452
 7379TIP3   OH243627   1.932   6.417   1.228  0.4178  0.2072  0.5469
 7379TIP3    H143628   1.935   6.464   1.311  2.6786 -0.8388  1.0942
 7379TIP3    H243629   1.879   6.473   1.171  1.8424  2.7331  1.5929
 7380TIP3   OH243630   5.028   5.724  11.718  0.5125  0.4494 -0.3314
 7380TIP3    H143631   5.009   5.698  11.808 -1.2132  1.8624 -0.2599
 7380TIP3    H243632   5.084   5.801  11.727  1.0864  0.0493 -0.4764
 7381TIP3   OH243633   3.319   5.464  14.026  0.0315  0.0754  0.1353
 7381TIP3    H143634   3.276   5.532  14.077  0.5712 -0.6286  1.5872
 7381TIP3    H243635   3.301   5.486  13.935 -0.5187  1.6605  0.6152
 7382TIP3   OH243636   3.861   5.316  12.556 -0.2214 -0.3574  0.4115
 7382TIP3    H143637   3.923   5.338  12.625  0.5034 -0.9338 -0.0468
 7382TIP3    H243638   3.883   5.227  12.531 -1.1889 -0.5378  0.1850
 7383TIP3   OH243639   2.390   0.532   1.097  0.3255  0.3123 -0.1468
 7383TIP3    H143640   2.317   0.496   1.148  0.2472  1.8775  0.8746
 7383TIP3    H243641   2.447   0.458   1.080  0.3681 -0.2293  2.2544
 7384TIP3   OH243642   3.110   0.842   2.034 -0.1646  0.1907 -0.1834
 7384TIP3    H143643   3.036   0.874   1.983  1.2560 -0.1327 -2.5519
 7384TIP3    H243644   3.164   0.795   1.970  2.7272  1.5317  1.2048
 7385TIP3   OH243645   3.534   3.009   1.565 -0.0573  0.3939  0.6060
 7385TIP3    H143646   3.462   2.984   1.623  0.9926  1.3010  2.3258
 7385TIP3    H243647   3.596   2.937   1.570  0.9398  1.3506  2.1461
 7386TIP3   OH243648   1.234   2.172   1.240 -0.5102 -0.3843  0.1003
 7386TIP3    H143649   1.170   2.239   1.265 -1.3342 -0.4737 -1.7057
 7386TIP3    H243650   1.208   2.095   1.291 -0.6731  0.1243  0.7995
 7387TIP3   OH243651   4.840   1.947   5.714 -0.4348  0.0350 -0.5649
 7387TIP3    H143652   4.759   1.906   5.684  0.7561 -1.7675 -1.4072
 7387TIP3    H243653   4.905   1.922   5.648  0.5134  2.6618 -0.6938
 7388TIP3   OH243654   4.292   3.591   4.193  0.1961 -0.4696  0.1129
 7388TIP3    H143655   4.224   3.523   4.189  0.9113 -1.1853 -0.0834
 7388TIP3    H243656   4.244   3.672   4.209 -0.8284 -0.7634 -1.4079
 7389TIP3   OH243657   3.617   5.538  11.490 -0.1167 -0.1946  0.1888
 7389TIP3    H143658   3.694   5.486  11.467 -0.9387 -1.6362  0.5644
 7389TIP3    H243659   3.563   5.478  11.542 -1.0741  1.0783  0.6941
 7390TIP3   OH243660   4.149   6.667  14.761  0.3757 -0.7158  0.0815
 7390TIP3    H143661   4.187   6.698  14.843 -0.5673  0.2831  0.1501
 7390TIP3    H243662   4.058   6.694  14.765  0.7653  1.0501 -2.1520
 7391TIP3   OH243663   1.362   5.179  16.929 -0.4296 -0.4179 -0.0139
 7391TIP3    H143664   1.308   5.240  16.979 -2.2959 -0.8393 -1.4306
 7391TIP3    H243665   1.386   5.227  16.850 -0.5560 -0.9722 -0.3938
 7392TIP3   OH243666   3.351   0.311   1.765  0.3422  0.3071 -0.1666
 7392TIP3    H143667   3.342   0.223   1.729 -1.0786  0.5768 -0.5431
 7392TIP3    H243668   3.417   0.353   1.710  0.7240 -0.3908 -0.2455
 7393TIP3   OH243669   0.978   1.186   6.680 -0.1758  0.4370 -0.8820
 7393TIP3    H143670   1.014   1.100   6.698 -0.1301  0.4578 -0.8763
 7393TIP3    H243671   0.980   1.194   6.585 -0.4380  0.3191 -0.8995
 7394TIP3   OH243672   6.473   6.566   1.894 -0.3723 -0.5235 -0.4751
 7394TIP3    H143673   6.444   6.622   1.966 -1.4962 -1.4477 -0.1843
 7394TIP3    H243674   6.483   6.626   1.819  0.9808  0.4703  0.4729
 7395TIP3   OH243675   5.229   5.640  12.187 -0.1495  0.0228  0.1496
 7395TIP3    H143676   5.275   5.556  12.178 -0.9034 -0.5389  1.4950
 7395TIP3    H243677   5.294   5.698  12.227 -0.0625 -0.2887  0.4600
 7396TIP3   OH243678   2.141   6.009   6.654  0.2336  0.8619  0.7001
 7396TIP3    H143679   2.135   6.049   6.567  1.3472  1.0741  0.7144
 7396TIP3    H243680   2.118   5.918   6.640  2.4496  0.4043 -0.2040
 7397TIP3   OH243681   4.940   2.492   5.256 -0.3630  0.3065 -0.2942
 7397TIP3    H143682   4.965   2.413   5.303  0.1041  1.6507  1.7652
 7397TIP3    H243683   4.895   2.546   5.321  1.9007  2.9769 -0.8271
 7398TIP3   OH243684   2.169   5.780  12.625 -0.1214 -0.0914 -0.8083
 7398TIP3    H143685   2.096   5.784  12.687  0.2548 -1.7020 -0.2402
 7398TIP3    H243686   2.128   5.771  12.539 -0.6361  1.7678 -0.7812
 7399TIP3   OH243687   3.366   1.773   0.985 -0.2640 -0.1205 -0.3392
 7399TIP3    H143688   3.414   1.691   1.001 -0.4882 -0.1412  0.2316
 7399TIP3    H243689   3.317   1.789   1.066  0.2397  0.8983 -0.2316
 7400TIP3   OH243690   0.591   5.268   6.048  0.0561 -0.2228  0.2260
 7400TIP3    H143691   0.611   5.205   6.117 -0.2001 -1.7107 -1.0164
 7400TIP3    H243692   0.676   5.304   6.023 -0.0210  1.7650  2.5837
 7401TIP3   OH243693   3.211   1.794   6.019  0.2340 -0.2482 -0.2591
 7401TIP3    H143694   3.294   1.747   6.029 -0.0421 -1.1048 -1.8690
 7401TIP3    H243695   3.236   1.879   5.983  0.4540 -0.2898 -0.2051
 7402TIP3   OH243696   3.673   1.095  12.484  0.1137 -0.3676 -0.6044
 7402TIP3    H143697   3.689   1.000  12.491  0.0431 -0.3484 -0.1939
 7402TIP3    H243698   3.758   1.131  12.458  0.3511 -0.4507  0.0454
 7403TIP3   OH243699   0.665   6.169  10.547  0.4207  0.0375 -0.0079
 7403TIP3    H143700   0.738   6.125  10.503 -0.4212 -0.8613 -0.5114
 7403TIP3    H243701   0.591   6.109  10.538 -0.4878  1.1141  0.1690
 7404TIP3   OH243702   2.523   4.282  16.182 -0.3616 -0.4538 -0.1508
 7404TIP3    H143703   2.583   4.327  16.122 -0.4315 -0.5689 -0.3113
 7404TIP3    H243704   2.567   4.283  16.266 -0.1992 -0.4150 -0.2374
 7405TIP3   OH243705   4.639   6.041   5.900  0.6219 -0.2110 -0.5326
 7405TIP3    H143706   4.709   6.083   5.950  0.7885 -0.7114 -0.3535
 7405TIP3    H243707   4.565   6.037   5.960  0.2062  0.9487 -0.9345
 7406TIP3   OH243708   1.655   1.317   6.025  0.5150 -0.1707 -0.3702
 7406TIP3    H143709   1.595   1.249   6.055 -1.1442  2.1052  1.6421
 7406TIP3    H243710   1.601   1.376   5.973  1.2394  1.2441  0.4545
 7407TIP3   OH243711   1.418   2.734   5.455 -0.2251  0.1400 -0.3749
 7407TIP3    H143712   1.347   2.680   5.420 -0.0166 -1.0837  0.9837
 7407TIP3    H243713   1.432   2.802   5.390 -1.7374 -0.3998 -1.2881
 7408TIP3   OH243714   6.556   1.127  17.139  0.0623 -0.1757 -0.0946
 7408TIP3    H143715   6.479   1.155  17.091 -0.7094  0.2315  1.3765
 7408TIP3    H243716   6.525   1.057  17.197  0.8936 -0.3469  0.1632
 7409TIP3   OH243717   2.045   6.337  14.369 -0.6302  0.3993  0.9923
 7409TIP3    H143718   2.132   6.372  14.349  0.2226 -0.2041  3.4224
 7409TIP3    H243719   2.059   6.244  14.384 -1.8404  0.1421  0.5646
 7410TIP3   OH243720   6.255   1.097  16.969  0.0926 -0.0374  0.2629
 7410TIP3    H143721   6.304   1.169  16.928 -0.0866  0.4215  0.8384
 7410TIP3    H243722   6.175   1.138  17.002 -0.2403 -0.6023  0.1533
 7411TIP3   OH243723   3.798   5.233  13.834 -0.0318  0.2992 -0.1969
 7411TIP3    H143724   3.741   5.217  13.910  0.3506 -2.6373 -0.4497
 7411TIP3    H243725   3.755   5.303  13.785 -2.0464 -0.0740  0.9855
 7412TIP3   OH243726   0.856   4.510   3.541 -0.1802 -0.1096  0.5585
 7412TIP3    H143727   0.766   4.528   3.514 -0.2162 -0.5355  0.3965
 7412TIP3    H243728   0.892   4.455   3.471 -0.0650 -0.6567  1.0407
 7413TIP3   OH243729   1.036   1.104  14.780 -0.1635 -0.0080  0.1464
 7413TIP3    H143730   1.022   1.009  14.782  2.1041 -0.3354  2.5204
 7413TIP3    H243731   1.123   1.114  14.742 -0.6868  1.1852 -0.7588
 7414TIP3   OH243732   2.911   3.710   2.149  0.1523  0.3006  0.4437
 7414TIP3    H143733   2.844   3.642   2.145 -1.3269  1.7648 -0.5001
 7414TIP3    H243734   2.980   3.681   2.089 -1.4903  0.6832 -1.6709
 7415TIP3   OH243735   4.364   0.393  16.942  0.6100  0.3215 -0.2473
 7415TIP3    H143736   4.312   0.471  16.926  0.2932  0.1880  0.1251
 7415TIP3    H243737   4.343   0.334  16.870 -0.2939 -0.0134  0.2852
 7416TIP3   OH243738   5.474   6.014   2.996  0.0512 -0.1869 -0.2449
 7416TIP3    H143739   5.501   6.093   3.042 -0.8570 -0.3002  0.5020
 7416TIP3    H243740   5.381   6.006   3.015 -0.4522  0.0258 -2.5059
 7417TIP3   OH243741   3.644   4.529   1.103 -0.0063  0.3218  0.4316
 7417TIP3    H143742   3.694   4.460   1.059  0.8787  2.0970 -1.4256
 7417TIP3    H243743   3.672   4.523   1.195  0.1846 -1.6449  0.2857
 7418TIP3   OH243744   5.265   2.617   0.709  0.3256  0.3093 -0.4101
 7418TIP3    H143745   5.193   2.592   0.652  1.2905 -0.8205 -1.1662
 7418TIP3    H243746   5.266   2.713   0.705 -0.2892  0.2805 -1.4539
 7419TIP3   OH243747   0.972   6.624   2.772 -0.5461  0.5270  0.4002
 7419TIP3    H143748   1.003   6.715   2.771  0.0678  0.3207 -0.5447
 7419TIP3    H243749   0.891   6.626   2.721 -0.3600  0.4957  0.0978
 7420TIP3   OH243750   1.378   5.144   1.507  0.1743 -0.3363  0.6241
 7420TIP3    H143751   1.328   5.116   1.431 -0.8029 -0.2359  1.2226
 7420TIP3    H243752   1.335   5.225   1.536  2.1345  1.0766 -0.2860
 7421TIP3   OH243753   4.531   0.603   5.912 -0.4733 -0.2128  0.0902
 7421TIP3    H143754   4.536   0.562   5.998  0.1141  3.8911  2.1348
 7421TIP3    H243755   4.622   0.615   5.885 -0.5984  0.9268  0.1430
 7422TIP3   OH243756   6.482   5.777   2.404 -0.1501  0.1296 -0.0361
 7422TIP3    H143757   6.541   5.716   2.446 -2.4026 -0.2923  2.6715
 7422TIP3    H243758   6.455   5.837   2.474 -2.5432  0.5927 -1.2882
 7423TIP3   OH243759   0.545   1.839  16.373 -0.3600 -0.4161  0.0631
 7423TIP3    H143760   0.470   1.898  16.384  0.1235  0.3152 -0.4842
 7423TIP3    H243761   0.506   1.753  16.359 -1.1076 -0.0067 -0.4336
 7424TIP3   OH243762   2.296   0.681   2.570 -0.8024  0.6368  0.4348
 7424TIP3    H143763   2.294   0.713   2.661  0.0430  1.6193  0.1145
 7424TIP3    H243764   2.281   0.760   2.517  1.1368  0.4798 -0.3658
 7425TIP3   OH243765   6.345   4.709  12.778  0.1253 -0.5159  0.0195
 7425TIP3    H143766   6.408   4.693  12.848  0.1190 -0.1500  0.1103
 7425TIP3    H243767   6.283   4.773  12.814  0.5796  0.2785 -0.5865
 7426TIP3   OH243768   3.596   1.279  11.169  0.0859  0.0224  0.0120
 7426TIP3    H143769   3.510   1.240  11.185 -0.1938  1.2909  1.8034
 7426TIP3    H243770   3.576   1.371  11.148  0.9214 -0.0133 -0.9354
 7427TIP3   OH243771   4.861   5.097  12.934 -0.2367  0.1392  0.1599
 7427TIP3    H143772   4.838   5.189  12.947 -3.5707 -0.3236 -1.6965
 7427TIP3    H243773   4.853   5.058  13.022 -1.2988  1.1313  0.5196
 7428TIP3   OH243774   5.450   1.314  12.882  0.7294 -0.4587  0.4271
 7428TIP3    H143775   5.488   1.248  12.940 -1.1995 -0.3705  1.8209
 7428TIP3    H243776   5.400   1.372  12.940 -0.0842  0.4648 -1.1511
 7429TIP3   OH243777   2.679   4.802   4.251 -0.5102  0.2001 -0.7145
 7429TIP3    H143778   2.645   4.734   4.308 -1.2323  0.3637 -0.9482
 7429TIP3    H243779   2.607   4.821   4.190  0.5199 -0.5397 -2.1945
 7430TIP3   OH243780   0.192   1.006   1.443  0.1041  0.0778  0.2884
 7430TIP3    H143781   0.199   0.955   1.362  1.3320 -0.5929  0.8107
 7430TIP3    H243782   0.134   0.953   1.499  0.0088  0.0882  0.2003
 7431TIP3   OH243783   5.084   0.821  12.101 -0.3288  0.2100 -0.0933
 7431TIP3    H143784   5.004   0.855  12.141  0.1253  0.1073  0.8958
 7431TIP3    H243785   5.125   0.897  12.059  0.1151  0.6681  1.1614
 7432TIP3   OH243786   0.145   3.660  16.013 -0.0151  0.4554  0.1963
 7432TIP3    H143787   0.151   3.748  16.049  0.0238  0.8209 -0.6708
 7432TIP3    H243788   0.146   3.673  15.918  1.0223 -0.5489  0.0541
 7433TIP3   OH243789   3.960   5.465  11.635 -0.0670 -0.1083  0.6177
 7433TIP3    H143790   3.927   5.435  11.550  0.2627 -1.0827  0.8280
 7433TIP3    H243791   3.973   5.559  11.623 -0.3035 -0.1835 -0.3246
 7434TIP3   OH243792   3.135   2.369   5.493 -0.0323  0.0532 -0.4064
 7434TIP3    H143793   3.099   2.455   5.514 -1.6267 -0.2680 -1.7290
 7434TIP3    H243794   3.200   2.386   5.425  0.4165  0.3230  0.0868
 7435TIP3   OH243795   6.560   3.238  11.389  0.0337 -0.5807 -0.1224
 7435TIP3    H143796   6.603   3.242  11.303  2.1250 -1.4645  0.8374
 7435TIP3    H243797   6.613   3.296  11.444 -1.4899  0.2319  0.5136
 7436TIP3   OH243798   1.433   0.979  15.767  0.4461 -0.0838  0.0650
 7436TIP3    H143799   1.497   0.911  15.745 -0.0940 -0.7769  0.6172
 7436TIP3    H243800   1.348   0.940  15.747  0.0625 -0.0104  1.4805
 7437TIP3   OH243801   4.178   5.851  11.914 -0.4228  0.6198 -0.3029
 7437TIP3    H143802   4.210   5.776  11.865 -0.3528  0.8649 -0.6353
 7437TIP3    H243803   4.257   5.903  11.932 -0.1960 -0.3643  1.6082
 7438TIP3   OH243804   4.230   3.807  12.982  0.4110 -0.6854 -0.0307
 7438TIP3    H143805   4.207   3.757  13.061 -1.6907  1.6674  0.9018
 7438TIP3    H243806   4.159   3.871  12.972  1.5052  0.1774 -2.8925
 7439TIP3   OH243807   0.975   3.187   4.658  0.1817  0.6198 -0.0655
 7439TIP3    H143808   1.013   3.272   4.679  0.4221  0.4061  0.3874
 7439TIP3    H243809   0.912   3.205   4.588 -0.0310  1.2239  0.2786
 7440TIP3   OH243810   2.644   6.471   6.352 -0.5305  0.0261  0.4271
 7440TIP3    H143811   2.576   6.463   6.286  1.5673  0.4820 -1.8773
 7440TIP3    H243812   2.613   6.540   6.411 -1.4200  1.2262 -1.4016
 7441TIP3   OH243813   2.197   0.329  15.293 -0.1657 -0.2788  0.2135
 7441TIP3    H143814   2.256   0.351  15.221  0.6304  0.3454  1.0485
 7441TIP3    H243815   2.177   0.236  15.280  0.4372 -0.3145 -0.4803
 7442TIP3   OH243816   1.690   3.074  15.451  0.0894  0.4453  0.2797
 7442TIP3    H143817   1.742   3.102  15.376 -2.4471 -2.3420 -2.7009
 7442TIP3    H243818   1.741   3.004  15.491  0.5955  0.6582  0.0125
 7443TIP3   OH243819   3.134   2.085  13.799  0.2319 -0.1367  0.6255
 7443TIP3    H143820   3.220   2.120  13.775 -0.1776  0.0726 -0.6138
 7443TIP3    H243821   3.083   2.162  13.824  0.6168 -0.3423  2.0479
 7444TIP3   OH243822   1.882   1.741  17.019  1.1070 -0.0852  0.6792
 7444TIP3    H143823   1.791   1.711  17.023  0.6328  1.1428 -0.7367
 7444TIP3    H243824   1.889   1.806  17.088  0.6446  0.5297  0.1436
 7445TIP3   OH243825   1.185   3.171  13.151  0.3703  0.2435 -0.5956
 7445TIP3    H143826   1.093   3.192  13.131 -0.0540 -0.4902  0.5260
 7445TIP3    H243827   1.215   3.242  13.207  0.2550  0.1142 -0.3670
 7446TIP3   OH243828   2.017   4.595   5.571 -0.2936  0.1976 -0.2600
 7446TIP3    H143829   1.978   4.678   5.600 -1.5887  0.2107 -1.9540
 7446TIP3    H243830   1.995   4.533   5.640  2.2920  1.6284  1.9728
 7447TIP3   OH243831   6.630   6.801   2.779 -0.1150  0.4783  1.3029
 7447TIP3    H143832   6.624   6.887   2.819 -2.6214  0.9030  0.1082
 7447TIP3    H243833   6.602   6.740   2.847 -2.5601  1.0297  0.8321
 7448TIP3   OH243834   2.491   2.957  16.414  0.3101  0.1374  0.6472
 7448TIP3    H143835   2.532   3.012  16.481  0.9787 -1.2577  1.4068
 7448TIP3    H243836   2.514   2.867  16.439 -2.6025 -0.6651  0.6999
 7449TIP3   OH243837   6.597   1.085  12.773 -0.0070 -0.6807 -0.4921
 7449TIP3    H143838   6.510   1.047  12.763  0.1456 -0.9143 -0.9212
 7449TIP3    H243839   6.582   1.163  12.828 -0.1368 -2.0210  1.4383
 7450TIP3   OH243840   4.174   0.258  11.719  0.0795 -0.2822 -0.6364
 7450TIP3    H143841   4.202   0.269  11.628  0.4177 -0.1551 -0.5181
 7450TIP3    H243842   4.133   0.341  11.743  1.8952  0.4646 -0.0070
 7451TIP3   OH243843   5.961   0.078  10.502  0.0747  0.2913  0.6086
 7451TIP3    H143844   6.048   0.045  10.482 -0.1781  0.3767 -0.6634
 7451TIP3    H243845   5.975   0.149  10.564  0.7479 -1.1358  2.1206
 7452TIP3   OH243846   3.718   3.721  13.807 -0.1247 -0.2397 -0.2473
 7452TIP3    H143847   3.762   3.670  13.875  1.1520 -0.2152 -1.0341
 7452TIP3    H243848   3.684   3.798  13.852  2.1278  0.5914  0.0907
 7453TIP3   OH243849   4.734   4.977  15.854 -0.1125 -0.1713  0.1717
 7453TIP3    H143850   4.644   4.962  15.884 -0.6550  0.6529 -0.9934
 7453TIP3    H243851   4.763   4.893  15.820 -0.9834 -0.0963 -0.7986
 7454TIP3   OH243852   4.328   2.588  17.162  0.3554  0.4623 -0.0758
 7454TIP3    H143853   4.304   2.589  17.255  1.5603 -0.9872  0.2780
 7454TIP3    H243854   4.424   2.586  17.163  0.3998  1.7208 -1.3780
 7455TIP3   OH243855   2.201   5.753  15.448  0.4508 -0.0422 -0.0833
 7455TIP3    H143856   2.153   5.750  15.366 -0.6723 -0.2555  0.5739
 7455TIP3    H243857   2.233   5.663  15.460 -0.3864 -0.2943  0.2953
 7456TIP3   OH243858   4.692   4.707   0.885 -0.1112 -0.1428 -0.0886
 7456TIP3    H143859   4.611   4.668   0.918 -0.8858 -1.0159 -2.9147
 7456TIP3    H243860   4.725   4.644   0.821  1.8465  1.0615 -0.3025
 7457TIP3   OH243861   5.169   4.434   2.134 -0.0389  0.2982  0.2547
 7457TIP3    H143862   5.242   4.493   2.114  0.1041  0.4254  1.0989
 7457TIP3    H243863   5.094   4.472   2.090  0.2227  0.6619  0.1186
 7458TIP3   OH243864   4.694   0.897  13.760  0.4623 -0.0471 -0.2313
 7458TIP3    H143865   4.709   0.981  13.716 -1.4142  0.2096 -0.3909
 7458TIP3    H243866   4.697   0.833  13.690 -2.2057  0.3284 -0.7079
 7459TIP3   OH243867   4.553   2.677   2.742 -0.1833  0.4884 -0.7050
 7459TIP3    H143868   4.542   2.657   2.649 -2.1144  0.8500 -0.5636
 7459TIP3    H243869   4.498   2.613   2.787 -0.5705  1.3904  0.1119
 7460TIP3   OH243870   5.451   6.649   5.692  0.1948 -0.1789 -0.1981
 7460TIP3    H143871   5.396   6.584   5.737  1.9910 -1.6745 -0.1080
 7460TIP3    H243872   5.456   6.722   5.754 -0.2394 -0.7720  0.5526
 7461TIP3   OH243873   2.691   3.069   3.014 -0.1577  0.4418 -0.2809
 7461TIP3    H143874   2.686   3.031   3.102  0.0486  0.8563 -0.0884
 7461TIP3    H243875   2.744   3.006   2.964 -2.5072 -1.1591 -0.8502
 7462TIP3   OH243876   3.970   6.319  13.008 -0.4148  0.2413 -0.0886
 7462TIP3    H143877   3.992   6.399  12.960 -0.4978 -0.1935 -0.8556
 7462TIP3    H243878   4.017   6.327  13.091  0.0125  0.8342 -0.3833
 7463TIP3   OH243879   2.423   5.447  14.060  0.2527  0.6614 -0.0888
 7463TIP3    H143880   2.346   5.435  14.004 -0.7775  0.0053  1.4084
 7463TIP3    H243881   2.469   5.363  14.056  0.8709  1.0408 -0.9533
 7464TIP3   OH243882   4.594   0.817   1.250 -0.0473 -0.1063  0.9686
 7464TIP3    H143883   4.514   0.846   1.292 -1.6876 -2.1318 -0.6294
 7464TIP3    H243884   4.565   0.753   1.185  2.6615  0.6910 -1.1363
 7465TIP3   OH243885   2.857   2.657   5.961  0.5181  0.5356 -0.0363
 7465TIP3    H143886   2.943   2.623   5.986 -0.4975 -1.4839  0.8292
 7465TIP3    H243887   2.863   2.751   5.975  2.5406  0.3868  0.1580
 7466TIP3   OH243888   6.237   0.341   4.677 -0.1711 -0.1589 -0.1922
 7466TIP3    H143889   6.306   0.380   4.730  0.0926 -1.0706  0.1377
 7466TIP3    H243890   6.209   0.412   4.619  1.4538  0.0246 -0.7595
 7467TIP3   OH243891   5.121   3.033   0.190  0.3715  0.0237  0.1154
 7467TIP3    H143892   5.037   2.988   0.198  1.0238 -1.2697 -0.2248
 7467TIP3    H243893   5.104   3.105   0.129 -0.3869 -0.4999 -0.2934
 7468TIP3   OH243894   0.564   3.500  13.669  0.0485  0.1576  0.6866
 7468TIP3    H143895   0.472   3.523  13.681  0.0128  0.4750 -0.1662
 7468TIP3    H243896   0.613   3.573  13.707 -0.0546  0.1020  0.9229
 7469TIP3   OH243897   6.793   2.122  14.115 -0.6953  0.2360 -0.3406
 7469TIP3    H143898   6.800   2.183  14.041  0.7353 -0.7581 -1.0445
 7469TIP3    H243899   6.847   2.161  14.184  0.8495 -0.5627 -1.0526
 7470TIP3   OH243900   6.139   1.357  15.880 -0.1202 -0.2114  0.9467
 7470TIP3    H143901   6.149   1.263  15.863  0.7505  0.0451  0.0451
 7470TIP3    H243902   6.045   1.373  15.869 -0.1109 -0.7626  0.0118
 7471TIP3   OH243903   0.232   5.115  15.230  0.0360 -0.5926 -0.4590
 7471TIP3    H143904   0.253   5.025  15.205  0.6970 -1.5639  3.2728
 7471TIP3    H243905   0.156   5.106  15.289 -0.4743  1.3753 -0.7815
 7472TIP3   OH243906   5.633   3.398  15.203 -0.4530  0.0316 -0.6983
 7472TIP3    H143907   5.672   3.386  15.116  0.7549 -1.6528  0.0397
 7472TIP3    H243908   5.682   3.471  15.241 -0.8317  0.6240 -1.3352
 7473TIP3   OH243909   3.124   5.240   5.745  0.1631 -0.5782 -0.4623
 7473TIP3    H143910   3.072   5.169   5.783  1.1309 -0.9689  0.1320
 7473TIP3    H243911   3.188   5.262   5.812  0.1825  0.5351 -0.8359
 7474TIP3   OH243912   3.464   2.420  12.961 -0.6923 -0.0247 -0.2002
 7474TIP3    H143913   3.401   2.364  13.006 -1.4352 -0.5910 -1.9161
 7474TIP3    H243914   3.545   2.368  12.959 -1.5245 -1.3417 -2.2790
 7475TIP3   OH243915   1.834   6.336   0.651  0.5020 -0.2329  0.0696
 7475TIP3    H143916   1.873   6.268   0.596  0.7287  0.4621 -0.6353
 7475TIP3    H243917   1.893   6.411   0.641 -0.0850  0.2682  0.3548
 7476TIP3   OH243918   4.117   5.363   4.944 -0.0289 -0.0650 -0.1932
 7476TIP3    H143919   4.113   5.455   4.972 -3.6274  0.5529 -2.4512
 7476TIP3    H243920   4.141   5.367   4.852  1.4078 -1.4898  0.1167
 7477TIP3   OH243921   2.293   6.347  14.799  0.0778 -0.9366  0.1368
 7477TIP3    H143922   2.249   6.335  14.715  0.5342 -0.6070 -0.1540
 7477TIP3    H243923   2.223   6.339  14.865 -0.0078 -2.8631 -0.1656
 7478TIP3   OH243924   4.940   6.279   4.920  0.5337 -0.8878  0.5520
 7478TIP3    H143925   4.941   6.370   4.950  1.4318 -0.5468 -0.4635
 7478TIP3    H243926   5.014   6.238   4.966  1.9667 -0.3423 -1.1797
 7479TIP3   OH243927   4.601   0.467   1.504 -0.4389  0.0240 -0.6032
 7479TIP3    H143928   4.655   0.490   1.580 -0.5466 -0.0297 -0.5097
 7479TIP3    H243929   4.518   0.512   1.519  0.6577  2.6876 -2.3185
 7480TIP3   OH243930   6.491   6.809   2.034 -0.2880  0.2983 -0.4146
 7480TIP3    H143931   6.428   6.873   2.066 -2.8283 -1.0245 -2.5034
 7480TIP3    H243932   6.531   6.851   1.957  0.3810  0.6057  0.0991
 7481TIP3   OH243933   1.161   2.396  15.524 -0.0425 -0.1850 -0.6304
 7481TIP3    H143934   1.132   2.481  15.490 -0.9947 -1.0433 -2.0726
 7481TIP3    H243935   1.216   2.361  15.454  1.9447  0.0564  0.7785
 7482TIP3   OH243936   6.502   4.350  13.627  0.0898 -0.3354  0.4289
 7482TIP3    H143937   6.532   4.316  13.711 -1.2718 -1.4480  0.4715
 7482TIP3    H243938   6.475   4.273  13.578 -0.0189  0.3989 -0.6697
 7483TIP3   OH243939   5.390   0.801  13.374  0.3010  0.1845 -0.1839
 7483TIP3    H143940   5.464   0.775  13.428 -1.3336  0.3305  2.1724
 7483TIP3    H243941   5.323   0.829  13.436 -1.9841 -0.5793 -2.2296
 7484TIP3   OH243942   1.192   4.794   5.484  0.6395 -0.8535 -0.2254
 7484TIP3    H143943   1.222   4.832   5.566 -0.0354 -0.1143 -0.3189
 7484TIP3    H243944   1.139   4.719   5.511 -1.6022  0.8085  0.1175
 7485TIP3   OH243945   6.469   5.462   4.148  0.2112  0.2916  0.4829
 7485TIP3    H143946   6.531   5.456   4.221 -0.9144 -2.9226  1.2708
 7485TIP3    H243947   6.493   5.388   4.092 -0.3425  1.4533 -1.3107
 7486TIP3   OH243948   4.514   5.152   2.107 -0.5377 -0.1157  0.0243
 7486TIP3    H143949   4.427   5.139   2.069 -0.3670 -0.8550 -0.1167
 7486TIP3    H243950   4.521   5.247   2.118 -0.3651  0.1636 -2.3154
 7487TIP3   OH243951   0.850   2.641  13.305 -0.0688 -0.2665 -0.0377
 7487TIP3    H143952   0.855   2.582  13.380 -4.6070  1.0162  1.3964
 7487TIP3    H243953   0.811   2.587  13.236  3.1399 -1.1319 -1.3080
 7488TIP3   OH243954   5.859   6.594   2.265 -0.6629  0.0863  0.6588
 7488TIP3    H143955   5.939   6.545   2.247 -2.0900 -1.8827 -0.4864
 7488TIP3    H243956   5.855   6.599   2.360  0.3673 -0.5456  0.7514
 7489TIP3   OH243957   6.409   5.404  12.261 -0.4182  0.3983  0.5349
 7489TIP3    H143958   6.395   5.499  12.258  0.1937  0.4536 -0.7174
 7489TIP3    H243959   6.497   5.394  12.297 -1.0086  0.2442  2.0007
 7490TIP3   OH243960   5.821   3.334  11.551 -0.0816 -0.5781 -0.7377
 7490TIP3    H143961   5.772   3.415  11.545 -0.8336 -0.7947  1.7135
 7490TIP3    H243962   5.851   3.316  11.462 -2.0770  1.0175 -1.7483
 7491TIP3   OH243963   3.222   4.432  13.729 -0.1637  0.1606 -0.5492
 7491TIP3    H143964   3.265   4.384  13.659 -0.8652 -0.0143 -0.8621
 7491TIP3    H243965   3.157   4.487  13.685  1.1202  1.9668 -0.2644
 7492TIP3   OH243966   6.243   4.490   3.562  0.0171 -0.3102 -0.6723
 7492TIP3    H143967   6.182   4.456   3.498  0.0602 -0.9619 -0.3716
 7492TIP3    H243968   6.252   4.420   3.627  0.3083  0.1662 -0.1875
 7493TIP3   OH243969   0.137   0.633  12.448 -0.2960  0.1325 -0.0036
 7493TIP3    H143970   0.104   0.544  12.458 -0.4877  0.2684  0.5848
 7493TIP3    H243971   0.090   0.683  12.515  0.2650  0.5540  0.0725
 7494TIP3   OH243972   0.844   0.952  12.301  0.0712  0.1520 -0.0688
 7494TIP3    H143973   0.908   1.023  12.308  0.2346  0.1878 -1.6920
 7494TIP3    H243974   0.793   0.957  12.381 -0.0772  2.2720 -0.2792
 7495TIP3   OH243975   5.346   2.170   0.616 -0.3428  0.3063  0.0253
 7495TIP3    H143976   5.337   2.155   0.710  0.7790 -1.0781 -0.0696
 7495TIP3    H243977   5.258   2.156   0.581 -0.2140 -2.0618  0.5237
 7496TIP3   OH243978   4.249   0.263  13.523  0.6097  0.3640  0.4633
 7496TIP3    H143979   4.154   0.270  13.513  0.2647 -0.5827  2.6668
 7496TIP3    H243980   4.274   0.195  13.460 -0.2587  0.1687  0.3179
 7497TIP3   OH243981   5.797   2.268   1.950  0.2916 -0.3657  0.0120
 7497TIP3    H143982   5.715   2.315   1.940  0.3206 -0.5813 -1.2347
 7497TIP3    H243983   5.862   2.324   1.908  0.6424 -0.6038  0.2350
 7498TIP3   OH243984   2.585   5.082   2.248 -0.0187  0.8795 -0.0548
 7498TIP3    H143985   2.600   4.997   2.207  0.3971  0.1696  1.5264
 7498TIP3    H243986   2.570   5.062   2.340  2.0065  2.6826  0.7119
 7499TIP3   OH243987   0.997   1.619  14.076 -0.0611 -0.0876 -0.0776
 7499TIP3    H143988   1.056   1.674  14.024  2.0360 -1.1999  1.0643
 7499TIP3    H243989   0.927   1.678  14.105 -0.4931  0.8677 -2.9137
 7500TIP3   OH243990   0.215   2.081  13.176 -0.0361  0.2637  0.1127
 7500TIP3    H143991   0.169   2.009  13.218 -1.9630  0.7886 -1.0533
 7500TIP3    H243992   0.199   2.070  13.082  1.6451  0.8564 -0.2775
 7501TIP3   OH243993   2.655   3.789   3.080  0.6854  0.3546 -0.0539
 7501TIP3    H143994   2.599   3.754   3.149  0.4763 -0.6417 -0.7138
 7501TIP3    H243995   2.726   3.726   3.072  0.1249 -0.1286 -1.4872
 7502TIP3   OH243996   4.681   0.027  11.898  0.3759 -0.1608 -0.2604
 7502TIP3    H143997   4.643  -0.047  11.850  0.0041 -0.0350 -0.1616
 7502TIP3    H243998   4.615   0.096  11.893  0.1054 -0.3144  0.8512
 7503TIP3   OH243999   5.850   2.307   4.863  0.6413 -0.3773 -0.0537
 7503TIP3    H144000   5.940   2.333   4.885  0.0914  0.0270  1.8241
 7503TIP3    H244001   5.795   2.369   4.911 -0.6429 -0.6736 -1.1326
 7504TIP3   OH244002   3.996   5.864  16.558 -0.3454  0.0259  0.5310
 7504TIP3    H144003   4.069   5.903  16.512 -0.2547 -1.0836 -0.3012
 7504TIP3    H244004   4.024   5.860  16.649  0.7671 -0.6802  0.1709
 7505TIP3   OH244005   5.201   5.820  13.896 -0.3493 -0.1108  0.3816
 7505TIP3    H144006   5.172   5.844  13.808 -0.4789  0.2861  0.5307
 7505TIP3    H244007   5.148   5.874  13.954  1.1193  1.1011  0.6420
 7506TIP3   OH244008   3.493   5.169   1.175 -0.1439 -0.3418 -0.2315
 7506TIP3    H144009   3.441   5.247   1.157 -0.2349 -0.3674 -0.0843
 7506TIP3    H244010   3.454   5.132   1.254  1.8589  1.1703  1.5180
 7507TIP3   OH244011   5.661   6.248   0.576 -0.2174 -0.5899 -0.0828
 7507TIP3    H144012   5.623   6.320   0.525  0.6606  1.2399  1.7689
 7507TIP3    H244013   5.735   6.219   0.523  1.0009  1.6391  0.3107
 7508TIP3   OH244014   5.360   1.395   2.494  0.3530 -0.1002  0.5728
 7508TIP3    H144015   5.343   1.447   2.572  2.3068  1.9847 -0.3518
 7508TIP3    H244016   5.455   1.386   2.491  0.1878 -1.7758 -0.5586
 7509TIP3   OH244017   3.351   6.721   2.909  0.0497  0.0007 -0.1919
 7509TIP3    H144018   3.350   6.797   2.851 -4.6535 -0.1449 -0.4579
 7509TIP3    H244019   3.384   6.650   2.854  1.2325  1.0862 -0.9231
 7510TIP3   OH244020   4.308   0.835   4.562  0.1541  0.6381  0.2256
 7510TIP3    H144021   4.263   0.860   4.481 -0.6239  0.9288  0.7419
 7510TIP3    H244022   4.401   0.839   4.540 -0.0813 -1.1427 -1.2050
 7511TIP3   OH244023   2.559   4.254  12.552  0.4154 -0.3903 -0.6606
 7511TIP3    H144024   2.641   4.238  12.598  0.3921 -0.4130 -0.6274
 7511TIP3    H244025   2.528   4.338  12.586  0.6428 -0.1711 -0.9900
 7512TIP3   OH244026   0.160   1.408  14.001 -0.0306  0.6767  0.1707
 7512TIP3    H144027   0.173   1.498  14.032  0.4123  0.4830  0.5481
 7512TIP3    H244028   0.221   1.400  13.927  1.0290  0.2007  1.0926
 7513TIP3   OH244029   2.357   0.980  11.671  0.2568  0.6115  0.0819
 7513TIP3    H144030   2.325   1.070  11.673 -1.3717  0.0894 -1.3988
 7513TIP3    H244031   2.279   0.926  11.681  0.7079 -0.6785 -2.7573
 7514TIP3   OH244032   2.046   4.905  16.213  0.4510  0.3827  0.6682
 7514TIP3    H144033   2.132   4.862  16.212 -0.7633 -2.1876  3.1303
 7514TIP3    H244034   1.990   4.850  16.160 -0.0094  1.3992  0.0806
 7515TIP3   OH244035   5.274   5.844  14.741  0.2553  0.5708  0.2208
 7515TIP3    H144036   5.261   5.939  14.739 -1.0623  0.3940  0.1850
 7515TIP3    H244037   5.312   5.824  14.655 -1.5365  0.7880 -0.6526
 7516TIP3   OH244038   3.354   0.453   2.026  0.0851  0.0572 -0.0088
 7516TIP3    H144039   3.349   0.414   1.938  0.1225 -0.3039  0.1460
 7516TIP3    H244040   3.441   0.494   2.028 -0.0243  0.3047 -0.2358
 7517TIP3   OH244041   1.155   1.742   3.973 -0.6267 -0.4583  0.0929
 7517TIP3    H144042   1.216   1.694   3.918 -0.2850  0.7605 -0.6155
 7517TIP3    H244043   1.203   1.757   4.055 -0.2977 -0.2919 -0.1289
 7518TIP3   OH244044   6.706   0.370  16.533  0.1383 -0.3506 -0.0817
 7518TIP3    H144045   6.648   0.294  16.548 -0.0247 -0.2944 -0.4330
 7518TIP3    H244046   6.684   0.430  16.604 -1.5130  0.4417 -1.2225
 7519TIP3   OH244047   3.495   4.115  11.657 -0.4187 -0.6447 -0.4327
 7519TIP3    H144048   3.550   4.098  11.581 -1.5992  1.2922 -1.7752
 7519TIP3    H244049   3.413   4.149  11.620 -0.5076  1.6593  1.7263
 7520TIP3   OH244050   0.569   4.295  13.963  0.0946 -0.5484  0.4958
 7520TIP3    H144051   0.496   4.249  14.004 -0.2847  0.2410  0.6977
 7520TIP3    H244052   0.600   4.234  13.896 -0.2452 -1.2099  0.9271
 7521TIP3   OH244053   2.872   4.091  12.528  0.2088 -0.2073 -0.1251
 7521TIP3    H144054   2.834   4.046  12.453 -1.0857 -1.0516  1.0266
 7521TIP3    H244055   2.885   4.182  12.498 -0.1752 -0.5639 -1.3881
 7522TIP3   OH244056   1.699   1.849   2.848  0.1962  0.4579  0.1809
 7522TIP3    H144057   1.619   1.901   2.858  0.7683  1.6284 -1.1307
 7522TIP3    H244058   1.770   1.912   2.861  0.9099 -0.2662 -0.1923
 7523TIP3   OH244059   0.486   0.965   1.442  0.1797  0.4801  0.3735
 7523TIP3    H144060   0.393   0.968   1.463  0.0526  1.0437 -0.2462
 7523TIP3    H244061   0.492   0.903   1.369  0.4807 -0.6483  1.3386
 7524TIP3   OH244062   6.251   1.425   6.589  0.3383 -0.1316 -0.3889
 7524TIP3    H144063   6.239   1.480   6.512 -1.1915  2.1152  1.3848
 7524TIP3    H244064   6.304   1.479   6.649 -0.6050 -0.8400  1.1076
 7525TIP3   OH244065   0.392   3.560   1.822  0.0497  0.0119 -0.3462
 7525TIP3    H144066   0.310   3.513   1.838 -1.4481  2.7731  0.5237
 7525TIP3    H244067   0.453   3.525   1.886 -1.8053  1.0695  2.0639
 7526TIP3   OH244068   5.617   5.070  15.147 -0.1421 -0.4077 -0.0353
 7526TIP3    H144069   5.580   5.059  15.059  0.9438 -0.1215 -0.5362
 7526TIP3    H244070   5.559   5.019  15.204 -0.9628 -0.4430 -0.8903
 7527TIP3   OH244071   0.729   2.419  13.197 -0.3783  0.7413 -0.0897
 7527TIP3    H144072   0.707   2.430  13.105 -0.6796  0.4313 -0.0555
 7527TIP3    H244073   0.646   2.426  13.243 -0.2596  0.6720  0.1385
 7528TIP3   OH244074   2.998   0.843  16.247 -0.5578  0.1117  0.5930
 7528TIP3    H144075   3.026   0.928  16.281 -1.0074  0.5404 -0.1052
 7528TIP3    H244076   2.986   0.857  16.153 -3.1464 -0.0413  0.8690
 7529TIP3   OH244077   6.436   0.633   5.639  0.3796 -0.2076 -0.2521
 7529TIP3    H144078   6.480   0.558   5.679 -0.1771 -0.9599 -1.0357
 7529TIP3    H244079   6.393   0.677   5.712  2.9418  0.9139  0.6474
 7530TIP3   OH244080   4.759   4.924   4.638 -0.1377 -0.2763 -0.0055
 7530TIP3    H144081   4.680   4.979   4.630  1.6617  1.9567 -3.6946
 7530TIP3    H244082   4.728   4.845   4.683 -4.4930  0.5533 -1.2526
 7531TIP3   OH244083   2.919   3.536  11.585 -0.2402 -0.3227  0.1931
 7531TIP3    H144084   2.955   3.490  11.509  0.4302 -1.1391  0.9936
 7531TIP3    H244085   2.829   3.504  11.592 -0.5389  0.2995 -0.6841
 7532TIP3   OH244086   3.840   4.349   3.203  0.7322 -0.3065 -0.0709
 7532TIP3    H144087   3.918   4.403   3.187  3.0728 -3.4326  0.2945
 7532TIP3    H244088   3.793   4.350   3.120  1.6315  0.9260 -0.5844
 7533TIP3   OH244089   3.524   2.297   4.154 -0.1494  0.3185 -0.2533
 7533TIP3    H144090   3.591   2.230   4.158  0.0594  0.5200 -0.3579
 7533TIP3    H244091   3.562   2.372   4.200 -1.0617 -0.2155  1.4234
 7534TIP3   OH244092   5.272   6.791  12.846 -0.0379  0.3905  0.1036
 7534TIP3    H144093   5.263   6.750  12.932  1.0291  0.0396  0.0612
 7534TIP3    H244094   5.291   6.883  12.866 -0.3498  0.4299  0.2285
 7535TIP3   OH244095   6.488   5.791   4.247  0.2588  0.9041 -0.1520
 7535TIP3    H144096   6.414   5.789   4.308 -0.9749 -1.0965 -1.6453
 7535TIP3    H244097   6.565   5.775   4.302 -0.4638  2.3338  1.3232
 7536TIP3   OH244098   4.642   3.482  14.986 -0.3468 -0.3504  0.0082
 7536TIP3    H144099   4.722   3.435  14.963  0.4778  0.5999  0.8932
 7536TIP3    H244100   4.636   3.475  15.081 -0.1895  1.3562  0.1615
 7537TIP3   OH244101   3.581   6.360   5.608 -0.2275  1.0483 -0.5896
 7537TIP3    H144102   3.572   6.272   5.644 -0.4645  0.8305 -1.1620
 7537TIP3    H244103   3.508   6.409   5.644  0.8977  1.5035  1.1202
 7538TIP3   OH244104   5.437   6.585  16.816 -0.2085 -0.5283  0.4528
 7538TIP3    H144105   5.361   6.632  16.851  0.1023  0.9032 -0.7313
 7538TIP3    H244106   5.401   6.534  16.743 -0.1022 -0.1863  0.1620
 7539TIP3   OH244107   2.324   5.424   3.723 -0.3798 -0.2732  0.5060
 7539TIP3    H144108   2.236   5.453   3.702  0.0163  0.7584  0.2604
 7539TIP3    H244109   2.320   5.401   3.816 -0.3911  1.7911  1.0395
 7540TIP3   OH244110   1.481   5.768   4.867  0.0553  0.0955 -0.6250
 7540TIP3    H144111   1.460   5.718   4.946  0.8460  1.1975  0.2992
 7540TIP3    H244112   1.439   5.853   4.880  3.6634  1.8235  0.5849
 7541TIP3   OH244113   1.014   3.283   5.987 -0.0129 -0.2262  0.3017
 7541TIP3    H144114   1.063   3.253   6.063  1.0355 -2.1456 -1.0918
 7541TIP3    H244115   0.993   3.204   5.939  0.2917  1.0344 -1.9842
 7542TIP3   OH244116   4.811   2.129   3.466 -0.0964  0.5069 -0.5722
 7542TIP3    H144117   4.903   2.123   3.440 -0.4480 -0.3242 -1.6814
 7542TIP3    H244118   4.786   2.039   3.488 -0.8764  0.5682 -1.1595
 7543TIP3   OH244119   2.142   5.004  11.465 -1.0086 -0.5891  0.1923
 7543TIP3    H144120   2.190   5.029  11.544 -0.5880  0.6120 -0.4318
 7543TIP3    H244121   2.189   5.049  11.394 -1.2310 -1.8607 -0.7646
 7544TIP3   OH244122   2.055   0.920   5.974  0.5193  0.3476 -0.6800
 7544TIP3    H144123   2.121   0.881   6.031 -1.1552 -0.1373  0.9934
 7544TIP3    H244124   2.050   1.011   6.001  0.1659  0.2636 -0.4507
 7545TIP3   OH244125   4.695   0.412  16.272 -0.1022  0.1658 -0.0695
 7545TIP3    H144126   4.629   0.480  16.288  3.0643  3.8954 -1.9003
 7545TIP3    H244127   4.670   0.374  16.188 -1.1264  0.0946  0.2683
 7546TIP3   OH244128   3.644   4.116  10.582  0.2483 -0.0953 -0.2621
 7546TIP3    H144129   3.588   4.061  10.528  1.1515 -1.7546  0.4431
 7546TIP3    H244130   3.721   4.132  10.527 -0.4094  1.2131 -0.7996
 7547TIP3   OH244131   1.394   4.345  14.150  0.6847 -0.3376  0.1233
 7547TIP3    H144132   1.361   4.377  14.066 -2.5920 -0.1288  1.3953
 7547TIP3    H244133   1.397   4.423  14.206  0.4924 -0.8581  0.8715
 7548TIP3   OH244134   2.685   3.108   2.443  0.3424 -0.3491 -0.4453
 7548TIP3    H144135   2.694   3.112   2.538 -0.8497  1.6482 -0.4015
 7548TIP3    H244136   2.749   3.171   2.410 -1.0460  0.8747 -0.8415
 7549TIP3   OH244137   5.078   1.823   5.829  0.1750  0.3121 -0.0250
 7549TIP3    H144138   5.077   1.918   5.818 -0.9914  0.2223 -0.8605
 7549TIP3    H244139   5.167   1.802   5.856  0.7488  1.5256 -0.9475
 7550TIP3   OH244140   0.431   2.001  13.359 -0.1244  0.6870  0.0931
 7550TIP3    H144141   0.385   2.083  13.379 -1.0631  0.2732 -0.3358
 7550TIP3    H244142   0.386   1.966  13.282  0.0216 -0.4204  0.5003
 7551TIP3   OH244143   2.314   5.094  12.804  0.1311 -0.0211 -0.0714
 7551TIP3    H144144   2.307   5.178  12.757 -1.9275 -1.1028 -1.8028
 7551TIP3    H244145   2.262   5.107  12.883  1.9055  1.1438  0.9255
 7552TIP3   OH244146   1.864   5.174  17.099  0.0672  0.1311 -0.3122
 7552TIP3    H144147   1.772   5.198  17.104 -0.1874 -0.1461 -2.8354
 7552TIP3    H244148   1.874   5.101  17.161 -1.9143 -1.3086 -1.6183
 7553TIP3   OH244149   4.553   1.123  17.197 -0.2021  0.1771  0.1017
 7553TIP3    H144150   4.565   1.189  17.265 -1.7248  0.9366 -0.3544
 7553TIP3    H244151   4.629   1.134  17.140 -0.6580  1.8320 -0.2119
 7554TIP3   OH244152   0.119   5.862  14.913  0.6398  0.3277  0.6211
 7554TIP3    H144153   0.029   5.831  14.923  0.3966  1.0290  0.6550
 7554TIP3    H244154   0.160   5.798  14.855 -0.6227  1.3845 -1.5118
 7555TIP3   OH244155   2.504   3.989  12.534  0.5309  0.5750 -0.2475
 7555TIP3    H144156   2.526   4.081  12.517 -1.7039  1.0253 -0.7920
 7555TIP3    H244157   2.506   3.948  12.448 -4.5782  1.4978 -0.9310
 7556TIP3   OH244158   6.033   6.670  15.150 -0.3896 -0.7937  0.0638
 7556TIP3    H144159   6.066   6.710  15.230 -0.5652 -1.7306  0.6101
 7556TIP3    H244160   6.109   6.667  15.092  0.5167 -2.8747  1.2913
 7557TIP3   OH244161   2.428   5.237  16.866  0.0987  0.0864 -0.0996
 7557TIP3    H144162   2.391   5.280  16.788  0.4913  0.1777 -0.2398
 7557TIP3    H244163   2.464   5.308  16.918 -0.3579  0.0470  0.2752
 7558TIP3   OH244164   3.624   5.220   3.372  0.0420  0.4303 -0.5411
 7558TIP3    H144165   3.554   5.181   3.319 -0.1430 -0.0830  0.0708
 7558TIP3    H244166   3.582   5.239   3.456 -0.0471  2.5543 -1.0318
 7559TIP3   OH244167   1.629   6.488   4.128 -0.1820 -0.3152 -0.2982
 7559TIP3    H144168   1.631   6.397   4.155  0.7891  0.1268  1.2002
 7559TIP3    H244169   1.714   6.502   4.086  0.1133  0.1775  0.4551
 7560TIP3   OH244170   2.626   3.358   5.529  0.1307 -0.0866  0.7542
 7560TIP3    H144171   2.586   3.327   5.611  0.0371  1.6852  1.3932
 7560TIP3    H244172   2.576   3.435   5.505  0.2988 -0.4709 -0.8882
 7561TIP3   OH244173   2.036   0.603   2.469 -0.6326 -0.3598 -0.1013
 7561TIP3    H144174   2.082   0.579   2.389 -0.1859  0.9338 -0.2377
 7561TIP3    H244175   2.101   0.587   2.539 -1.5663 -3.1137  0.2159
 7562TIP3   OH244176   2.366   2.324   4.807  0.2124 -0.3031  0.7074
 7562TIP3    H144177   2.326   2.399   4.852 -2.8143 -0.7924 -1.0664
 7562TIP3    H244178   2.438   2.363   4.757 -1.9965  1.6364 -1.0507
 7563TIP3   OH244179   3.431   5.218  16.071  0.7206  0.6892  0.3603
 7563TIP3    H144180   3.435   5.276  16.147 -0.4713 -0.0560  1.0105
 7563TIP3    H244181   3.368   5.150  16.096 -0.1648  0.7910 -1.5480
 7564TIP3   OH244182   0.888   4.225   3.797 -0.7939  0.4250  0.1652
 7564TIP3    H144183   0.920   4.146   3.755 -1.8023 -0.9054  1.8101
 7564TIP3    H244184   0.966   4.278   3.813  0.1491 -1.1399  0.8584
 7565TIP3   OH244185   2.187   1.752   5.695  0.1324  0.1689 -0.3168
 7565TIP3    H144186   2.198   1.747   5.790 -0.3405 -0.1066 -0.2765
 7565TIP3    H244187   2.231   1.674   5.661  0.9248  0.6295 -0.3848
 7566TIP3   OH244188   3.154   3.119  11.883 -0.1933 -0.4116  0.8561
 7566TIP3    H144189   3.109   3.034  11.883  1.2862 -1.2268 -0.4887
 7566TIP3    H244190   3.246   3.097  11.872  0.1230  1.4001 -0.3758
 7567TIP3   OH244191   3.163   2.517   2.118 -0.0414  0.6367  0.6458
 7567TIP3    H144192   3.219   2.441   2.134 -1.4588 -0.1584  1.9555
 7567TIP3    H244193   3.079   2.480   2.091  0.0805  1.8250 -1.4802
 7568TIP3   OH244194   5.747   2.020   6.269 -0.4156  0.1841 -0.6054
 7568TIP3    H144195   5.727   2.057   6.183 -0.7318  0.8413 -0.2546
 7568TIP3    H244196   5.715   1.931   6.265  0.5114 -0.1227 -1.5265
 7569TIP3   OH244197   2.316   0.917   5.109  0.5885  0.4857 -0.5848
 7569TIP3    H144198   2.223   0.921   5.089  0.2128  0.7808  1.1059
 7569TIP3    H244199   2.344   1.009   5.110  1.1846  0.3384 -2.2973
 7570TIP3   OH244200   3.175   4.095  15.648  0.0566  0.3292  0.3620
 7570TIP3    H144201   3.191   4.067  15.557  2.5074 -0.8479  1.1088
 7570TIP3    H244202   3.139   4.017  15.691 -0.9914  0.8512  0.4415
 7571TIP3   OH244203   4.008   1.516   4.988  0.6168  0.3054  0.0561
 7571TIP3    H144204   3.970   1.478   4.908 -1.0631 -0.8845  1.3857
 7571TIP3    H244205   3.962   1.472   5.059  0.2899  3.1979  1.6741
 7572TIP3   OH244206   3.963   5.061   5.979  0.2143 -0.4329 -0.1842
 7572TIP3    H144207   4.029   5.059   6.049  2.0293 -0.8273 -1.8642
 7572TIP3    H244208   3.903   4.990   6.001  2.3527 -2.4080 -0.5060
 7573TIP3   OH244209   2.816   6.793  13.140  0.1942 -0.0657  0.2152
 7573TIP3    H144210   2.781   6.804  13.052 -0.7853 -2.0332  0.3189
 7573TIP3    H244211   2.829   6.882  13.173  0.3909  0.6803 -1.8384
 7574TIP3   OH244212   1.316   2.777  14.454 -0.1986 -0.2579 -0.1228
 7574TIP3    H144213   1.343   2.777  14.546 -2.5025  1.1105  0.6037
 7574TIP3    H244214   1.359   2.855  14.417 -0.2697 -0.1058  0.1138
 7575TIP3   OH244215   6.112   4.038  14.197 -0.3642  0.1807 -0.2130
 7575TIP3    H144216   6.048   4.003  14.259 -0.0170 -1.1351 -0.5817
 7575TIP3    H244217   6.086   4.129  14.184 -1.6855 -0.1220  0.2538
 7576TIP3   OH244218   1.591   3.266   2.485  0.0055 -0.1915 -0.1061
 7576TIP3    H144219   1.638   3.344   2.513  1.1673 -0.5950 -0.9274
 7576TIP3    H244220   1.532   3.247   2.558 -0.3270  1.4743  0.0706
 7577TIP3   OH244221   2.239   5.135  14.408  0.0896 -0.1756  0.4465
 7577TIP3    H144222   2.250   5.124  14.503 -0.1348  0.7621  0.5836
 7577TIP3    H244223   2.315   5.184  14.380 -0.6409  0.9537  0.4077
 7578TIP3   OH244224   1.512   5.231  11.450  0.4739  0.4065 -0.4889
 7578TIP3    H144225   1.433   5.209  11.399 -0.2119  1.1274  0.2447
 7578TIP3    H244226   1.481   5.238  11.540  1.6885 -0.9012  0.0577
 7579TIP3   OH244227   1.467   3.715   5.252  0.2887  0.3044  0.1076
 7579TIP3    H144228   1.403   3.663   5.301 -0.7019  1.1763 -0.2561
 7579TIP3    H244229   1.416   3.759   5.184  1.7044 -1.1421 -1.9477
 7580TIP3   OH244230   2.011   3.065  14.748 -0.0838  0.5779 -0.0877
 7580TIP3    H144231   2.040   3.131  14.684 -3.1097  1.5483 -0.5136
 7580TIP3    H244232   2.011   3.112  14.831 -0.8379  0.6993 -0.1567
 7581TIP3   OH244233   6.274   6.744   4.361 -0.2555  0.1148 -0.1272
 7581TIP3    H144234   6.368   6.727   4.360 -0.3010 -0.1190 -0.4687
 7581TIP3    H244235   6.266   6.839   4.350 -0.1230 -0.0970 -2.2558
 7582TIP3   OH244236   4.028   2.775  11.842  0.0678 -0.6793  0.3238
 7582TIP3    H144237   4.056   2.693  11.882  2.2872  0.8982  2.2134
 7582TIP3    H244238   3.956   2.805  11.898  2.7070  1.1760  2.8657
 7583TIP3   OH244239   4.356   1.024   0.973 -0.0936  0.0342  0.0751
 7583TIP3    H144240   4.438   1.047   1.017 -0.0185  0.9079 -0.5008
 7583TIP3    H244241   4.377   0.947   0.920  0.4068  0.3761 -0.2234
 7584TIP3   OH244242   3.160   2.998   0.578  0.0549  0.2237 -0.5745
 7584TIP3    H144243   3.252   2.970   0.579  0.0477  0.2057 -0.2193
 7584TIP3    H244244   3.137   3.007   0.671 -0.2428  0.4215 -0.6671
 7585TIP3   OH244245   2.348   1.724  15.860  0.6396  0.7268 -0.2750
 7585TIP3    H144246   2.386   1.812  15.865 -1.1865  1.5919 -0.9233
 7585TIP3    H244247   2.281   1.731  15.791 -1.6883 -0.3188  1.7904
 7586TIP3   OH244248   1.730   3.258  13.661 -0.1270  0.5715  0.1713
 7586TIP3    H144249   1.750   3.251  13.568 -0.8350  1.0409 -0.0202
 7586TIP3    H244250   1.815   3.267  13.704  0.1077  2.2332 -0.5996
 7587TIP3   OH244251   5.675   1.739  13.296 -0.4438 -0.2462  0.6213
 7587TIP3    H144252   5.601   1.780  13.340  0.2943  0.0124  1.6508
 7587TIP3    H244253   5.639   1.707  13.213 -1.1677  1.9722  0.0306
 7588TIP3   OH244254   3.032   5.932   2.741  0.7297  0.2175  0.0333
 7588TIP3    H144255   3.125   5.939   2.719  0.6701  1.4428  0.1079
 7588TIP3    H244256   3.022   5.987   2.818 -0.2502  0.9038 -0.5752
 7589TIP3   OH244257   4.063   3.221   1.557  0.3762  0.1310  0.0282
 7589TIP3    H144258   4.039   3.313   1.569  0.2535  0.1409 -0.2914
 7589TIP3    H244259   4.008   3.191   1.485 -3.1726 -1.5989  3.2990
 7590TIP3   OH244260   0.666   5.484  14.357 -0.1830  0.0097  0.8374
 7590TIP3    H144261   0.718   5.421  14.406 -0.1826 -0.2498  0.5021
 7590TIP3    H244262   0.725   5.559  14.345 -0.0161 -0.1278  0.7953
 7591TIP3   OH244263   1.931   0.945   5.561  0.6242 -0.1461  0.0526
 7591TIP3    H144264   1.882   0.867   5.586 -0.9682  1.2851  1.4372
 7591TIP3    H244265   1.875   1.018   5.586  0.6305  1.4517 -4.2036
 7592TIP3   OH244266   1.539   4.340  14.748  0.0395  0.6625 -0.4636
 7592TIP3    H144267   1.582   4.264  14.786  0.0355  0.4981 -0.7912
 7592TIP3    H244268   1.490   4.378  14.821  0.1493  0.4306 -0.2683
 7593TIP3   OH244269   5.237   6.046   1.982  0.2512 -0.7699  0.4284
 7593TIP3    H144270   5.313   6.092   1.945 -1.0430 -1.0558 -2.7564
 7593TIP3    H244271   5.261   5.953   1.979  0.6995 -0.6922  1.6402
 7594TIP3   OH244272   3.735   1.271   6.090 -0.8161  0.1359 -0.2488
 7594TIP3    H144273   3.774   1.324   6.020 -0.1193 -0.9603 -0.7072
 7594TIP3    H244274   3.804   1.267   6.157 -0.0260 -2.0225 -1.1712
 7595TIP3   OH244275   3.251   1.080  11.264 -0.3037  0.5165  0.5308
 7595TIP3    H144276   3.323   1.018  11.255 -1.6597 -0.8564 -1.2339
 7595TIP3    H244277   3.252   1.130  11.182 -0.7638  1.1401  0.8992
 7596TIP3   OH244278   3.361   2.925   2.743 -0.1822  0.3320 -1.0091
 7596TIP3    H144279   3.351   2.845   2.691 -0.4634 -0.3282  0.0489
 7596TIP3    H244280   3.448   2.957   2.721 -0.1204 -0.1901 -1.5421
 7597TIP3   OH244281   1.578   0.431  13.124  0.6331  0.1852 -0.9608
 7597TIP3    H144282   1.516   0.482  13.072  1.7743  1.6915 -0.8468
 7597TIP3    H244283   1.646   0.405  13.061  0.6390 -0.2416 -0.7788
 7598TIP3   OH244284   0.479   4.566   4.796  0.4849 -0.4400 -0.2812
 7598TIP3    H144285   0.424   4.516   4.736  1.5743  0.0158 -1.6914
 7598TIP3    H244286   0.483   4.653   4.757  1.6112 -0.2788  0.1945
 7599TIP3   OH244287   0.819   0.128   0.818 -0.0544 -0.4099  0.1066
 7599TIP3    H144288   0.748   0.091   0.765 -1.0578  1.1980  0.3001
 7599TIP3    H244289   0.899   0.098   0.775 -0.8554 -0.1453 -1.6058
 7600TIP3   OH244290   6.056   5.861  16.384 -0.5040  0.1440 -0.4982
 7600TIP3    H144291   6.054   5.857  16.288 -0.2946 -1.2761 -0.4594
 7600TIP3    H244292   6.110   5.786  16.410 -0.1675  0.8003  0.7111
 7601TIP3   OH244293   6.238   5.769   5.419 -0.1247 -0.3157 -0.2642
 7601TIP3    H144294   6.168   5.704   5.413 -1.3941  0.9614  0.3968
 7601TIP3    H244295   6.235   5.816   5.336  0.2106 -0.5197 -0.3935
 7602TIP3   OH244296   3.195   6.740  15.117  0.2865 -0.1586  0.4100
 7602TIP3    H144297   3.215   6.828  15.147  2.2226 -0.5898  0.4198
 7602TIP3    H244298   3.148   6.699  15.190 -1.5682  1.1718  0.0140
 7603TIP3   OH244299   2.018   2.914  17.028  0.5740  0.1829  0.1296
 7603TIP3    H144300   2.086   2.973  16.996  0.2093  0.8839  0.6301
 7603TIP3    H244301   1.940   2.970  17.037  0.1183 -0.4617  0.2196
 7604TIP3   OH244302   1.810   5.403   6.412 -0.5005 -0.2317  1.0161
 7604TIP3    H144303   1.892   5.450   6.396 -0.7029  0.0749  0.8791
 7604TIP3    H244304   1.757   5.421   6.334 -0.2058 -1.4857  0.5144
 7605TIP3   OH244305   2.266   4.798  15.071 -0.1686 -0.1719 -0.2135
 7605TIP3    H144306   2.267   4.744  15.151  0.9284 -0.1766 -0.2190
 7605TIP3    H244307   2.240   4.885  15.101 -1.4028 -0.5776 -0.1141
 7606TIP3   OH244308   6.781   0.883  12.386  0.1732 -0.4478  0.3810
 7606TIP3    H144309   6.747   0.797  12.412 -0.9964  0.6308  2.5679
 7606TIP3    H244310   6.714   0.945  12.413  1.5016  1.2851 -0.1492
 7607TIP3   OH244311   1.965   2.581   2.590 -0.4580 -0.2556 -0.6921
 7607TIP3    H144312   1.870   2.575   2.584 -0.6979  2.1328  0.2168
 7607TIP3    H244313   1.993   2.600   2.501 -1.0061  0.9697 -0.6072
 7608TIP3   OH244314   6.165   0.605  12.798 -0.2551 -0.5902 -0.4637
 7608TIP3    H144315   6.195   0.514  12.791 -0.1605 -0.5445 -0.6405
 7608TIP3    H244316   6.246   0.656  12.801 -0.3084 -0.5125 -0.3436
 7609TIP3   OH244317   0.145   1.716  15.985  0.3935  0.2559  0.0198
 7609TIP3    H144318   0.110   1.760  15.908 -1.2759 -2.6060 -0.8949
 7609TIP3    H244319   0.068   1.698  16.039  1.5416  2.2964  2.4697
 7610TIP3   OH244320   2.174   0.537   5.030  0.6622 -0.0611  0.4108
 7610TIP3    H144321   2.142   0.600   4.966 -0.5921 -2.4508 -1.4275
 7610TIP3    H244322   2.267   0.529   5.011  0.4376 -0.2137 -0.6672
 7611TIP3   OH244323   4.824   0.584  12.490  0.1519  0.6240  0.1523
 7611TIP3    H144324   4.828   0.610  12.582 -0.1281 -0.1328  0.3832
 7611TIP3    H244325   4.751   0.522  12.486  1.4161 -0.8676 -0.1948
 7612TIP3   OH244326   2.451   4.829  12.482 -0.1698 -0.1388 -0.5403
 7612TIP3    H144327   2.405   4.903  12.521  0.9213 -0.5820  1.6813
 7612TIP3    H244328   2.542   4.858  12.478 -0.1001 -0.5202 -1.7850
 7613TIP3   OH244329   0.988   4.852  12.354 -0.0377 -0.3898 -0.3713
 7613TIP3    H144330   0.954   4.937  12.380 -1.7036 -1.0965 -0.1711
 7613TIP3    H244331   1.028   4.867  12.268  0.1171  0.6878 -0.1157
 7614TIP3   OH244332   1.971   2.675  15.781  0.2481 -0.2319 -0.1132
 7614TIP3    H144333   1.893   2.710  15.825 -0.9377 -0.4969 -1.9433
 7614TIP3    H244334   1.970   2.582  15.801 -0.6559 -0.4677 -1.2128
 7615TIP3   OH244335   3.886   0.178  12.490 -0.1310 -0.1363 -0.1207
 7615TIP3    H144336   3.899   0.198  12.397  1.3242  0.6975  0.2522
 7615TIP3    H244337   3.868   0.084  12.491 -1.3483  0.0618 -1.3497
 7616TIP3   OH244338   1.775   1.394  15.115 -0.1049  0.2452 -0.7126
 7616TIP3    H144339   1.701   1.354  15.069 -2.1292  2.9041  0.0947
 7616TIP3    H244340   1.786   1.480  15.073 -0.4190  1.7134  2.0953
 7617TIP3   OH244341   4.659   0.611  15.371  0.2078  0.4480 -0.2755
 7617TIP3    H144342   4.679   0.640  15.460 -0.7672  0.4512 -0.0503
 7617TIP3    H244343   4.726   0.545  15.351  1.0546  1.2023  0.0672
 7618TIP3   OH244344   2.487   0.442  17.039  0.7036 -0.2419 -0.3724
 7618TIP3    H144345   2.455   0.457  16.950  0.6721  0.0030 -0.3208
 7618TIP3    H244346   2.510   0.349  17.041 -0.8544 -0.6474 -0.1471
 7619TIP3   OH244347   1.488   3.720  14.477  0.2603  0.2818 -0.1156
 7619TIP3    H144348   1.443   3.770  14.545  0.1939  0.7595 -0.5086
 7619TIP3    H244349   1.556   3.780  14.445 -0.2637  0.3712 -1.0704
 7620TIP3   OH244350   6.741   3.676   2.824 -0.0515  0.4610  0.5679
 7620TIP3    H144351   6.688   3.614   2.873  1.9294 -0.8197  1.1564
 7620TIP3    H244352   6.736   3.647   2.733  1.4009 -0.9924  0.9324
 7621TIP3   OH244353   0.444   3.276  13.062 -0.7343  0.4130 -0.0231
 7621TIP3    H144354   0.431   3.182  13.055 -0.1049  0.2755  0.6576
 7621TIP3    H244355   0.430   3.295  13.155 -0.8299  0.9866 -0.1532
 7622TIP3   OH244356   3.575   1.591   2.021  0.0965  0.5397  0.2330
 7622TIP3    H144357   3.500   1.633   2.062 -1.3794  2.1846 -3.9302
 7622TIP3    H244358   3.538   1.517   1.974  1.3354  0.3190 -0.4006
 7623TIP3   OH244359   2.570   2.248   0.514  0.3767  0.5606  0.5328
 7623TIP3    H144360   2.478   2.239   0.488 -0.2585  0.8142  2.5876
 7623TIP3    H244361   2.617   2.186   0.459 -0.6535  2.1829 -2.3104
 7624TIP3   OH244362   1.170   1.418   2.766 -0.2875 -0.0037  0.4879
 7624TIP3    H144363   1.100   1.427   2.701 -0.5975 -2.1202  0.4895
 7624TIP3    H244364   1.129   1.447   2.848  0.3597  3.4791 -0.3521
 7625TIP3   OH244365   2.835   2.831   1.462  0.6063 -0.2274 -0.1462
 7625TIP3    H144366   2.876   2.795   1.541 -1.1043 -2.7515 -0.3249
 7625TIP3    H244367   2.880   2.787   1.389  0.1234 -0.2006 -0.4651
 7626TIP3   OH244368   2.637   3.900  14.809 -0.3157 -0.6275 -0.5421
 7626TIP3    H144369   2.615   3.914  14.716 -1.8692  0.9861  0.0352
 7626TIP3    H244370   2.631   3.806  14.821 -2.9359 -0.6228 -1.4354
 7627TIP3   OH244371   6.732   1.968  11.503 -0.5865  0.2131  0.2857
 7627TIP3    H144372   6.823   1.961  11.529  0.4320 -0.1399 -3.0878
 7627TIP3    H244373   6.683   1.975  11.585  2.5037  1.0341  2.1100
 7628TIP3   OH244374   3.140   3.840   1.680  0.3231  0.5735 -0.4758
 7628TIP3    H144375   3.116   3.927   1.648  0.3707  1.1453  0.9923
 7628TIP3    H244376   3.066   3.813   1.734  0.9943  0.4016  0.3707
 7629TIP3   OH244377   3.574   1.733  17.229 -0.3145 -0.2210  0.1662
 7629TIP3    H144378   3.606   1.808  17.280 -0.8675 -0.2154  0.5090
 7629TIP3    H244379   3.483   1.723  17.256 -0.6715 -0.1049 -0.9565
 7630TIP3   OH244380   3.454   0.336  16.949 -0.0856 -0.3067 -0.1068
 7630TIP3    H144381   3.383   0.275  16.966  0.5111 -1.0870 -0.3454
 7630TIP3    H244382   3.511   0.329  17.026 -0.9328  1.2919  0.6832
 7631TIP3   OH244383   1.386   4.058  13.164  0.4541  0.3783 -0.7730
 7631TIP3    H144384   1.361   3.971  13.194  0.4512  0.6209 -0.0636
 7631TIP3    H244385   1.461   4.082  13.219  1.0428  0.4357 -1.5990
 7632TIP3   OH244386   1.646   0.544   2.951  0.7373  0.3997 -0.2876
 7632TIP3    H144387   1.713   0.477   2.963 -0.7784 -0.9617  0.8137
 7632TIP3    H244388   1.618   0.565   3.040 -0.1617  1.0849 -0.7321
 7633TIP3   OH244389   4.136   0.144   5.631  0.2331  0.3192 -0.5519
 7633TIP3    H144390   4.176   0.119   5.715  0.1000  1.6125 -0.0945
 7633TIP3    H244391   4.210   0.154   5.572  0.4864  1.2621 -0.0862
 7634TIP3   OH244392   3.574   6.037  15.967 -0.0601  0.2937  1.2762
 7634TIP3    H144393   3.513   5.984  15.916  0.6363 -0.1965  0.9380
 7634TIP3    H244394   3.660   6.017  15.929  0.3167  0.8970  1.8108
 7635TIP3   OH244395   1.147   2.086   2.444 -0.5542 -0.1701  0.4068
 7635TIP3    H144396   1.052   2.079   2.434 -0.7289 -0.0713  1.9854
 7635TIP3    H244397   1.162   2.178   2.465  0.0562  0.1850 -1.4700
 7636TIP3   OH244398   6.708   3.362  15.752  0.2140 -0.7612  0.4065
 7636TIP3    H144399   6.785   3.312  15.726  1.2183 -0.0736  1.9682
 7636TIP3    H244400   6.635   3.301  15.742  0.6101 -0.6755 -3.4067
 7637TIP3   OH244401   1.434   1.831   3.649  0.0511  0.2994 -0.1722
 7637TIP3    H144402   1.455   1.740   3.668  1.3579 -0.0765 -3.1064
 7637TIP3    H244403   1.350   1.826   3.602  0.7037  0.4766 -1.3749
 7638TIP3   OH244404   6.410   3.062  14.578 -0.0880  0.0715  0.3228
 7638TIP3    H144405   6.474   3.109  14.632 -0.4670 -0.1821  1.0036
 7638TIP3    H244406   6.330   3.115  14.584 -0.3152 -0.2925  0.5378
 7639TIP3   OH244407   5.515   3.452   1.004 -0.2332  0.4949 -0.5911
 7639TIP3    H144408   5.580   3.511   0.967  1.0881 -0.2747  0.4671
 7639TIP3    H244409   5.524   3.462   1.098 -1.3315  0.0338 -0.4318
 7640TIP3   OH244410   2.356   0.090  13.304  0.0308 -0.6573 -0.4918
 7640TIP3    H144411   2.383   0.181  13.292 -0.3130 -0.3482  1.0514
 7640TIP3    H244412   2.274   0.095  13.352  1.0904 -1.8602  1.4949
 7641TIP3   OH244413   4.829   0.600   0.509 -0.2340  0.1817  0.3000
 7641TIP3    H144414   4.903   0.660   0.516 -0.8550  1.0446 -0.3764
 7641TIP3    H244415   4.832   0.570   0.418  0.4753 -1.3453  0.8212
 7642TIP3   OH244416   2.732   3.221   3.635  0.1722  0.8944  0.1495
 7642TIP3    H144417   2.732   3.182   3.722 -1.6994  0.5725  0.0355
 7642TIP3    H244418   2.821   3.209   3.603 -0.0326 -2.2675  0.6045
 7643TIP3   OH244419   5.403   6.764  16.346  0.9644  0.7313  0.8715
 7643TIP3    H144420   5.425   6.758  16.439 -0.3110  2.9799  1.3584
 7643TIP3    H244421   5.415   6.857  16.324  2.1863  0.0594 -1.4623
 7644TIP3   OH244422   5.127   6.348  12.121  0.1986 -0.6264 -0.0646
 7644TIP3    H144423   5.211   6.332  12.164  0.2028 -0.5893 -0.0601
 7644TIP3    H244424   5.126   6.285  12.048  1.4720  1.3078 -1.8068
 7645TIP3   OH244425   2.265   1.121   1.821  0.3666 -0.6206 -0.1932
 7645TIP3    H144426   2.238   1.082   1.905 -0.6535  0.4704 -0.0048
 7645TIP3    H244427   2.283   1.045   1.765 -0.3638 -1.3736  0.5607
 7646TIP3   OH244428   1.587   0.966  15.400 -0.1511 -0.1204  0.2829
 7646TIP3    H144429   1.609   0.880  15.436  3.4808  0.2382 -0.9377
 7646TIP3    H244430   1.500   0.953  15.361  0.3300 -3.2697  0.0927
 7647TIP3   OH244431   4.084   0.750  13.164 -0.3708 -0.1031  0.5319
 7647TIP3    H144432   4.081   0.705  13.079  0.1687 -0.4685  0.7045
 7647TIP3    H244433   4.003   0.724  13.208  0.2602 -1.4802  0.9167
 7648TIP3   OH244434   3.570   5.064  13.527 -0.1199  0.1931  0.8106
 7648TIP3    H144435   3.548   5.138  13.470 -0.3786 -0.9539 -0.6115
 7648TIP3    H244436   3.643   5.096  13.580  1.2656  0.7262 -1.3593
 7649TIP3   OH244437   2.095   0.267   2.814 -0.6573  0.5045  0.9033
 7649TIP3    H144438   2.164   0.209   2.782  0.6711  2.1706  0.6472
 7649TIP3    H244439   2.075   0.235   2.902 -1.3569 -1.5333  0.0167
 7650TIP3   OH244440   6.789   5.473  14.095  0.2210 -0.7252 -0.0656
 7650TIP3    H144441   6.807   5.458  14.002 -0.6724 -0.5466 -0.2715
 7650TIP3    H244442   6.743   5.556  14.097  1.6720  0.0844  0.6996
 7651TIP3   OH244443   5.889   2.285   3.950 -0.3450  0.3201 -0.1475
 7651TIP3    H144444   5.798   2.302   3.923 -0.6132 -0.2583  0.3683
 7651TIP3    H244445   5.928   2.241   3.875 -0.7322 -0.1573 -0.0781
 7652TIP3   OH244446   0.385   5.426  13.938 -0.4856  0.0376 -0.1215
 7652TIP3    H144447   0.444   5.384  13.875  0.1637  0.8813 -0.0945
 7652TIP3    H244448   0.377   5.516  13.905 -0.4140  0.3875  0.8188
 7653TIP3   OH244449   3.429   1.727   6.814  0.3396  0.7117 -0.2856
 7653TIP3    H144450   3.411   1.818   6.835  0.9976  1.1795 -1.6855
 7653TIP3    H244451   3.416   1.721   6.720 -0.5646 -0.8604 -0.0801
 7654TIP3   OH244452   3.405   6.355   6.058  0.4895 -0.2205  0.0168
 7654TIP3    H144453   3.349   6.301   6.114  0.7929  0.5892  1.1277
 7654TIP3    H244454   3.494   6.327   6.081  0.6319  0.4472  0.2824
 7655TIP3   OH244455   4.253   3.557   2.149  0.1130 -0.5533  0.1169
 7655TIP3    H144456   4.336   3.512   2.161  0.2328 -0.7556 -1.3507
 7655TIP3    H244457   4.203   3.500   2.090 -0.3158  0.4714 -0.5253
 7656TIP3   OH244458   2.613   3.667  11.849 -0.7956  0.1957  0.3403
 7656TIP3    H144459   2.571   3.647  11.765  0.3410 -1.1173  0.0603
 7656TIP3    H244460   2.702   3.691  11.827 -0.7565  0.7785  1.1084
 7657TIP3   OH244461   1.596   6.123  11.352  0.0311  0.1069  0.3737
 7657TIP3    H144462   1.670   6.071  11.384  0.7748 -0.2168 -1.7644
 7657TIP3    H244463   1.557   6.069  11.282 -2.8806 -0.1779  2.1327
 7658TIP3   OH244464   1.377   5.620   5.080 -0.2957  0.0211 -0.3473
 7658TIP3    H144465   1.367   5.615   5.175 -1.0184 -0.3011 -0.4341
 7658TIP3    H244466   1.287   5.615   5.046 -0.1845  1.8427 -0.9748
 7659TIP3   OH244467   2.373   0.708  15.803  0.1735  0.2463  0.0054
 7659TIP3    H144468   2.312   0.662  15.746 -1.2959  0.5819  1.2877
 7659TIP3    H244469   2.429   0.638  15.838 -0.0931 -0.1762 -0.3958
 7660TIP3   OH244470   5.523   0.031  11.182  0.1212  0.2229  0.2020
 7660TIP3    H144471   5.456   0.022  11.115 -0.4406  0.9353  0.6679
 7660TIP3    H244472   5.583   0.098  11.148 -1.0540  1.7727  1.1288
 7661TIP3   OH244473   4.577   2.485   6.975 -0.6539  0.0211  0.0661
 7661TIP3    H144474   4.643   2.440   6.924 -0.6863 -0.1134  0.1442
 7661TIP3    H244475   4.565   2.569   6.931 -1.4024 -0.4939 -0.7205
 7662TIP3   OH244476   1.407   5.157   5.968  0.4330 -0.1283  0.1068
 7662TIP3    H144477   1.428   5.065   5.983 -0.0435 -0.4114 -0.9274
 7662TIP3    H244478   1.327   5.156   5.916 -0.3528  0.9050  1.2586
 7663TIP3   OH244479   2.933   5.133   0.399 -0.3851  0.1668 -0.4106
 7663TIP3    H144480   2.976   5.095   0.475 -0.7623  1.8708  0.7043
 7663TIP3    H244481   2.998   5.130   0.329  0.4562 -0.1358  0.3836
 7664TIP3   OH244482   4.081   2.176   5.170  0.7499  0.1073 -0.2864
 7664TIP3    H144483   4.135   2.244   5.210 -0.1351  1.4332 -1.3098
 7664TIP3    H244484   4.020   2.150   5.239 -0.8744  2.4939 -0.7628
 7665TIP3   OH244485   1.676   4.269   4.335  0.0106  0.0614 -0.4090
 7665TIP3    H144486   1.587   4.245   4.363 -0.0024 -0.6597 -1.0236
 7665TIP3    H244487   1.663   4.343   4.276 -0.2288 -0.2423 -0.7504
 7666TIP3   OH244488   0.491   4.245  12.722  0.0137  0.2090 -0.1234
 7666TIP3    H144489   0.481   4.158  12.761  0.2379  1.1111  2.0057
 7666TIP3    H244490   0.451   4.304  12.785 -0.2072  1.6618 -1.5892
 7667TIP3   OH244491   3.713   3.936  11.532  0.3239  0.2033  0.2942
 7667TIP3    H144492   3.740   3.929  11.441 -0.8968  0.5438 -0.1043
 7667TIP3    H244493   3.712   3.846  11.564  1.2189  0.1232  0.1224
 7668TIP3   OH244494   4.964   6.403   1.118 -0.5197  0.3247  0.3269
 7668TIP3    H144495   5.038   6.462   1.107 -0.5630  0.5593  1.2324
 7668TIP3    H244496   4.891   6.460   1.141 -0.7697  0.0095  0.3204
 7669TIP3   OH244497   5.775   4.534  16.388 -0.5037  0.1672 -0.3475
 7669TIP3    H144498   5.843   4.486  16.340  0.0488  1.2880 -0.7168
 7669TIP3    H244499   5.815   4.553  16.473  1.0296  3.8979 -1.8042
 7670TIP3   OH244500   0.652   6.276  13.151 -0.2596 -0.9638 -0.3395
 7670TIP3    H144501   0.563   6.242  13.143 -0.3191 -0.9341  0.2122
 7670TIP3    H244502   0.698   6.238  13.076 -0.8848 -0.4930 -0.9791
 7671TIP3   OH244503   5.225   2.551  16.710 -0.0183  0.5192 -0.5817
 7671TIP3    H144504   5.173   2.609  16.654 -0.1307 -2.4696 -3.7932
 7671TIP3    H244505   5.161   2.507  16.766 -0.2795  1.1835 -0.3589
 7672TIP3   OH244506   2.153   2.726  15.575  0.0564  0.0865 -0.4488
 7672TIP3    H144507   2.211   2.654  15.548  1.5194  0.6571  1.1239
 7672TIP3    H244508   2.096   2.687  15.642  0.9632  0.4105  0.5285
 7673TIP3   OH244509   6.579   3.954  15.554  0.1766  0.1777 -0.0044
 7673TIP3    H144510   6.584   3.866  15.590 -0.5473 -0.0782 -0.5044
 7673TIP3    H244511   6.556   3.941  15.462  1.4477  0.8324 -0.4419
 7674TIP3   OH244512   6.398   4.930  15.797  0.4117  0.2476  0.0250
 7674TIP3    H144513   6.491   4.923  15.816  0.3857  0.5067  0.2559
 7674TIP3    H244514   6.385   4.876  15.719  0.4207 -1.3831  1.1111
 7675TIP3   OH244515   1.093   0.656  16.745  0.2953  0.0797 -0.6458
 7675TIP3    H144516   1.062   0.582  16.797  2.1027 -1.0852 -1.2207
 7675TIP3    H244517   1.095   0.624  16.655 -2.0530  1.8448 -1.3974
 7676TIP3   OH244518   3.266   6.320   4.078 -0.0484  0.7968  0.8573
 7676TIP3    H144519   3.277   6.343   3.986 -0.7761 -0.1891  0.5183
 7676TIP3    H244520   3.209   6.388   4.114 -1.1550  0.2382  0.1669
 7677TIP3   OH244521   1.078   5.079  13.254 -0.5294  0.1659  0.1415
 7677TIP3    H144522   1.174   5.077  13.253 -0.5521 -0.2093 -1.2882
 7677TIP3    H244523   1.057   5.163  13.297  0.4575  1.4074 -1.7281
 7678TIP3   OH244524   0.416   0.922   1.905  0.6384  0.2874 -0.5000
 7678TIP3    H144525   0.416   0.835   1.944 -2.0905  0.1639 -0.6456
 7678TIP3    H244526   0.441   0.907   1.814 -0.6348 -0.4937 -0.7446
 7679TIP3   OH244527   1.624   0.737   6.163  0.3642 -0.5243 -0.3676
 7679TIP3    H144528   1.558   0.751   6.231  1.5124 -0.6618  0.8109
 7679TIP3    H244529   1.580   0.684   6.097 -0.3829 -1.5453  0.9105
 7680TIP3   OH244530   6.194   1.496  14.333  0.1085  0.3334 -0.0770
 7680TIP3    H144531   6.146   1.478  14.252  0.8601 -0.3560 -0.3788
 7680TIP3    H244532   6.151   1.573  14.369 -1.8517 -0.8152  0.1540
 7681TIP3   OH244533   4.029   2.685  13.157  0.6333 -0.0083 -0.0638
 7681TIP3    H144534   4.121   2.698  13.131  0.4326  1.3355 -0.1254
 7681TIP3    H244535   4.019   2.739  13.236 -0.4299  0.7978 -0.7455
 7682TIP3   OH244536   5.970   5.150  14.410  0.4407 -0.2962  0.0163
 7682TIP3    H144537   5.929   5.236  14.399  0.6098 -0.3465 -1.0298
 7682TIP3    H244538   6.051   5.168  14.457  0.6987  0.1693 -0.6073
 7683TIP3   OH244539   6.474   1.122   3.310 -0.1906  0.2579  0.4369
 7683TIP3    H144540   6.549   1.167   3.272 -0.4097  0.5571  0.3656
 7683TIP3    H244541   6.418   1.191   3.344 -0.1970  0.0111  0.9355
 7684TIP3   OH244542   3.486   1.296  14.403 -0.0256  0.2430 -0.5403
 7684TIP3    H144543   3.517   1.295  14.312 -0.1711 -1.8147 -0.5932
 7684TIP3    H244544   3.416   1.230  14.405 -0.0158  0.2693  1.0658
 7685TIP3   OH244545   1.083   0.886   5.354 -0.6372 -0.5941  0.0300
 7685TIP3    H144546   1.126   0.801   5.347 -1.0397 -0.7443 -0.5547
 7685TIP3    H244547   0.990   0.867   5.348 -0.8554 -0.3472  2.0226
 7686TIP3   OH244548   6.378   4.097   0.209  0.0939  0.0236  0.1282
 7686TIP3    H144549   6.442   4.051   0.153  1.3489  0.8227  0.8696
 7686TIP3    H244550   6.300   4.042   0.207  1.7767 -2.4969  1.5049
 7687TIP3   OH244551   0.879   2.105   1.765  0.5460 -0.3113 -0.4726
 7687TIP3    H144552   0.840   2.092   1.679 -0.2953  1.7881 -0.4492
 7687TIP3    H244553   0.920   2.192   1.759  0.1636  0.0119  1.3471
 7688TIP3   OH244554   2.190   2.553   6.484 -0.1696  0.4924  0.1591
 7688TIP3    H144555   2.138   2.517   6.412 -0.4985  0.1997  0.5369
 7688TIP3    H244556   2.280   2.553   6.452 -0.2484 -0.1078 -0.0697
 7689TIP3   OH244557   1.730   3.053   2.067  0.1948  0.4834  0.6168
 7689TIP3    H144558   1.816   3.048   2.026 -1.3654  1.6010 -3.0290
 7689TIP3    H244559   1.720   3.144   2.093  0.1794  0.3109  1.2286
 7690TIP3   OH244560   5.285   4.356   5.054 -0.9280  0.2025  0.3796
 7690TIP3    H144561   5.190   4.349   5.054 -1.1625  2.7721 -0.4199
 7690TIP3    H244562   5.302   4.449   5.070  1.4318 -0.0704 -0.3263
 7691TIP3   OH244563   6.724   1.255   0.050  0.2606 -0.1868  0.1502
 7691TIP3    H144564   6.738   1.331  -0.006 -0.1690  0.9155  1.4899
 7691TIP3    H244565   6.660   1.201   0.003  0.1944  0.5237 -0.5850
 7692TIP3   OH244566   3.762   0.392   0.749 -0.2754 -0.0543 -0.6750
 7692TIP3    H144567   3.690   0.378   0.811  0.0039 -0.9792 -0.5439
 7692TIP3    H244568   3.764   0.312   0.696  0.1701  0.2850 -1.1774
 7693TIP3   OH244569   6.436   5.859  13.411 -0.3976 -0.1519 -0.3092
 7693TIP3    H144570   6.525   5.836  13.383 -0.9913 -2.8735 -0.0056
 7693TIP3    H244571   6.439   5.855  13.506 -0.2773  2.0628 -0.1842
 7694TIP3   OH244572   6.767   5.970   2.270 -0.3728  0.0550 -0.5351
 7694TIP3    H144573   6.809   5.887   2.292 -0.0127 -0.1898 -2.1181
 7694TIP3    H244574   6.687   5.946   2.224 -2.5094  0.5103  2.7183
 7695TIP3   OH244575   2.074   1.300   2.912 -0.4394  0.1928  0.0965
 7695TIP3    H144576   2.046   1.350   2.835 -0.3295 -1.3925 -0.9918
 7695TIP3    H244577   2.150   1.347   2.945 -0.9618  1.3293 -0.2993
 7696TIP3   OH244578   3.484   6.411  12.785  0.1441  0.1767 -0.1368
 7696TIP3    H144579   3.576   6.384  12.790  0.1871  0.2166 -0.7198
 7696TIP3    H244580   3.487   6.504  12.765 -0.0218  0.3189  0.4783
 7697TIP3   OH244581   4.897   5.838   2.608 -0.3883 -0.3158  0.2338
 7697TIP3    H144582   4.866   5.928   2.624  1.5856  0.1911  1.3444
 7697TIP3    H244583   4.894   5.829   2.513  0.6295  1.4060  0.0030
 7698TIP3   OH244584   6.527   0.095  11.498 -0.3002 -0.5936  0.0919
 7698TIP3    H144585   6.511   0.163  11.432  0.3933 -2.5628 -2.1568
 7698TIP3    H244586   6.442   0.082  11.540 -1.0941 -0.3080 -1.3933
 7699TIP3   OH244587   0.560   0.798   3.447  0.3055 -0.2959  0.0521
 7699TIP3    H144588   0.475   0.774   3.482  1.4507 -2.5571  1.4094
 7699TIP3    H244589   0.614   0.817   3.524  1.6097 -0.9620 -0.6733
 7700TIP3   OH244590   6.351   5.470   5.729 -0.0699  0.6353  0.4654
 7700TIP3    H144591   6.314   5.482   5.817 -1.3467  1.7833 -0.2049
 7700TIP3    H244592   6.441   5.500   5.736  0.2883 -0.6772  1.7377
 7701TIP3   OH244593   1.718   2.228  17.135  0.0548  0.2929 -0.0299
 7701TIP3    H144594   1.726   2.316  17.099 -1.9455  0.8700  0.9063
 7701TIP3    H244595   1.682   2.176  17.063 -1.0113  0.7645  0.1587
 7702TIP3   OH244596   4.098   3.329  14.711 -0.7420  0.8399 -0.3447
 7702TIP3    H144597   4.063   3.285  14.634  0.9098  1.8431 -1.7221
 7702TIP3    H244598   4.177   3.373  14.680  1.1146 -0.3879  2.3714
 7703TIP3   OH244599   5.585   0.806   2.548  0.5109  0.3191  0.6717
 7703TIP3    H144600   5.491   0.786   2.551  0.3170  1.1170 -0.0266
 7703TIP3    H244601   5.590   0.901   2.552  1.1864  0.3919 -1.2232
 7704TIP3   OH244602   1.510   5.687  10.375 -1.5591  0.3632 -0.3240
 7704TIP3    H144603   1.486   5.617  10.436  0.2103 -1.4591 -1.6474
 7704TIP3    H244604   1.430   5.705  10.326 -1.7049 -1.7212 -0.9002
 7705TIP3   OH244605   3.393   2.936   5.022  0.5344 -0.1496  0.8357
 7705TIP3    H144606   3.343   2.886   5.087 -1.6142 -1.4706 -1.7527
 7705TIP3    H244607   3.452   2.871   4.983 -0.5897 -0.1596 -0.8847
 7706TIP3   OH244608   1.585   2.879   0.276  0.0267  0.2340  0.5403
 7706TIP3    H144609   1.675   2.911   0.263  0.6820 -1.3988  0.8501
 7706TIP3    H244610   1.536   2.917   0.204  0.7616  1.9202  0.9102
 7707TIP3   OH244611   2.097   3.287   1.627 -0.0691 -0.4196 -0.0503
 7707TIP3    H144612   2.187   3.279   1.657 -0.2792 -0.2930  0.6384
 7707TIP3    H244613   2.101   3.346   1.552  0.1244  1.4822  1.4223
 7708TIP3   OH244614   1.337   4.151  12.227 -0.1107  0.0469  0.7364
 7708TIP3    H144615   1.301   4.219  12.285  0.7894  0.7938  0.4375
 7708TIP3    H244616   1.429   4.174  12.218  0.4433 -1.7900  1.4336
 7709TIP3   OH244617   0.984   4.821   0.243  0.9172  0.7269  0.3626
 7709TIP3    H144618   0.985   4.915   0.261  2.1770  0.6144  0.9520
 7709TIP3    H244619   0.915   4.809   0.178  0.9267  2.0944  0.0932
 7710TIP3   OH244620   1.741   0.072  16.314  0.0313 -0.0484  0.3966
 7710TIP3    H144621   1.673   0.096  16.252  0.0303  0.2487  0.5121
 7710TIP3    H244622   1.731   0.134  16.387  0.4443  0.0223  0.3983
 7711TIP3   OH244623   3.862   2.745   0.488 -0.5520  0.4737 -0.2713
 7711TIP3    H144624   3.879   2.719   0.579  0.4842  0.7921 -0.3666
 7711TIP3    H244625   3.948   2.744   0.446 -1.0386  0.2523 -1.2741
 7712TIP3   OH244626   0.849   5.317   2.658 -0.5475 -0.4434  0.4816
 7712TIP3    H144627   0.801   5.398   2.642 -0.4975 -0.6961 -1.0230
 7712TIP3    H244628   0.803   5.251   2.607 -0.8617 -1.4745  2.0606
 7713TIP3   OH244629   4.369   3.796   2.230 -0.3026 -0.1972 -0.0979
 7713TIP3    H144630   4.339   3.711   2.198  0.7227 -0.3972 -0.5790
 7713TIP3    H244631   4.451   3.811   2.182 -0.8894  1.4293 -0.6063
 7714TIP3   OH244632   5.360   4.095   3.861 -0.3241  0.2332 -0.4156
 7714TIP3    H144633   5.377   4.140   3.944  1.1743 -0.3976 -0.3571
 7714TIP3    H244634   5.444   4.099   3.815 -1.3640  1.3511 -2.2896
 7715TIP3   OH244635   3.163   5.792   4.544  0.3921  0.2566  0.3507
 7715TIP3    H144636   3.119   5.746   4.473  1.3814  0.1616 -0.2136
 7715TIP3    H244637   3.118   5.762   4.623  0.5972 -1.1924 -0.0625
 7716TIP3   OH244638   4.805   0.651   4.718 -0.3224  0.0570  0.3930
 7716TIP3    H144639   4.881   0.593   4.719 -1.0985 -1.1086 -2.5886
 7716TIP3    H244640   4.842   0.738   4.730  1.2562 -0.6708  1.0890
 7717TIP3   OH244641   6.785   5.115   3.763  0.3853  0.2961 -0.1174
 7717TIP3    H144642   6.878   5.100   3.745 -0.1074  0.5667 -3.3428
 7717TIP3    H244643   6.747   5.027   3.760  0.6343  0.1136  1.9080
 7718TIP3   OH244644   5.082   3.839   2.957 -0.4881  0.4805 -0.0635
 7718TIP3    H144645   5.137   3.822   2.880 -1.7740  0.6802 -1.0384
 7718TIP3    H244646   4.995   3.809   2.931 -1.3755  2.4580  0.5877
 7719TIP3   OH244647   3.433   0.209   0.579  0.3553  0.3711 -0.2016
 7719TIP3    H144648   3.451   0.275   0.513 -0.3833  3.3382  2.4403
 7719TIP3    H244649   3.338   0.198   0.578  0.1403  1.7693  1.5169
 7720TIP3   OH244650   6.071   4.286  14.056  0.4012  0.5613  0.2581
 7720TIP3    H144651   6.132   4.359  14.045  1.5018 -0.3885  0.0104
 7720TIP3    H244652   6.092   4.226  13.984 -0.4291 -0.0494  0.5193
 7721TIP3   OH244653   4.759   1.376   0.302 -0.6569 -0.4858 -0.2983
 7721TIP3    H144654   4.805   1.440   0.247 -0.3313 -0.9318 -0.5466
 7721TIP3    H244655   4.828   1.336   0.354 -0.6102 -1.9451 -1.4624
 7722TIP3   OH244656   1.271   2.100  14.898  0.6613  0.5793  0.1950
 7722TIP3    H144657   1.319   2.173  14.859  1.4619  0.4796  0.9700
 7722TIP3    H244658   1.312   2.089  14.984 -1.5799  1.3495  1.4138
 7723TIP3   OH244659   3.940   4.117   3.005  0.0038  0.0575  0.3848
 7723TIP3    H144660   3.857   4.162   2.995 -0.0851 -0.1510  0.1708
 7723TIP3    H244661   3.933   4.073   3.090  0.1162  0.4960  0.6220
 7724TIP3   OH244662   5.770   2.780  10.907  0.0974 -0.0134 -0.1097
 7724TIP3    H144663   5.836   2.846  10.886 -0.2387  0.1549 -0.6489
 7724TIP3    H244664   5.792   2.705  10.852 -0.0395 -0.0352 -0.1359
 7725TIP3   OH244665   1.807   6.597  15.035 -0.1170  0.1035  0.7295
 7725TIP3    H144666   1.878   6.627  14.978  0.3264 -0.9954  0.6749
 7725TIP3    H244667   1.852   6.564  15.113 -0.4422 -1.9450  0.0870
 7726TIP3   OH244668   4.718   0.192   5.671 -0.1620 -0.2626  0.0484
 7726TIP3    H144669   4.682   0.278   5.647  1.2379 -0.0112 -1.2465
 7726TIP3    H244670   4.716   0.142   5.589  2.6240 -0.1410 -0.1352
 7727TIP3   OH244671   1.350   2.930   3.015  0.4777  0.0554  0.2739
 7727TIP3    H144672   1.366   2.860   2.953  5.1774  0.9269  0.3398
 7727TIP3    H244673   1.344   2.886   3.100 -0.7409 -0.6207 -0.1501
 7728TIP3   OH244674   0.108   3.958  12.596  0.7281  0.3632  0.3238
 7728TIP3    H144675   0.128   3.873  12.637 -1.1668 -0.4285 -0.2947
 7728TIP3    H244676   0.125   4.022  12.664  3.1088 -0.4213  0.5053
 7729TIP3   OH244677   1.664   0.821   5.048 -0.2738 -0.4280  0.2003
 7729TIP3    H144678   1.636   0.891   4.988  0.5769 -0.4581 -0.2483
 7729TIP3    H244679   1.718   0.764   4.993  0.4104 -0.5237  0.9676
 7730TIP3   OH244680   5.627   4.369   3.440  0.0725 -0.3334  0.1138
 7730TIP3    H144681   5.564   4.429   3.481 -0.8583 -0.6647 -0.8267
 7730TIP3    H244682   5.663   4.419   3.367 -0.5896 -0.8673 -0.5764
 7731TIP3   OH244683   3.036   1.658   6.795 -0.4633  0.6517  0.1727
 7731TIP3    H144684   3.061   1.597   6.864  3.1234  0.7952 -0.8917
 7731TIP3    H244685   3.092   1.635   6.720 -1.3891  3.0713 -1.3608
 7732TIP3   OH244686   1.506   2.378  11.756 -0.1929 -0.0223 -0.7787
 7732TIP3    H144687   1.524   2.301  11.701  0.0329  0.6989 -1.7186
 7732TIP3    H244688   1.590   2.399  11.796  0.0307  0.5257 -1.5370
 7733TIP3   OH244689   2.785   2.271  16.351 -0.2332 -0.0170 -0.3647
 7733TIP3    H144690   2.719   2.220  16.397 -0.0483  0.2201  0.1602
 7733TIP3    H244691   2.736   2.322  16.287 -0.7289  1.2709  1.0110
 7734TIP3   OH244692   3.172   3.034  10.894 -0.1394 -0.5552 -0.6545
 7734TIP3    H144693   3.248   3.090  10.914 -1.5858  1.2016  0.0360
 7734TIP3    H244694   3.211   2.952  10.864  2.0569 -0.0616  0.6993
 7735TIP3   OH244695   5.998   4.479   2.078 -0.2505 -0.3518  0.2582
 7735TIP3    H144696   6.086   4.507   2.056  0.1755 -0.3390  1.8856
 7735TIP3    H244697   6.006   4.443   2.167 -1.8554 -0.4053  0.3951
 7736TIP3   OH244698   1.872   6.585  15.319 -0.0543  0.0206 -0.4375
 7736TIP3    H144699   1.809   6.587  15.391 -0.3530  0.0545 -0.7004
 7736TIP3    H244700   1.898   6.493  15.311 -0.3608 -0.0508 -0.5854
 7737TIP3   OH244701   6.421   6.208   0.195 -0.0079 -0.3987  0.2700
 7737TIP3    H144702   6.414   6.169   0.108  2.9814 -0.0040 -0.2132
 7737TIP3    H244703   6.459   6.139   0.249  0.6309  0.1984  0.5980
 7738TIP3   OH244704   5.316   1.728   2.438  0.5639  0.2808 -0.4641
 7738TIP3    H144705   5.332   1.822   2.447  0.5101  0.1953  0.6218
 7738TIP3    H244706   5.321   1.694   2.528  0.9497 -0.8081 -0.8880
 7739TIP3   OH244707   2.007   4.857   5.272  0.0987  0.5051 -0.3259
 7739TIP3    H144708   1.938   4.797   5.246  0.5696  0.4106 -1.3861
 7739TIP3    H244709   2.088   4.806   5.262  0.4423  1.0904 -0.5675
 7740TIP3   OH244710   2.114   0.701  16.506 -0.1134  0.3996 -0.2592
 7740TIP3    H144711   2.188   0.640  16.508  0.4845  1.1597  1.6992
 7740TIP3    H244712   2.152   0.785  16.480 -0.7821  0.1716 -2.0430
 7741TIP3   OH244713   2.652   1.572   1.069 -0.5332 -0.0571 -0.2310
 7741TIP3    H144714   2.676   1.490   1.113 -0.1863  0.1135 -0.0935
 7741TIP3    H244715   2.637   1.634   1.141  0.5423  0.3633 -0.3508
 7742TIP3   OH244716   4.026   5.353  12.219  0.0498 -0.1610  0.1429
 7742TIP3    H144717   4.113   5.315  12.205  0.4376  0.7239  0.1226
 7742TIP3    H244718   4.042   5.427  12.278 -0.8592 -0.7362  1.1394
 7743TIP3   OH244719   2.459   4.884  13.451 -0.0392  0.0387 -0.2149
 7743TIP3    H144720   2.467   4.959  13.392 -1.2015 -0.5228 -1.1341
 7743TIP3    H244721   2.531   4.826  13.426  0.0896  0.2718 -0.3857
 7744TIP3   OH244722   3.773   5.624   1.970  0.2550 -0.5491  0.3303
 7744TIP3    H144723   3.753   5.717   1.982  1.2683 -0.7162  3.8166
 7744TIP3    H244724   3.687   5.581   1.968 -0.1706  0.2622  0.7278
 7745TIP3   OH244725   4.622   1.542  11.009  0.1150 -0.3838  0.7117
 7745TIP3    H144726   4.702   1.496  11.037  0.3530 -0.0775  0.5343
 7745TIP3    H244727   4.612   1.613  11.071  0.2741 -0.1049  0.4205
 7746TIP3   OH244728   2.256   1.624  11.367  0.1670 -0.1608  0.5020
 7746TIP3    H144729   2.171   1.586  11.347  1.2999 -2.6631  0.2060
 7746TIP3    H244730   2.257   1.707  11.319 -2.4677  0.4062  1.3393
 7747TIP3   OH244731   0.357   2.863   6.587  0.3414  0.0945 -0.3729
 7747TIP3    H144732   0.414   2.891   6.515  0.5786 -1.0154 -0.6118
 7747TIP3    H244733   0.413   2.808   6.642 -0.5937 -1.2910 -0.8009
 7748TIP3   OH244734   6.327   5.615   3.479  0.6584  0.1720 -0.5131
 7748TIP3    H144735   6.244   5.649   3.513  1.6092  3.6152 -1.4708
 7748TIP3    H244736   6.322   5.631   3.385  3.1938  2.2616 -0.3298
 7749TIP3   OH244737   1.513   4.174   3.773  0.2860  0.1676  0.5296
 7749TIP3    H144738   1.419   4.183   3.784 -0.0070 -0.1214 -1.5813
 7749TIP3    H244739   1.542   4.129   3.852 -1.6251 -1.4993  0.3148
 7750TIP3   OH244740   5.359   0.248  12.912 -0.4099 -0.2362 -0.3282
 7750TIP3    H144741   5.425   0.217  12.850  0.3988  0.6020  0.1070
 7750TIP3    H244742   5.291   0.287  12.857  0.1521  0.2207 -0.7022
 7751TIP3   OH244743   1.950   2.808   3.117 -0.1575 -0.2993 -0.1813
 7751TIP3    H144744   1.896   2.855   3.054 -1.8566 -0.6863  0.9618
 7751TIP3    H244745   1.954   2.718   3.083 -1.6790 -0.6840  0.6150
 7752TIP3   OH244746   3.488   5.789  13.074 -0.5919 -0.1238 -0.3731
 7752TIP3    H144747   3.579   5.782  13.045 -0.4375 -0.0556  0.0943
 7752TIP3    H244748   3.492   5.845  13.151 -0.8717 -1.1710  0.4050
 7753TIP3   OH244749   5.503   1.494   5.567 -0.8225  0.1837 -0.0842
 7753TIP3    H144750   5.442   1.561   5.596  0.2105  0.9506  0.3542
 7753TIP3    H244751   5.550   1.534   5.494  0.8124  0.4833  1.1079
 7754TIP3   OH244752   3.001   1.165   2.424 -0.6640  0.0711 -0.6017
 7754TIP3    H144753   3.048   1.166   2.341  1.6793  0.2516  0.6796
 7754TIP3    H244754   3.022   1.249   2.465  1.2374 -1.4726  1.7556
 7755TIP3   OH244755   1.984   1.505  16.579 -0.5210  0.1626  0.0691
 7755TIP3    H144756   1.942   1.421  16.595  1.3640 -0.6567  0.9640
 7755TIP3    H244757   1.958   1.559  16.654 -0.3443 -0.1940  0.3920
 7756TIP3   OH244758   0.283   5.317  16.032  0.6323 -0.1307 -0.2666
 7756TIP3    H144759   0.312   5.245  15.975  0.6498  0.7099 -1.3272
 7756TIP3    H244760   0.362   5.369  16.047  0.7370 -0.6245  0.9469
 7757TIP3   OH244761   0.604   5.295  12.354 -0.3980 -0.0339 -0.0100
 7757TIP3    H144762   0.574   5.378  12.392 -1.2774  0.2501 -1.2766
 7757TIP3    H244763   0.576   5.229  12.416  1.1199  0.6925  1.4720
 7758TIP3   OH244764   2.701   5.551  10.562  0.2000 -0.1496  0.0130
 7758TIP3    H144765   2.717   5.567  10.469 -0.6761 -0.4824 -0.1992
 7758TIP3    H244766   2.781   5.508  10.592  1.4361  2.0384 -0.0344
 7759TIP3   OH244767   4.236   1.780  12.537 -0.2009  0.0918  0.1821
 7759TIP3    H144768   4.324   1.744  12.528  1.4792  4.0001 -0.2672
 7759TIP3    H244769   4.226   1.796  12.631  0.1642  0.9869  0.0731
 7760TIP3   OH244770   1.031   3.593   3.982 -0.2898 -0.2926 -0.2249
 7760TIP3    H144771   1.014   3.527   3.915  0.6817  0.1251 -0.9051
 7760TIP3    H244772   1.111   3.564   4.025 -0.2295  0.0836 -0.0779
 7761TIP3   OH244773   5.365   2.782   4.467  0.3442  0.9259  0.1696
 7761TIP3    H144774   5.441   2.790   4.526  0.0075 -0.0788  0.7668
 7761TIP3    H244775   5.334   2.692   4.481  0.2494  0.6793 -1.5531
 7762TIP3   OH244776   1.150   4.258  17.198 -0.4962  0.7347 -0.5245
 7762TIP3    H144777   1.110   4.224  17.277  0.8787  0.7947  0.2155
 7762TIP3    H244778   1.135   4.190  17.132 -0.1792 -0.0803  0.2278
 7763TIP3   OH244779   6.236   2.767   3.000 -0.3360 -1.0217 -0.7870
 7763TIP3    H144780   6.201   2.810   3.078  1.6107  0.8565 -0.9127
 7763TIP3    H244781   6.246   2.675   3.026 -2.7742 -1.0773  0.0831
 7764TIP3   OH244782   4.660   2.206   5.050  0.1585  0.1833  0.1824
 7764TIP3    H144783   4.657   2.123   5.001 -1.6264  0.3251  0.0352
 7764TIP3    H244784   4.656   2.273   4.982  0.3664  0.3993  0.3825
 7765TIP3   OH244785   0.101   6.343   6.544  0.1230 -0.3982  0.6002
 7765TIP3    H144786   0.164   6.281   6.582  0.1425  0.3178  1.7489
 7765TIP3    H244787   0.023   6.335   6.600 -0.9872 -1.5889 -1.0611
 7766TIP3   OH244788   4.689   2.152  15.602 -0.5110  0.1543  0.8762
 7766TIP3    H144789   4.656   2.200  15.678 -1.5937 -0.8540  1.0650
 7766TIP3    H244790   4.614   2.098  15.574  0.1167 -0.0439 -0.4348
 7767TIP3   OH244791   5.077   3.358  14.394 -0.7809 -0.0409 -0.0355
 7767TIP3    H144792   5.106   3.447  14.376 -1.1432  0.1443  0.2954
 7767TIP3    H244793   5.007   3.368  14.459 -0.4526 -0.6019  0.4113
 7768TIP3   OH244794   2.921   5.415   5.219  0.5656  0.0815  0.1702
 7768TIP3    H144795   2.996   5.419   5.278 -0.6636 -0.9997  1.8240
 7768TIP3    H244796   2.847   5.442   5.272 -0.7082 -1.7938 -0.6052
 7769TIP3   OH244797   5.371   2.636  14.502 -0.8446  0.8089  0.3715
 7769TIP3    H144798   5.431   2.682  14.444 -0.7888 -0.3346 -0.4911
 7769TIP3    H244799   5.284   2.659  14.470 -0.8131  0.1539 -0.1856
 7770TIP3   OH244800   3.997   0.431   2.247 -0.4653 -0.1107 -0.3465
 7770TIP3    H144801   4.000   0.346   2.201  1.0514  0.3272 -1.0983
 7770TIP3    H244802   3.992   0.496   2.177  0.4950  0.5056  0.1448
 7771TIP3   OH244803   4.021   0.127  10.738  0.0216  0.3837 -0.0074
 7771TIP3    H144804   4.098   0.102  10.790 -0.3982 -0.8000  0.0568
 7771TIP3    H244805   4.012   0.057  10.674 -0.4579  0.9974 -0.6170
 7772TIP3   OH244806   5.964   3.756  15.417 -0.1703  0.1445  0.0273
 7772TIP3    H144807   5.920   3.765  15.502  0.0920  0.7705  0.0939
 7772TIP3    H244808   5.985   3.845  15.391 -0.6280 -0.0148 -0.9066
 7773TIP3   OH244809   6.201   6.458  15.381 -0.4707  0.1599  0.5112
 7773TIP3    H144810   6.127   6.417  15.426 -1.6439  0.7970 -0.8126
 7773TIP3    H244811   6.201   6.548  15.412 -0.4729  0.2619  0.2110
 7774TIP3   OH244812   2.885   5.683   3.965  0.7598 -0.0477  0.3341
 7774TIP3    H144813   2.887   5.655   3.874  1.0266  0.4064  0.1998
 7774TIP3    H244814   2.872   5.603   4.015  0.6037 -0.2933 -0.1055
 7775TIP3   OH244815   4.807   4.488  12.015  0.3519  0.2819 -0.0032
 7775TIP3    H144816   4.747   4.446  11.954 -0.6512 -0.4893  1.4852
 7775TIP3    H244817   4.751   4.545  12.068  1.6553  3.5207 -1.9294
 7776TIP3   OH244818   3.568   4.746   1.278  0.3857 -0.0145 -0.0648
 7776TIP3    H144819   3.639   4.711   1.331  1.2003  1.3912 -0.2059
 7776TIP3    H244820   3.568   4.690   1.200  2.8346  1.3147 -1.1003
 7777TIP3   OH244821   5.447   6.327  13.421  0.5321 -0.7237  0.0360
 7777TIP3    H144822   5.375   6.372  13.465 -0.0292 -1.1891 -0.3940
 7777TIP3    H244823   5.405   6.258  13.370  1.4489 -2.3331  1.4159
 7778TIP3   OH244824   2.333   2.630  12.439 -0.5265  0.1888 -0.1769
 7778TIP3    H144825   2.240   2.618  12.459 -0.2417 -1.9199 -0.1048
 7778TIP3    H244826   2.362   2.546  12.405  1.2817  0.9472 -0.5769
 7779TIP3   OH244827   3.297   2.559  13.251  0.3923  0.2522  0.6897
 7779TIP3    H144828   3.351   2.571  13.172 -0.0013  0.9399  0.5150
 7779TIP3    H244829   3.332   2.480  13.292  0.1368 -0.5421 -0.5609
 7780TIP3   OH244830   2.073   1.479   6.132  0.4015 -0.0600  0.3673
 7780TIP3    H144831   2.086   1.531   6.211  0.7096 -0.6897  0.7325
 7780TIP3    H244832   1.996   1.425   6.150  0.1566  0.1668  0.0338
 7781TIP3   OH244833   3.074   4.838  15.356 -0.0291 -0.1231 -0.1114
 7781TIP3    H144834   3.104   4.923  15.324 -1.9008  0.1482 -1.2132
 7781TIP3    H244835   3.118   4.774  15.300  0.4571  0.1577 -0.0517
 7782TIP3   OH244836   4.322   4.048   1.787 -0.6446  0.0284  0.6451
 7782TIP3    H144837   4.255   4.039   1.719 -0.6503  0.7137  0.5583
 7782TIP3    H244838   4.273   4.068   1.867 -0.7732 -2.4920  1.2226
 7783TIP3   OH244839   0.017   2.448   0.813  0.2916  0.2733  0.2382
 7783TIP3    H144840  -0.019   2.504   0.882  2.0846  0.8461  0.7332
 7783TIP3    H244841   0.092   2.497   0.780  0.7880 -1.0284 -0.5749
 7784TIP3   OH244842   1.037   0.734   3.452  0.1516 -0.4833 -0.4632
 7784TIP3    H144843   1.051   0.663   3.515 -0.3127 -2.0728 -2.1122
 7784TIP3    H244844   1.107   0.797   3.470  1.2343 -1.8918  0.3084
 7785TIP3   OH244845   3.045   1.970  13.514 -0.2959 -0.1717 -0.1545
 7785TIP3    H144846   3.062   1.902  13.580  0.2786 -0.0105 -0.1307
 7785TIP3    H244847   3.132   1.993  13.481 -0.6834 -1.3862 -2.1169
 7786TIP3   OH244848   3.213   4.812   5.585 -0.0837 -0.4744 -0.0162
 7786TIP3    H144849   3.255   4.869   5.521 -1.5380 -0.6430 -1.1428
 7786TIP3    H244850   3.261   4.729   5.578  1.6914  0.4057  1.2557
 7787TIP3   OH244851   0.967   6.207   1.256 -0.0575  0.0627  0.2602
 7787TIP3    H144852   0.887   6.257   1.235  1.0045  1.7398  0.1511
 7787TIP3    H244853   0.960   6.129   1.202 -1.0596  0.7715 -0.6682
 7788TIP3   OH244854   4.789   1.315   5.072 -0.9115  0.1083 -0.5494
 7788TIP3    H144855   4.822   1.254   5.137 -1.1644  1.4227  0.8587
 7788TIP3    H244856   4.707   1.276   5.042 -1.4124  0.0577  0.8279
 7789TIP3   OH244857   5.758   0.636  14.325  0.5229  0.4922 -0.2994
 7789TIP3    H144858   5.818   0.630  14.399  1.6673  0.3424 -1.2194
 7789TIP3    H244859   5.703   0.713  14.344 -1.1762 -1.2682  2.1064
 7790TIP3   OH244860   5.100   3.194  17.232  0.6446  0.8109 -0.3486
 7790TIP3    H144861   5.104   3.240  17.148  1.3436 -0.4339 -1.0098
 7790TIP3    H244862   5.026   3.235  17.278  1.7674  3.1771 -0.5452
 7791TIP3   OH244863   2.936   6.179  10.881  0.5051  0.4157  0.1136
 7791TIP3    H144864   2.840   6.181  10.884  0.4733 -0.3074 -0.2574
 7791TIP3    H244865   2.963   6.202  10.970  0.0087  1.5787 -0.0261
 7792TIP3   OH244866   4.972   6.253   1.363  0.1016 -0.3548  0.1013
 7792TIP3    H144867   4.995   6.340   1.394  0.0747  0.3566 -1.8210
 7792TIP3    H244868   4.966   6.262   1.267  1.2411 -2.7087 -0.2241
 7793TIP3   OH244869   5.399   0.546   1.167 -0.4894  0.2926 -0.1606
 7793TIP3    H144870   5.347   0.492   1.227 -1.2334  0.9368 -0.2207
 7793TIP3    H244871   5.477   0.494   1.150  0.7205  0.9550  3.0154
 7794TIP3   OH244872   2.225   6.709  11.393 -0.3885 -0.4993  0.1125
 7794TIP3    H144873   2.261   6.650  11.459  0.7087  0.1570  0.1076
 7794TIP3    H244874   2.297   6.722  11.331 -0.3500  1.4851  0.5528
 7795TIP3   OH244875   4.793   1.857  16.720  0.2047 -0.3708  0.0832
 7795TIP3    H144876   4.797   1.778  16.773  0.4325 -0.3081  0.1591
 7795TIP3    H244877   4.858   1.843  16.651 -0.0933 -0.4542 -0.1810
 7796TIP3   OH244878   1.134   1.084   3.869  0.2548 -0.0254  0.2922
 7796TIP3    H144879   1.143   1.162   3.925 -1.0802  0.7570 -0.5463
 7796TIP3    H244880   1.213   1.034   3.886  0.4877  0.8313  1.9071
 7797TIP3   OH244881   4.284   4.284   6.008  0.0804  0.0643  0.5061
 7797TIP3    H144882   4.308   4.315   6.095  0.2029  1.3946  0.0036
 7797TIP3    H244883   4.280   4.189   6.017  2.6738 -0.0039  1.3142
 7798TIP3   OH244884   4.938   5.784  14.327  0.6468  0.6748 -0.2200
 7798TIP3    H144885   4.884   5.712  14.296 -2.0786  2.7827 -0.5280
 7798TIP3    H244886   4.924   5.854  14.262  1.3424  2.3173  1.3545
 7799TIP3   OH244887   1.579   0.106  16.655  0.7159  0.2569  0.3640
 7799TIP3    H144888   1.518   0.106  16.729  0.5397  1.5271  0.2319
 7799TIP3    H244889   1.534   0.055  16.587 -0.1061  1.0143  0.3387
 7800TIP3   OH244890   4.994   1.681   2.682  0.1268 -0.4924 -0.0710
 7800TIP3    H144891   5.034   1.741   2.746 -1.0882  0.7303 -0.4323
 7800TIP3    H244892   4.909   1.660   2.720 -1.2905  1.5273 -2.0099
 7801TIP3   OH244893   5.177   5.056  14.906  0.3752 -0.2527 -0.3270
 7801TIP3    H144894   5.174   5.106  14.824  1.6787  0.9771  0.3563
 7801TIP3    H244895   5.221   5.114  14.968 -1.2305 -0.9017  1.4535
 7802TIP3   OH244896   6.278   6.781   6.078  0.6148 -0.0093  0.1596
 7802TIP3    H144897   6.295   6.823   6.162  1.1800  0.4732 -0.1891
 7802TIP3    H244898   6.304   6.689   6.091  1.4041  0.2325  0.2903
 7803TIP3   OH244899   4.622   1.535  12.317  0.1207 -0.0391  0.1492
 7803TIP3    H144900   4.604   1.468  12.252 -0.3643 -1.9620  2.2036
 7803TIP3    H244901   4.713   1.559  12.303  0.3148 -1.1818 -0.5757
 7804TIP3   OH244902   0.533   0.746   3.184  0.1939  0.3908 -0.0545
 7804TIP3    H144903   0.600   0.685   3.153 -0.1279 -0.1547  0.2964
 7804TIP3    H244904   0.565   0.774   3.270 -1.0083 -1.4808  1.0501
 7805TIP3   OH244905   6.199   1.328   0.436  0.0377  0.1401  0.3914
 7805TIP3    H144906   6.189   1.268   0.510 -0.0129 -0.0343  0.2423
 7805TIP3    H244907   6.269   1.290   0.383  1.0198  0.9782  1.0554
 7806TIP3   OH244908   6.155   3.805  16.314 -0.3657  0.1291 -0.3359
 7806TIP3    H144909   6.078   3.748  16.321 -0.6766  0.4002 -1.5022
 7806TIP3    H244910   6.228   3.744  16.301 -0.0879 -0.2487  2.7090
 7807TIP3   OH244911   0.719   3.510  14.199  0.7146  0.5033  0.5512
 7807TIP3    H144912   0.741   3.588  14.249 -0.0560  0.5313  0.8593
 7807TIP3    H244913   0.638   3.478  14.240  0.7596 -0.1700  0.1132
 7808TIP3   OH244914   0.889   4.092  12.721  0.0390 -0.1170 -0.0670
 7808TIP3    H144915   0.941   4.033  12.666 -2.9730 -1.8046 -1.2415
 7808TIP3    H244916   0.880   4.046  12.804  2.1252  1.1276  0.8912
 7809TIP3   OH244917   5.610   5.255  17.234 -0.1813  0.0988 -0.1298
 7809TIP3    H144918   5.571   5.252  17.321  0.5063 -0.3779  0.1640
 7809TIP3    H244919   5.559   5.321  17.187 -1.0043 -0.1474  0.4139
 7810TIP3   OH244920   3.020   2.248  14.372  0.6050  0.0456 -0.1457
 7810TIP3    H144921   3.026   2.342  14.358  1.8325 -0.1876 -1.2439
 7810TIP3    H244922   3.087   2.210  14.315 -0.6537 -1.5792 -0.6113
 7811TIP3   OH244923   0.990   0.961   0.010  0.5345  0.0346  0.0006
 7811TIP3    H144924   0.917   0.938  -0.048  1.4908 -0.9620 -0.8395
 7811TIP3    H244925   0.975   0.910   0.089 -1.1423  1.9080  0.9323
 7812TIP3   OH244926   4.964   6.646  15.646 -0.2751 -0.0244  0.4666
 7812TIP3    H144927   5.010   6.655  15.562  0.6424  0.5364  1.0243
 7812TIP3    H244928   4.871   6.657  15.623 -0.0900 -0.6352 -0.5848
 7813TIP3   OH244929   6.549   0.046   3.603  0.5142  0.1928  0.1718
 7813TIP3    H144930   6.537   0.021   3.695 -0.1388 -0.7396 -0.1637
 7813TIP3    H244931   6.509   0.132   3.596  1.9785  0.9642  1.1327
 7814TIP3   OH244932   0.002   2.301   4.664 -0.3333  0.0704  0.0567
 7814TIP3    H144933   0.023   2.232   4.602  2.1622  2.5416 -2.0102
 7814TIP3    H244934  -0.053   2.362   4.614 -0.1251  0.9822  0.9147
 7815TIP3   OH244935   4.745   6.549  14.211 -0.2043  0.2182  0.9251
 7815TIP3    H144936   4.777   6.619  14.154  2.6877  0.3627  2.6096
 7815TIP3    H244937   4.662   6.582  14.246 -2.2356 -0.0414 -3.3855
 7816TIP3   OH244938   3.920   5.873  12.718 -0.3910 -0.1869  0.0029
 7816TIP3    H144939   3.867   5.844  12.644 -2.4747 -0.3180  1.4954
 7816TIP3    H244940   3.944   5.792  12.763 -0.4727 -0.0185  0.3520
 7817TIP3   OH244941   5.678   2.758   5.229 -0.2709  0.1128 -0.0477
 7817TIP3    H144942   5.752   2.807   5.265 -0.1238  0.4924 -0.8676
 7817TIP3    H244943   5.604   2.820   5.234  0.0754  0.6862 -1.7629
 7818TIP3   OH244944   4.532   2.218   1.158 -0.6706 -0.8196  0.8767
 7818TIP3    H144945   4.623   2.207   1.188  0.0508 -0.4984 -1.1398
 7818TIP3    H244946   4.524   2.312   1.141 -0.6453 -1.1687 -1.1861
 7819TIP3   OH244947   1.723   4.621   5.832  0.3213 -0.3711 -0.2654
 7819TIP3    H144948   1.671   4.641   5.910  1.6901 -0.3175  0.6665
 7819TIP3    H244949   1.717   4.526   5.823  1.4587 -0.5791  0.8860
 7820TIP3   OH244950   6.797   0.252   4.019  0.1349  0.6993  0.0231
 7820TIP3    H144951   6.847   0.171   4.018  0.2598  0.7754 -1.4466
 7820TIP3    H244952   6.748   0.250   4.101 -0.5357 -1.2836 -0.4022
 7821TIP3   OH244953   2.083   5.305  15.192  0.4037 -0.2397 -0.0210
 7821TIP3    H144954   2.080   5.230  15.132  0.9843 -0.6421  0.4544
 7821TIP3    H244955   2.065   5.381  15.136  1.2396 -0.5836 -0.7693
 7822TIP3   OH244956   6.432   5.607  16.004  0.6379  0.3411 -0.2963
 7822TIP3    H144957   6.354   5.560  15.974  0.6897  0.7383 -1.0734
 7822TIP3    H244958   6.504   5.570  15.952  0.8505  0.5040 -0.1188
 7823TIP3   OH244959   6.297   1.029   4.367 -0.8532  0.1096 -0.5938
 7823TIP3    H144960   6.296   0.945   4.412  0.3409  0.7434  0.6425
 7823TIP3    H244961   6.346   1.011   4.286  2.5796  0.3770  1.3127
 7824TIP3   OH244962   0.069   4.658  16.040  0.4316  0.1766 -0.2669
 7824TIP3    H144963   0.085   4.747  16.007 -0.3196 -0.5554 -2.6826
 7824TIP3    H244964   0.152   4.612  16.026  0.2742  0.0028 -0.6064
 7825TIP3   OH244965   4.686   1.427  13.398 -0.0697 -0.2907 -0.4074
 7825TIP3    H144966   4.666   1.429  13.492 -0.2227 -0.7828 -0.4303
 7825TIP3    H244967   4.604   1.452  13.356  0.0191  0.0012 -0.4062
 7826TIP3   OH244968   6.199   4.664  15.235 -0.0203  0.0870 -0.4116
 7826TIP3    H144969   6.194   4.646  15.329 -0.9376 -2.5705 -0.9202
 7826TIP3    H244970   6.228   4.581  15.196 -1.7223  0.4875 -2.6633
 7827TIP3   OH244971   6.253   4.414  12.973 -0.1980 -0.3006 -0.0805
 7827TIP3    H144972   6.175   4.434  13.025  0.5915 -0.2169  1.1009
 7827TIP3    H244973   6.231   4.333  12.927 -1.4960  0.4896 -0.8577
 7828TIP3   OH244974   2.430   1.475   0.958 -0.3651 -0.7521  0.5175
 7828TIP3    H144975   2.521   1.498   0.977 -0.4650 -0.5206  0.7220
 7828TIP3    H244976   2.391   1.457   1.044 -0.4738 -0.9916  0.4190
 7829TIP3   OH244977   1.154   4.885  11.345  0.2909  0.4974  0.1333
 7829TIP3    H144978   1.059   4.899  11.338  0.4976  1.2594 -1.4886
 7829TIP3    H244979   1.164   4.791  11.354 -0.5784  0.2824 -1.0213
 7830TIP3   OH244980   1.207   5.989   1.447  0.1462 -0.3072  0.1475
 7830TIP3    H144981   1.222   6.084   1.450  2.9421 -0.6893 -0.1429
 7830TIP3    H244982   1.139   5.977   1.381  0.4918  1.4265 -0.5465
 7831TIP3   OH244983   0.318   0.301  12.787  0.4198 -0.1171  0.7080
 7831TIP3    H144984   0.357   0.314  12.873 -2.4720  0.3504  2.0291
 7831TIP3    H244985   0.293   0.389  12.758 -0.6427 -0.5132  0.3987
 7832TIP3   OH244986   3.244   6.731  16.518 -0.3033 -0.0155 -0.7439
 7832TIP3    H144987   3.192   6.802  16.481 -3.9197 -1.3035  1.6587
 7832TIP3    H244988   3.279   6.767  16.600  0.2836 -0.0646 -0.9711
 7833TIP3   OH244989   5.265   3.790  15.198 -0.2669  0.7955  0.3485
 7833TIP3    H144990   5.190   3.832  15.239 -1.2861 -0.8846  0.2476
 7833TIP3    H244991   5.229   3.746  15.121  1.2195  1.9221 -1.0383
 7834TIP3   OH244992   2.689   2.145  11.952 -0.0051 -0.3347  0.0761
 7834TIP3    H144993   2.702   2.074  11.888  0.6039 -0.5128  0.3977
 7834TIP3    H244994   2.755   2.129  12.019 -3.1891 -2.4744  2.8530
 7835TIP3   OH244995   5.265   5.020   5.299 -0.5085 -0.1881  0.3346
 7835TIP3    H144996   5.190   4.973   5.261 -0.5086 -2.9329  3.5106
 7835TIP3    H244997   5.237   5.042   5.388  1.6625  0.8003  0.8090
 7836TIP3   OH244998   0.976   2.174   4.163 -0.5741 -0.7169  0.1010
 7836TIP3    H144999   0.943   2.085   4.170  0.3767 -1.2446 -1.6308
 7836TIP3    H245000   0.957   2.199   4.072  0.9524  0.0861 -0.0101
 7837TIP3   OH245001   0.444   3.773  15.588  0.1760 -0.0181 -0.0906
 7837TIP3    H145002   0.415   3.864  15.587  0.9231  0.2285 -1.7238
 7837TIP3    H245003   0.375   3.726  15.540  0.3291 -0.1469 -0.1819
 7838TIP3   OH245004   3.893   4.600  14.499 -0.5150  0.1716 -0.0683
 7838TIP3    H145005   3.819   4.649  14.462  0.6930  0.6114 -1.9720
 7838TIP3    H245006   3.959   4.667  14.518 -0.0241 -0.3861  0.2004
 7839TIP3   OH245007   6.298   6.615  11.597  1.1627 -0.3011  0.5039
 7839TIP3    H145008   6.322   6.532  11.640 -2.6763 -1.2325  1.0422
 7839TIP3    H245009   6.255   6.665  11.666  1.8653  1.4468 -0.3044
 7840TIP3   OH245010   2.149   5.092   5.651 -0.4763 -0.1226 -0.0006
 7840TIP3    H145011   2.222   5.056   5.701  1.2300  1.4992 -1.2347
 7840TIP3    H245012   2.134   5.178   5.690 -1.4601 -0.2800 -0.0230
 7841TIP3   OH245013   5.589   4.147  16.119 -0.4662 -0.2060 -0.2625
 7841TIP3    H145014   5.554   4.213  16.178  0.3131  0.4366 -0.5145
 7841TIP3    H245015   5.655   4.193  16.067 -0.7023 -0.9101 -1.2065
 7842TIP3   OH245016   0.823   1.372   3.208  0.5715  0.2411 -0.1642
 7842TIP3    H145017   0.798   1.352   3.298 -0.5909  0.5001 -0.4188
 7842TIP3    H245018   0.838   1.466   3.207  0.7147  0.2181 -0.2092
 7843TIP3   OH245019   2.625   4.616  15.185  0.4022  0.1256  0.0545
 7843TIP3    H145020   2.538   4.575  15.183 -0.2328  1.4042  0.8074
 7843TIP3    H245021   2.672   4.571  15.255  1.4506 -2.7033 -2.3830
 7844TIP3   OH245022   3.799   2.618  11.552 -0.1989 -0.3458 -0.5403
 7844TIP3    H145023   3.808   2.683  11.622 -2.0362  0.4037 -0.9618
 7844TIP3    H245024   3.755   2.544  11.595  1.2156 -1.0147 -0.2380
 7845TIP3   OH245025   3.313   4.041   5.817  0.5363  0.5429  0.8114
 7845TIP3    H145026   3.372   4.043   5.741 -1.3818  1.1754 -0.7216
 7845TIP3    H245027   3.347   4.108   5.876  1.3595  0.8828 -0.0350
 7846TIP3   OH245028   0.199   4.210  10.728 -0.0451  0.4127 -0.0481
 7846TIP3    H145029   0.166   4.167  10.807 -0.4193  1.3352  0.3075
 7846TIP3    H245030   0.185   4.304  10.744  1.1081  0.6989 -0.6467
 7847TIP3   OH245031   6.683   5.857  10.702  0.3110 -0.7538  0.1978
 7847TIP3    H145032   6.665   5.949  10.685 -0.2068 -0.6588  1.1968
 7847TIP3    H245033   6.750   5.833  10.638  0.3103  0.2580 -0.1939
 7848TIP3   OH245034   4.052   2.549   4.593 -0.0801 -0.1378  0.7634
 7848TIP3    H145035   3.957   2.538   4.602  0.0512  0.7179  3.7123
 7848TIP3    H245036   4.089   2.469   4.632  0.4309 -0.5522 -0.5376
 7849TIP3   OH245037   4.782   6.046  16.206  0.5796 -0.5902 -0.1197
 7849TIP3    H145038   4.689   6.044  16.184  0.3701 -0.3340  0.7055
 7849TIP3    H245039   4.818   5.966  16.168  0.2479 -0.1469 -1.3942
 7850TIP3   OH245040   5.926   5.155  11.674 -0.0392 -0.5069  0.3351
 7850TIP3    H145041   6.005   5.139  11.726 -0.7125 -1.4228  1.0881
 7850TIP3    H245042   5.921   5.080  11.614  0.0312 -0.1073 -0.1726
 7851TIP3   OH245043   4.499   1.406  14.295 -0.1611 -0.1514 -0.5363
 7851TIP3    H145044   4.466   1.399  14.205  1.6939 -0.3148 -1.2325
 7851TIP3    H245045   4.431   1.456  14.341 -0.3179  1.5427 -2.4860
 7852TIP3   OH245046   4.599   3.457  10.995  0.1892  0.1661  0.9070
 7852TIP3    H145047   4.609   3.482  10.903  2.0809  0.6555  1.2242
 7852TIP3    H245048   4.580   3.539  11.040 -0.1186  0.0218  1.0373
 7853TIP3   OH245049   3.500   2.356   0.524  0.1256  0.0453  0.5768
 7853TIP3    H145050   3.405   2.366   0.525  0.1746  1.0284 -1.2563
 7853TIP3    H245051   3.533   2.445   0.511  1.2167 -0.4900 -0.4633
 7854TIP3   OH245052   1.063   0.641  13.589  0.0633  0.4453  0.2937
 7854TIP3    H145053   1.110   0.691  13.655  2.0083 -2.1923  0.9972
 7854TIP3    H245054   0.981   0.616  13.632  0.8089 -0.2774  1.3094
 7855TIP3   OH245055   2.668   4.560  12.543 -0.0898  0.2980 -0.0585
 7855TIP3    H145056   2.682   4.542  12.636  0.0156  0.6774  0.0000
 7855TIP3    H245057   2.611   4.637  12.542  0.1391  0.4635 -0.3105
 7856TIP3   OH245058   5.471   0.384  14.797 -0.1032 -0.6715  0.4426
 7856TIP3    H145059   5.413   0.433  14.855  0.9086  1.7979 -0.5638
 7856TIP3    H245060   5.413   0.341  14.734 -0.8864  1.6922 -0.5033
 7857TIP3   OH245061   1.818   5.667  16.413 -0.0617  0.2142 -0.5294
 7857TIP3    H145062   1.723   5.681  16.403 -0.1325  0.5633  0.5135
 7857TIP3    H245063   1.852   5.754  16.435  0.2364 -0.2637  0.9382
 7858TIP3   OH245064   2.404   4.201  10.757 -0.1549 -0.3088 -0.3586
 7858TIP3    H145065   2.342   4.243  10.698 -0.9588  0.6710  1.1797
 7858TIP3    H245066   2.474   4.265  10.769  0.5110 -0.9021 -1.0457
 7859TIP3   OH245067   0.116   6.746   3.286  0.3115 -0.4420 -0.1164
 7859TIP3    H145068   0.098   6.749   3.192 -0.3692 -1.1435 -0.0097
 7859TIP3    H245069   0.186   6.810   3.299  0.9486 -0.8968 -1.2250
 7860TIP3   OH245070   6.024   4.292  14.627  0.0670  0.1572 -0.2986
 7860TIP3    H145071   6.000   4.356  14.694  1.6028 -1.0031  1.4330
 7860TIP3    H245072   5.981   4.323  14.548  1.2514  3.6962  0.3132
 7861TIP3   OH245073   5.428   4.608   4.729 -0.3185  0.8092 -0.2645
 7861TIP3    H145074   5.419   4.703   4.726  0.5935  0.8588 -1.5606
 7861TIP3    H245075   5.497   4.588   4.666  0.1003 -0.6401  0.6337
 7862TIP3   OH245076   4.271   0.832   4.838 -0.2193 -0.0379 -0.0068
 7862TIP3    H145077   4.259   0.894   4.766  0.5735 -0.0538 -0.1622
 7862TIP3    H245078   4.228   0.873   4.913  1.2536  1.2220  0.1688
 7863TIP3   OH245079   4.710   2.812   5.926  0.2836 -0.0513 -0.3298
 7863TIP3    H145080   4.801   2.834   5.903  0.1805  1.3576  0.5761
 7863TIP3    H245081   4.719   2.737   5.985  0.7598 -0.8750 -1.4022
 7864TIP3   OH245082   3.770   1.267  11.887 -0.0520  0.2492  0.7096
 7864TIP3    H145083   3.734   1.218  11.813  1.1166  0.7429 -0.2065
 7864TIP3    H245084   3.853   1.225  11.906  0.7062  1.5120  0.2703
 7865TIP3   OH245085   0.160   1.488   4.834 -0.2853  0.0353  0.0587
 7865TIP3    H145086   0.146   1.567   4.783  0.7444 -1.6418 -2.9364
 7865TIP3    H245087   0.244   1.502   4.877 -0.3835  0.7968  0.0150
 7866TIP3   OH245088   3.202   6.483  14.877  0.8151  0.4635  0.5509
 7866TIP3    H145089   3.224   6.552  14.814  1.4361 -0.9615 -0.8404
 7866TIP3    H245090   3.285   6.442  14.898  0.4075 -0.0862  1.1177
 7867TIP3   OH245091   1.965   2.872   1.259 -0.0679  0.3066 -0.4955
 7867TIP3    H145092   1.959   2.959   1.221  1.4993  0.4315 -0.4768
 7867TIP3    H245093   1.876   2.838   1.255 -0.4883  1.4978 -1.4720
 7868TIP3   OH245094   5.039   0.146  11.022  0.1850  0.3663  0.1529
 7868TIP3    H145095   5.122   0.099  11.013 -0.4591 -1.1718  2.1164
 7868TIP3    H245096   5.036   0.172  11.113 -0.9649  1.4575 -0.1915
 7869TIP3   OH245097   5.693   3.827   4.633 -0.3565 -0.4144 -0.1559
 7869TIP3    H145098   5.712   3.865   4.719 -0.1497  0.1635 -0.4539
 7869TIP3    H245099   5.728   3.738   4.638  2.0042  0.4689 -0.5305
 7870TIP3   OH245100   5.451   2.907  13.494 -0.6571 -0.0318 -0.0287
 7870TIP3    H145101   5.362   2.900  13.457 -0.8221  1.1944  0.1093
 7870TIP3    H245102   5.458   2.998  13.522  0.3984 -0.3076  0.6253
 7871TIP3   OH245103   2.381   5.542   2.881  0.9030  0.6140  0.3133
 7871TIP3    H145104   2.368   5.481   2.809 -0.1125  1.5360 -0.3099
 7871TIP3    H245105   2.461   5.513   2.924  1.2097 -0.2842 -0.8468
 7872TIP3   OH245106   4.343   2.618   4.583  0.3623  0.2989  0.5115
 7872TIP3    H145107   4.355   2.628   4.489  1.6848 -0.3441  0.6056
 7872TIP3    H245108   4.254   2.583   4.592 -0.4662  2.1230 -0.3721
 7873TIP3   OH245109   5.958   1.004   1.373  0.0467  0.5474  0.2001
 7873TIP3    H145110   5.934   0.974   1.460  3.6444  0.1533  1.1712
 7873TIP3    H245111   6.009   0.931   1.337 -0.3374  1.2121 -1.7454
 7874TIP3   OH245112   5.613   2.501  15.872  0.4256 -0.6616 -0.2635
 7874TIP3    H145113   5.565   2.584  15.879  1.9953  0.2722 -0.2582
 7874TIP3    H245114   5.561   2.448  15.811  0.3628  1.0207 -1.7139
 7875TIP3   OH245115   3.979   2.666   3.591  0.0634  0.2678  0.4549
 7875TIP3    H145116   3.943   2.655   3.503  1.9393 -1.7209 -0.0922
 7875TIP3    H245117   3.982   2.761   3.604 -1.2726  0.5534 -1.1687
 7876TIP3   OH245118   3.083   6.190  16.222 -0.1341 -0.0184  0.0390
 7876TIP3    H145119   3.034   6.272  16.228 -1.2990 -0.7315  0.5207
 7876TIP3    H245120   3.056   6.140  16.299  3.4348  0.6393  1.8438
 7877TIP3   OH245121   6.184   4.810   4.688  0.0535 -0.2701 -0.1230
 7877TIP3    H145122   6.182   4.746   4.617  0.0455 -0.6659  0.2327
 7877TIP3    H245123   6.177   4.895   4.644  1.2996 -0.4458 -0.6803
 7878TIP3   OH245124   4.539   3.398   0.691 -0.4455  0.0025  0.4095
 7878TIP3    H145125   4.447   3.398   0.718 -0.4118  1.2399  0.5490
 7878TIP3    H245126   4.585   3.353   0.762 -1.1522 -2.2112 -0.4833
 7879TIP3   OH245127   5.925   2.654  14.892 -0.2855 -0.1517 -0.2819
 7879TIP3    H145128   5.850   2.603  14.922 -0.4535 -0.2051 -0.7832
 7879TIP3    H245129   5.952   2.611  14.810 -0.6339  0.7604 -0.8811
 7880TIP3   OH245130   4.668   1.892   2.304 -0.2396  0.1094 -0.2813
 7880TIP3    H145131   4.704   1.857   2.223  1.1956  2.1836 -0.5822
 7880TIP3    H245132   4.705   1.836   2.373 -0.0706 -0.5848 -0.9326
 7881TIP3   OH245133   3.281   4.570   6.507 -0.7067  0.1884 -0.1255
 7881TIP3    H145134   3.247   4.648   6.550 -0.1799 -0.2380  1.0852
 7881TIP3    H245135   3.367   4.556   6.546 -0.5426 -0.6407 -0.7722
 7882TIP3   OH245136   1.989   0.802  12.774  0.6587  0.7228 -0.1839
 7882TIP3    H145137   1.982   0.847  12.858 -0.3866  0.6508 -0.2260
 7882TIP3    H245138   2.081   0.810  12.750  1.3304 -0.7814  1.8112
 7883TIP3   OH245139   4.890   2.806  16.876  0.1066  0.1170  0.2756
 7883TIP3    H145140   4.886   2.896  16.908  1.1357  1.3818 -2.9857
 7883TIP3    H245141   4.900   2.753  16.955 -0.6691  2.8306  2.2677
 7884TIP3   OH245142   6.719   1.096  14.173 -0.5009  0.6797 -0.2024
 7884TIP3    H145143   6.636   1.053  14.154 -0.9754  1.6753 -0.4030
 7884TIP3    H245144   6.761   1.105  14.087  0.2451 -0.6935  0.0152
 7885TIP3   OH245145   1.862   6.262  15.135  0.5105  0.5083 -0.3493
 7885TIP3    H145146   1.768   6.280  15.134  0.3465 -0.3052  0.0671
 7885TIP3    H245147   1.870   6.175  15.096  0.6330 -1.4596  3.8223
 7886TIP3   OH245148   1.368   4.851  15.987  0.4316 -0.0829 -0.3034
 7886TIP3    H145149   1.396   4.783  16.049 -2.5465 -0.4060  0.7838
 7886TIP3    H245150   1.311   4.804  15.926  0.8232  0.8663 -1.4014
 7887TIP3   OH245151   4.046   2.770  15.773  0.1158 -0.1570 -0.2171
 7887TIP3    H145152   3.999   2.693  15.806 -0.3084  0.2798  0.2077
 7887TIP3    H245153   4.136   2.741  15.763  0.0355 -0.5942  0.3357
 7888TIP3   OH245154   3.323   0.210  12.008  0.7405 -0.8220 -0.5579
 7888TIP3    H145155   3.236   0.173  12.020  0.7377 -1.3580 -2.0994
 7888TIP3    H245156   3.324   0.289  12.062 -0.7943 -0.6503 -0.7778
 7889TIP3   OH245157   0.543   3.983  15.787 -0.1108 -0.0172  0.2361
 7889TIP3    H145158   0.535   3.889  15.803 -0.5464 -0.1030 -0.4230
 7889TIP3    H245159   0.524   4.024  15.871  3.1385 -0.6065  1.3332
 7890TIP3   OH245160   5.521   4.366   4.882  0.7910 -0.0257  0.0608
 7890TIP3    H145161   5.507   4.442   4.826  0.8374 -0.8237 -1.0576
 7890TIP3    H245162   5.440   4.359   4.932 -1.0243 -1.7760 -2.9552
 7891TIP3   OH245163   2.590   4.499  13.859  0.3345 -0.1098 -0.3839
 7891TIP3    H145164   2.543   4.454  13.789 -0.0993 -0.5981  0.2182
 7891TIP3    H245165   2.682   4.496  13.832  0.0242  0.9629 -1.6294
 7892TIP3   OH245166   2.854   4.891  11.525 -0.1383  0.1347  0.1242
 7892TIP3    H145167   2.784   4.954  11.542 -0.1727  0.1693 -0.1506
 7892TIP3    H245168   2.843   4.824  11.593  0.2613  0.7285  0.7851
 7893TIP3   OH245169   5.947   3.543   5.035  0.5759  0.6829  0.2621
 7893TIP3    H145170   6.043   3.535   5.029  0.5562  1.6368 -2.1352
 7893TIP3    H245171   5.914   3.465   4.990  0.2394  0.6558  0.5585
 7894TIP3   OH245172   6.171   1.139  14.606 -0.2011  0.4523  0.2144
 7894TIP3    H145173   6.176   1.127  14.511  1.0971  0.0930  0.3077
 7894TIP3    H245174   6.145   1.230  14.618 -1.4005  0.2129 -0.4844
 7895TIP3   OH245175   5.563   5.875  13.388 -0.3726 -0.6538 -0.1511
 7895TIP3    H145176   5.484   5.857  13.336  0.7811 -0.7815 -1.9046
 7895TIP3    H245177   5.625   5.910  13.325  0.1097  1.9610  1.7387
 7896TIP3   OH245178   3.877   4.395  15.757 -0.9181  0.5165 -0.2812
 7896TIP3    H145179   3.895   4.476  15.709 -1.7671  1.4369  0.9299
 7896TIP3    H245180   3.821   4.422  15.829  1.8535 -0.4810  2.3712
 7897TIP3   OH245181   2.125   4.657   0.771 -0.0964  0.1204  0.1248
 7897TIP3    H145182   2.151   4.565   0.768 -2.3599 -0.4948 -2.2003
 7897TIP3    H245183   2.149   4.692   0.685 -0.8912  1.2133  0.3283
 7898TIP3   OH245184   5.113   1.296   1.624 -0.1479 -0.2396  0.2884
 7898TIP3    H145185   5.184   1.233   1.639  1.8737  2.2983  1.8114
 7898TIP3    H245186   5.157   1.376   1.596 -2.4442  1.3026  0.9437
 7899TIP3   OH245187   4.043   6.385   0.882  0.2966 -0.0479 -0.2505
 7899TIP3    H145188   3.986   6.453   0.847 -1.4300 -0.0862  2.3415
 7899TIP3    H245189   4.126   6.430   0.900  0.1395  0.6809 -1.3299
 7900TIP3   OH245190   4.104   0.595   4.699  0.7048  0.0344  0.5525
 7900TIP3    H145191   4.068   0.563   4.616 -0.2092 -0.7419  1.2389
 7900TIP3    H245192   4.047   0.668   4.722 -0.4686 -1.1767  1.6231
 7901TIP3   OH245193   6.385   1.982   2.392 -0.2091 -0.5474 -0.7564
 7901TIP3    H145194   6.405   2.060   2.340 -0.1953  0.5305  0.8321
 7901TIP3    H245195   6.471   1.950   2.420 -0.2694 -0.6356 -0.6743
 7902TIP3   OH245196   1.460   6.661   3.803 -0.0639  0.6045  0.1581
 7902TIP3    H145197   1.471   6.573   3.839  0.8332  0.3323 -0.7758
 7902TIP3    H245198   1.370   6.685   3.826 -0.3542 -0.5980  0.3092
 7903TIP3   OH245199   5.885   4.516  17.292  0.3328  0.1662 -0.3044
 7903TIP3    H145200   5.868   4.424  17.312  3.5536 -0.8477 -1.9637
 7903TIP3    H245201   5.879   4.520  17.196  1.6818  1.3640 -0.3369
 7904TIP3   OH245202   6.663   6.728  11.296  0.2331 -0.1573 -0.0428
 7904TIP3    H145203   6.754   6.740  11.323  0.2370 -0.0866 -0.0854
 7904TIP3    H245204   6.620   6.812  11.315  0.3351  0.0322 -0.6392
 7905TIP3   OH245205   5.613   3.083   3.191 -0.5449 -0.3885 -0.6547
 7905TIP3    H145206   5.675   3.067   3.120  1.7907 -0.0932  1.2624
 7905TIP3    H245207   5.601   2.998   3.233  0.0581 -0.0828  0.1508
 7906TIP3   OH245208   5.833   6.541   3.442  0.0511 -0.3681 -0.1846
 7906TIP3    H145209   5.797   6.526   3.529  1.1930  0.4684  0.4534
 7906TIP3    H245210   5.782   6.484   3.384 -1.5362 -0.0122  0.8342
 7907TIP3   OH245211   2.674   3.381   3.374 -0.0880 -0.4752  0.0891
 7907TIP3    H145212   2.712   3.463   3.406 -0.5865 -0.0590 -0.3833
 7907TIP3    H245213   2.699   3.378   3.281  1.2368 -1.6059  0.4709
 7908TIP3   OH245214   2.168   3.199  13.343  0.4433  0.1540 -0.1457
 7908TIP3    H145215   2.195   3.284  13.306 -0.3877 -0.3018 -1.8891
 7908TIP3    H245216   2.231   3.136  13.307  1.9982  0.2210  2.3866
 7909TIP3   OH245217   0.480   3.793   3.153  0.2028 -0.8597 -0.2300
 7909TIP3    H145218   0.426   3.866   3.123  1.9771  0.5158 -0.1885
 7909TIP3    H245219   0.451   3.777   3.243  1.6281  1.6602  0.7345
 7910TIP3   OH245220   2.539   6.533   1.850  0.1079 -0.2012  0.7123
 7910TIP3    H145221   2.463   6.590   1.859 -1.6689 -2.1872 -1.1837
 7910TIP3    H245222   2.504   6.444   1.859  1.9551 -1.2041 -1.4365
 7911TIP3   OH245223   1.911   6.337  10.499 -0.6737  0.0170 -0.2579
 7911TIP3    H145224   1.894   6.332  10.593 -0.2773  1.1535 -0.1148
 7911TIP3    H245225   1.905   6.246  10.468 -0.5035 -0.3999  0.9125
 7912TIP3   OH245226   5.262   0.230   1.594 -0.1550  0.1040  0.3713
 7912TIP3    H145227   5.260   0.135   1.607  0.6587  0.0038 -0.2009
 7912TIP3    H245228   5.355   0.252   1.591 -0.3250  1.3225  3.2283
 7913TIP3   OH245229   1.964   5.912  16.564 -0.3298 -0.1377  0.0119
 7913TIP3    H145230   2.007   5.894  16.480  1.1231 -0.9606  0.9316
 7913TIP3    H245231   2.028   5.963  16.613 -1.4837  1.0154  0.3438
 7914TIP3   OH245232   3.994   1.889   0.216 -0.1867  0.1220 -0.0124
 7914TIP3    H145233   4.076   1.862   0.173 -0.9205 -1.4146 -0.4885
 7914TIP3    H245234   3.973   1.816   0.274 -2.3089 -0.4049 -1.4226
 7915TIP3   OH245235   0.839   4.900   5.390  0.3435 -0.3205  0.0617
 7915TIP3    H145236   0.861   4.901   5.297 -0.9310 -1.2358 -0.2548
 7915TIP3    H245237   0.819   4.991   5.410 -0.8656 -0.3578 -0.9223
 7916TIP3   OH245238   3.858   6.762  14.661 -0.2958  0.4554  0.0843
 7916TIP3    H145239   3.780   6.816  14.671 -0.2486  0.6355 -0.4872
 7916TIP3    H245240   3.843   6.687  14.719 -0.2939  1.1470  0.9939
 7917TIP3   OH245241   1.232   5.693  10.654 -0.1783  0.1403  0.6931
 7917TIP3    H145242   1.298   5.644  10.604  0.2390 -0.5013  1.8504
 7917TIP3    H245243   1.184   5.743  10.588  0.6206 -0.3899 -0.3035
 7918TIP3   OH245244   1.203   3.762   2.038 -0.0720 -0.5008 -0.3232
 7918TIP3    H145245   1.228   3.852   2.056 -3.3402  0.0963  1.5613
 7918TIP3    H245246   1.209   3.753   1.943 -0.8030  2.0205 -0.6363
 7919TIP3   OH245247   2.904   4.337  16.916  0.8401  0.6016  0.2006
 7919TIP3    H145248   2.889   4.305  16.827  0.2247  1.3554  0.0227
 7919TIP3    H245249   2.909   4.258  16.970 -1.3927  0.2039 -0.1280
 7920TIP3   OH245250   3.324   0.795   2.887 -0.4501 -0.5065 -0.5026
 7920TIP3    H145251   3.411   0.814   2.922 -0.7118 -1.4124  0.6559
 7920TIP3    H245252   3.281   0.881   2.883  0.7321  0.0327 -1.7462
 7921TIP3   OH245253   3.769   4.146  16.560 -0.2921 -0.0450 -0.2112
 7921TIP3    H145254   3.695   4.109  16.608  1.6333 -0.5955  2.3959
 7921TIP3    H245255   3.822   4.070  16.535  0.1227  0.4459 -0.8419
 7922TIP3   OH245256   4.259   4.536   3.550  0.0025  0.0728 -0.2460
 7922TIP3    H145257   4.211   4.465   3.594 -0.7910  0.5878 -0.2678
 7922TIP3    H245258   4.193   4.605   3.538  0.6224  0.5740 -0.7712
 7923TIP3   OH245259   3.085   1.693   1.453  0.1260  0.1781 -0.3665
 7923TIP3    H145260   3.003   1.735   1.429 -0.3512 -0.2067  0.5596
 7923TIP3    H245261   3.075   1.602   1.427  0.6340  0.3312 -1.1201
 7924TIP3   OH245262   1.615   6.201  14.978 -0.0012  0.0491  0.1569
 7924TIP3    H145263   1.610   6.105  14.981 -1.5202  0.0868 -0.5393
 7924TIP3    H245264   1.572   6.229  15.060 -0.7250  0.1524 -0.2539
 7925TIP3   OH245265   3.952   5.003   3.654  0.4720 -0.5694 -0.4541
 7925TIP3    H145266   3.866   4.991   3.613  0.4375  0.2597 -0.6386
 7925TIP3    H245267   4.003   4.928   3.624  0.6565  0.3787 -2.5760
 7926TIP3   OH245268   1.325   5.503   0.236 -0.2225 -0.2029 -0.4190
 7926TIP3    H145269   1.260   5.560   0.194  1.0671  1.6965  0.0927
 7926TIP3    H245270   1.353   5.444   0.167  1.2270  2.3087 -2.0480
 7927TIP3   OH245271   1.567   3.833  13.589  0.4867 -0.0216  0.4218
 7927TIP3    H145272   1.478   3.804  13.571  0.3466  1.1983 -0.9249
 7927TIP3    H245273   1.571   3.841  13.685 -1.1287  0.8497  0.4272
 7928TIP3   OH245274   1.927   5.565  13.211  0.2000  0.0275 -0.1213
 7928TIP3    H145275   1.944   5.659  13.220 -1.5785  0.6932 -3.0748
 7928TIP3    H245276   1.833   5.559  13.192  0.2899 -2.3565  0.0363
 7929TIP3   OH245277   2.781   1.902   6.483 -0.2353  0.4400 -0.3479
 7929TIP3    H145278   2.781   1.822   6.537  0.4965  1.9073  1.8867
 7929TIP3    H245279   2.871   1.935   6.490 -0.8434  2.0914 -0.2616
 7930TIP3   OH245280   2.242   1.187  13.614  0.3227  0.2576 -0.2127
 7930TIP3    H145281   2.281   1.273  13.599  0.8828 -0.5488 -3.8516
 7930TIP3    H245282   2.309   1.138  13.662  1.8454  0.4418 -2.1212
 7931TIP3   OH245283   2.294   6.225  13.156 -0.1231  0.0991  0.1363
 7931TIP3    H145284   2.207   6.202  13.126 -0.0856 -1.3367  1.1054
 7931TIP3    H245285   2.351   6.206  13.081 -0.6131  0.9707 -0.4727
 7932TIP3   OH245286   3.452   2.367  16.025  0.2016  0.4448 -0.3892
 7932TIP3    H145287   3.492   2.303  15.966  0.4868  1.0973 -0.9247
 7932TIP3    H245288   3.467   2.451  15.981 -1.1593  0.7663 -0.2609
 7933TIP3   OH245289   3.206   6.047   1.976  0.6206  0.6146  0.0951
 7933TIP3    H145290   3.156   6.127   1.992  0.6515  0.5150  0.7079
 7933TIP3    H245291   3.282   6.075   1.925  0.3474  0.8910 -0.1547
 7934TIP3   OH245292   6.038   2.090   6.178 -0.0911  0.1620  0.5050
 7934TIP3    H145293   5.980   2.077   6.103 -0.2418  0.0913  0.6345
 7934TIP3    H245294   6.075   2.004   6.195 -0.2633  0.1236  0.6822
 7935TIP3   OH245295   2.866   1.663  15.991  0.1243 -0.7038 -0.1794
 7935TIP3    H145296   2.862   1.727  16.062 -1.2698 -0.0249 -0.8529
 7935TIP3    H245297   2.831   1.582  16.029 -0.2373 -0.4557  0.0127
 7936TIP3   OH245298   2.758   4.601   2.398  0.3240 -0.1330  0.2885
 7936TIP3    H145299   2.747   4.594   2.304 -0.3179  4.0768 -0.0487
 7936TIP3    H245300   2.832   4.661   2.409 -0.1161  0.0601  2.4392
 7937TIP3   OH245301   0.426   2.227   0.053 -0.4985 -0.0890 -0.5737
 7937TIP3    H145302   0.340   2.269   0.055 -0.8893 -0.9066  0.6394
 7937TIP3    H245303   0.409   2.140   0.019 -0.6454 -1.2595  2.3483
 7938TIP3   OH245304   2.406   1.412   3.535 -0.4509  0.1154 -0.8336
 7938TIP3    H145305   2.387   1.399   3.627  1.4008 -0.2618 -0.4787
 7938TIP3    H245306   2.344   1.355   3.489 -1.1692  0.0682  0.1845
 7939TIP3   OH245307   4.163   5.450  15.207  0.2587 -0.1060  0.0491
 7939TIP3    H145308   4.217   5.431  15.284  1.1916  0.4550 -0.4460
 7939TIP3    H245309   4.128   5.537  15.224  1.0409  0.3191 -0.4640
 7940TIP3   OH245310   3.025   1.876   2.502  0.9773  0.6422  0.5660
 7940TIP3    H145311   3.082   1.934   2.553  0.1954  1.8902  0.0553
 7940TIP3    H245312   2.984   1.934   2.438  0.9796 -0.6837 -0.6440
 7941TIP3   OH245313   2.738   5.982  16.887  0.1232  0.2532 -1.3073
 7941TIP3    H145314   2.683   5.938  16.821 -0.2081 -1.3582  0.0189
 7941TIP3    H245315   2.735   5.925  16.963  0.7642  1.9380  0.0262
 7942TIP3   OH245316   4.099   1.469  13.241  0.1583  0.1339  0.1060
 7942TIP3    H145317   4.146   1.444  13.161 -0.3677  0.6184 -0.3614
 7942TIP3    H245318   4.162   1.521  13.291 -0.1489  1.4719 -0.8901
 7943TIP3   OH245319   5.145   5.967  16.266 -0.1077  0.0862  0.5654
 7943TIP3    H145320   5.089   5.970  16.343 -0.5226 -0.0782  0.2679
 7943TIP3    H245321   5.130   6.051  16.223 -2.5066 -1.1929 -1.1940
 7944TIP3   OH245322   0.831   0.855   5.121 -0.1015 -0.2873 -0.1246
 7944TIP3    H145323   0.816   0.825   5.211  0.3069 -1.3067 -0.3876
 7944TIP3    H245324   0.754   0.827   5.073 -1.2169  1.9267  0.2740
 7945TIP3   OH245325   2.888   3.279  16.327 -0.6225  0.6587 -0.2697
 7945TIP3    H145326   2.877   3.218  16.254  1.0942  1.4673 -1.2309
 7945TIP3    H245327   2.908   3.363  16.285 -0.3571  1.2938  1.1119
 7946TIP3   OH245328   0.195   2.174   4.064  0.3152 -0.4047  0.3692
 7946TIP3    H145329   0.116   2.228   4.056  0.9874  0.5672  0.1871
 7946TIP3    H245330   0.162   2.085   4.077 -0.8086  0.1630  1.5084
 7947TIP3   OH245331   1.374   2.771   1.639  0.0354 -0.2940  0.2582
 7947TIP3    H145332   1.468   2.759   1.646 -0.0045 -1.1548 -0.5521
 7947TIP3    H245333   1.362   2.827   1.562 -0.0814  0.4791  0.8263
 7948TIP3   OH245334   2.392   0.849   1.053  0.2856 -0.1541  0.3701
 7948TIP3    H145335   2.308   0.895   1.048 -0.6600 -1.8021  0.7296
 7948TIP3    H245336   2.369   0.760   1.079  2.3464 -0.0272  2.8286
 7949TIP3   OH245337   6.498   1.369  15.482  0.2340  0.5768 -0.1819
 7949TIP3    H145338   6.486   1.397  15.392  1.4327  0.0809 -0.4946
 7949TIP3    H245339   6.569   1.305  15.479  1.2610  1.6204  1.3115
 7950TIP3   OH245340   1.119   6.210  16.533  0.0184 -0.1110 -0.0425
 7950TIP3    H145341   1.090   6.123  16.562  0.1408  0.3320  1.4534
 7950TIP3    H245342   1.089   6.216  16.443 -2.1872 -0.7402  0.6198
 7951TIP3   OH245343   3.522   4.907  13.296 -0.0352  0.5383  0.4667
 7951TIP3    H145344   3.520   4.954  13.380 -0.4181  1.3646 -0.0016
 7951TIP3    H245345   3.435   4.921  13.258 -0.2237 -0.7363  0.4205
 7952TIP3   OH245346   5.024   2.922   0.840  0.0047  0.3181  0.5452
 7952TIP3    H145347   5.047   2.903   0.749 -0.8197  1.1749  0.1493
 7952TIP3    H245348   4.975   2.845   0.868 -0.7508  0.5549 -0.1074
 7953TIP3   OH245349   2.778   6.745  11.862 -0.0999 -0.4536  0.3829
 7953TIP3    H145350   2.694   6.789  11.851 -0.0676 -0.4667  0.0805
 7953TIP3    H245351   2.799   6.757  11.955  0.3050  0.8817  0.1264
 7954TIP3   OH245352   6.232   4.058   5.271  0.3358  0.7411  0.2600
 7954TIP3    H145353   6.289   4.112   5.327  0.9137 -1.3782  1.7858
 7954TIP3    H245354   6.195   3.992   5.330 -0.3985 -0.5130 -1.5384
 7955TIP3   OH245355   3.906   0.905   0.335 -0.3205  0.5591 -0.1401
 7955TIP3    H145356   3.946   0.828   0.375  0.3231  0.9870  0.0415
 7955TIP3    H245357   3.815   0.903   0.364 -0.1964  0.1010  0.2126
 7956TIP3   OH245358   0.215   1.060  13.603  0.4710 -0.4221  0.0503
 7956TIP3    H145359   0.283   1.008  13.646 -1.0584 -1.5609  1.1427
 7956TIP3    H245360   0.144   0.998  13.587 -1.3308  1.2985  1.2538
 7957TIP3   OH245361   5.304   4.481  16.732 -0.1506  0.1974  0.5954
 7957TIP3    H145362   5.237   4.420  16.704  0.4204 -0.5171  0.7732
 7957TIP3    H245363   5.334   4.447  16.816 -0.9863  1.6411  1.4976
 7958TIP3   OH245364   1.114   3.035   2.846  0.2781 -0.0431 -0.0522
 7958TIP3    H145365   1.194   3.057   2.894  1.4521  0.2740 -2.0825
 7958TIP3    H245366   1.142   2.971   2.781 -1.0987  0.1635 -0.8738
 7959TIP3   OH245367   5.087   1.858   3.608 -0.3271  0.1449 -0.9319
 7959TIP3    H145368   5.054   1.940   3.646 -0.1902 -0.3707  0.3169
 7959TIP3    H245369   5.027   1.839   3.537 -1.4190  0.3979 -0.0987
 7960TIP3   OH245370   4.800   0.166   1.014 -0.5033 -0.0515 -0.4494
 7960TIP3    H145371   4.803   0.253   1.053  1.8087 -0.3615  0.1194
 7960TIP3    H245372   4.855   0.174   0.935 -1.6740 -0.5546 -1.3274
 7961TIP3   OH245373   4.990   0.804   0.804 -0.2236  0.3841  0.0441
 7961TIP3    H145374   5.081   0.795   0.833 -0.1594  2.9252  0.7464
 7961TIP3    H245375   4.995   0.855   0.724 -0.9718 -0.3514 -0.4807
 7962TIP3   OH245376   2.892   5.432   1.786  0.6422 -0.0548 -0.2542
 7962TIP3    H145377   2.896   5.348   1.739 -0.9441 -1.5483  2.1336
 7962TIP3    H245378   2.981   5.466   1.782  1.8934 -3.0374  0.7308
 7963TIP3   OH245379   0.383   1.705   5.558 -0.1344  0.0579  0.2403
 7963TIP3    H145380   0.317   1.640   5.580 -1.8068  0.4943 -3.1550
 7963TIP3    H245381   0.465   1.668   5.593 -1.5937 -2.1608  1.4483
 7964TIP3   OH245382   4.714   4.977  12.542 -0.1350 -0.4984 -0.3623
 7964TIP3    H145383   4.770   5.039  12.495 -1.7473  0.6688 -0.7780
 7964TIP3    H245384   4.680   4.919  12.474 -0.0079 -0.7501 -0.2112
 7965TIP3   OH245385   1.348   6.440   2.542  0.6147 -0.6130  0.1323
 7965TIP3    H145386   1.440   6.421   2.528  1.0473  0.3058  1.6722
 7965TIP3    H245387   1.347   6.519   2.596 -1.0808  0.0355 -0.7886
 7966TIP3   OH245388   3.653   3.918   2.206 -0.6798  0.1668 -0.1142
 7966TIP3    H145389   3.743   3.900   2.232 -1.1203 -1.7965  0.0783
 7966TIP3    H245390   3.661   3.985   2.138  1.0307 -1.1246 -1.2279
 7967TIP3   OH245391   4.843   4.518  17.249 -0.7746  0.3708  0.4532
 7967TIP3    H145392   4.793   4.584  17.204  0.1181  0.8310  0.1217
 7967TIP3    H245393   4.869   4.559  17.332  1.3138  1.1153 -0.5249
 7968TIP3   OH245394   1.827   6.198  16.061 -0.0430  0.1377 -0.1646
 7968TIP3    H145395   1.793   6.121  16.016 -0.4399  1.2149 -1.7406
 7968TIP3    H245396   1.770   6.270  16.035  1.2575  1.2784  0.0333
 7969TIP3   OH245397   6.150   2.957   2.108 -0.0356  0.1114 -0.0348
 7969TIP3    H145398   6.087   2.890   2.135  0.8200 -0.7857 -0.2478
 7969TIP3    H245399   6.098   3.018   2.056 -1.1251  0.4173  1.3845
 7970TIP3   OH245400   5.889   3.686  14.298 -0.6518  0.0565 -0.0319
 7970TIP3    H145401   5.922   3.628  14.365 -1.4647 -1.7385 -1.1504
 7970TIP3    H245402   5.794   3.680  14.305 -0.7435  0.1373 -1.0943
 7971TIP3   OH245403   0.867   0.886   1.895 -0.1454  0.0130 -0.4452
 7971TIP3    H145404   0.940   0.838   1.936 -2.3493 -1.5316  1.8321
 7971TIP3    H245405   0.812   0.817   1.857 -0.0969  1.2100 -2.7724
 7972TIP3   OH245406   6.127   4.628   0.909  0.3172 -0.8808  0.0525
 7972TIP3    H145407   6.064   4.587   0.968 -0.3476  0.1583  0.0627
 7972TIP3    H245408   6.106   4.592   0.822  0.9375 -1.9788  0.3442
 7973TIP3   OH245409   6.706   2.352  15.084 -0.0032  0.0821 -0.0344
 7973TIP3    H145410   6.726   2.429  15.031  0.5537  0.4316  0.6677
 7973TIP3    H245411   6.610   2.345  15.081 -0.0775  0.9271  0.0656
 7974TIP3   OH245412   4.304   4.678   3.116  0.5585  0.8688  0.7929
 7974TIP3    H145413   4.321   4.766   3.083 -1.4043  1.5118  1.4127
 7974TIP3    H245414   4.374   4.663   3.180  1.0803  1.8461  0.4690
 7975TIP3   OH245415   2.661   0.848   0.753 -0.0461 -0.5943 -0.0123
 7975TIP3    H145416   2.752   0.824   0.733 -0.2493 -1.0916 -0.3460
 7975TIP3    H245417   2.651   0.825   0.846 -0.3933 -2.3021 -0.4602
 7976TIP3   OH245418   0.308   3.530  11.652  0.5531  0.0744  0.2951
 7976TIP3    H145419   0.375   3.588  11.688  0.9483 -1.2467  1.7236
 7976TIP3    H245420   0.227   3.558  11.694  0.6528 -0.0615  0.5779
 7977TIP3   OH245421   5.313   6.714  15.959  0.2121  0.6769  0.7576
 7977TIP3    H145422   5.347   6.797  15.993  2.3140  0.9846 -1.9117
 7977TIP3    H245423   5.230   6.736  15.918  0.0930  1.2021  1.2801
 7978TIP3   OH245424   1.805   0.661   3.223 -0.2062 -0.2742 -0.5887
 7978TIP3    H145425   1.816   0.721   3.297 -0.7100  1.3878 -1.8292
 7978TIP3    H245426   1.887   0.612   3.220  0.1121  0.1633  0.5964
 7979TIP3   OH245427   4.695   1.135   5.852  0.0995 -0.2229 -0.4265
 7979TIP3    H145428   4.619   1.079   5.867 -0.8029  0.9901 -0.4695
 7979TIP3    H245429   4.665   1.223   5.872  1.6363  0.2194  0.0519
 7980TIP3   OH245430   5.387   2.594  14.039  0.3569  0.0920  0.0861
 7980TIP3    H145431   5.462   2.590  13.980  1.6333 -0.6699  1.7392
 7980TIP3    H245432   5.318   2.546  13.993  0.7129  1.1496 -1.6185
 7981TIP3   OH245433   1.211   3.582   1.426 -0.2975  0.2103 -0.0442
 7981TIP3    H145434   1.272   3.536   1.369  0.5026  0.7460  0.3803
 7981TIP3    H245435   1.173   3.650   1.371  0.4448  0.6998  0.0429
 7982TIP3   OH245436   5.083   2.678  12.571  0.4231  0.4466 -0.2882
 7982TIP3    H145437   5.114   2.763  12.605 -0.3772  0.3192  0.7843
 7982TIP3    H245438   5.058   2.629  12.649 -1.5837  0.1860 -1.0580
 7983TIP3   OH245439   5.658   2.205   2.370 -0.1765 -0.2262 -0.0510
 7983TIP3    H145440   5.699   2.190   2.285 -1.1396  0.8170 -0.7141
 7983TIP3    H245441   5.726   2.249   2.421  0.8351 -1.9697  0.1557
 7984TIP3   OH245442   1.081   5.936   5.056  0.2102 -0.1696 -0.0097
 7984TIP3    H145443   1.060   5.856   5.104  1.9904 -0.6338  0.0203
 7984TIP3    H245444   1.121   5.993   5.122  0.2210  0.2178 -0.3521
 7985TIP3   OH245445   0.799   1.101  14.492  0.2005 -0.3647 -0.6202
 7985TIP3    H145446   0.810   1.054  14.409  1.7781 -1.2370  0.0679
 7985TIP3    H245447   0.822   1.192  14.472 -2.9568  0.2026 -1.9872
 7986TIP3   OH245448   5.439   1.672   6.289 -0.1609 -0.7547 -0.0510
 7986TIP3    H145449   5.525   1.701   6.317  0.6044  0.0041 -2.9647
 7986TIP3    H245450   5.378   1.712   6.350  1.4462  0.0293  1.0601
 7987TIP3   OH245451   5.711   5.975   0.170  0.6131 -0.6887  0.1891
 7987TIP3    H145452   5.626   5.931   0.174  0.1654  0.1255 -0.3939
 7987TIP3    H245453   5.719   6.019   0.255  0.9572 -1.6978  0.6825
 7988TIP3   OH245454   5.923   1.447  13.400  0.2924  0.2508  0.5706
 7988TIP3    H145455   5.899   1.416  13.488  0.4330  0.6646  0.7573
 7988TIP3    H245456   5.849   1.423  13.345  0.1349  0.1284  0.8334
 7989TIP3   OH245457   5.318   3.032  12.854  0.2000  0.8274  0.7579
 7989TIP3    H145458   5.362   3.116  12.871  0.5322  0.7379  0.3534
 7989TIP3    H245459   5.389   2.968  12.853 -0.1569  0.4184  1.9278
 7990TIP3   OH245460   3.804   3.860  12.422  0.0446 -0.2712  0.1048
 7990TIP3    H145461   3.793   3.775  12.379  1.0879  0.0341 -0.8124
 7990TIP3    H245462   3.851   3.841  12.502 -1.1100 -0.7437  0.6731
 7991TIP3   OH245463   4.501   6.115   0.768  0.3794 -0.2250 -0.1049
 7991TIP3    H145464   4.546   6.158   0.841  0.9315 -0.4175 -0.3263
 7991TIP3    H245465   4.555   6.039   0.748 -0.1780 -0.5929 -0.2220
 7992TIP3   OH245466   0.599   3.674  13.361  0.1727  0.4235  0.4961
 7992TIP3    H145467   0.543   3.611  13.314  0.2195  1.2878 -0.7409
 7992TIP3    H245468   0.550   3.695  13.440 -0.4112 -0.2192  0.3150
 7993TIP3   OH245469   0.019   3.341  14.547  0.5033  0.6077  0.0759
 7993TIP3    H145470  -0.076   3.327  14.551  0.7245 -0.4075  2.8277
 7993TIP3    H245471   0.056   3.253  14.556  1.7145  1.0981 -0.0831
 7994TIP3   OH245472   4.607   0.039   0.593  0.2630 -0.9053  0.1075
 7994TIP3    H145473   4.670  -0.033   0.602  2.5527  1.0595  0.4097
 7994TIP3    H245474   4.650   0.101   0.535 -1.6751  0.2282 -0.1426
 7995TIP3   OH245475   2.405   3.786   6.707  0.2385 -0.0590  0.3121
 7995TIP3    H145476   2.470   3.736   6.659 -0.4002 -0.3051 -0.3054
 7995TIP3    H245477   2.452   3.863   6.740  1.4701 -1.5465  2.1274
 7996TIP3   OH245478   5.041   6.237   0.795 -0.2838 -0.8562 -0.1118
 7996TIP3    H145479   5.136   6.246   0.807 -0.2341 -0.9635 -0.4262
 7996TIP3    H245480   5.027   6.143   0.785 -0.2577 -0.7300 -1.4186
 7997TIP3   OH245481   2.605   2.006  14.297  0.2027  0.0287  0.1362
 7997TIP3    H145482   2.580   1.966  14.380 -0.7556  0.0080 -0.1592
 7997TIP3    H245483   2.700   2.017  14.303  0.4776 -2.1858  0.2669
 7998TIP3   OH245484   1.942   6.211  16.905 -0.3919  0.3241 -0.1483
 7998TIP3    H145485   1.985   6.163  16.834 -0.3190  0.9493 -0.5375
 7998TIP3    H245486   1.877   6.150  16.940 -0.2486 -0.0841 -0.5836
 7999TIP3   OH245487   5.742   1.253   4.770  0.1260  0.2170  0.1041
 7999TIP3    H145488   5.655   1.220   4.795  0.8280 -0.3595  1.8938
 7999TIP3    H245489   5.732   1.348   4.768 -0.5314  0.1564  0.4068
 8000TIP3   OH245490   2.881   1.796   3.338  0.1777 -0.2695  0.2436
 8000TIP3    H145491   2.957   1.854   3.334 -0.5612  0.6527 -0.5750
 8000TIP3    H245492   2.918   1.709   3.351  1.3731  0.1809 -0.0809
 8001TIP3   OH245493   2.500   6.366   2.765 -0.3630 -0.1414  0.2900
 8001TIP3    H145494   2.542   6.435   2.714  1.7214 -0.8297  0.9983
 8001TIP3    H245495   2.530   6.381   2.855 -0.2311 -1.6779  0.5186
 8002TIP3   OH245496   0.230   2.960   0.838 -0.2245  0.4065  0.1882
 8002TIP3    H145497   0.137   2.969   0.817  0.3358  2.1430 -1.7046
 8002TIP3    H245498   0.255   3.046   0.872  0.8297  0.1377  0.1003
 8003TIP3   OH245499   5.676   5.002  11.922  0.2778  0.5097 -0.4848
 8003TIP3    H145500   5.625   5.021  12.001  2.1060  0.1961  0.8137
 8003TIP3    H245501   5.634   4.924  11.885 -0.7496  0.7994  0.0462
 8004TIP3   OH245502   4.328   2.484  14.748 -0.1984 -1.0663  0.0677
 8004TIP3    H145503   4.337   2.389  14.750  1.6222 -0.9221 -0.6980
 8004TIP3    H245504   4.381   2.512  14.673 -0.2451  0.5875  0.6299
 8005TIP3   OH245505   1.051   3.570  15.527 -0.7914 -0.3747  0.2702
 8005TIP3    H145506   1.003   3.575  15.444  1.8207  1.5292 -1.2195
 8005TIP3    H245507   1.119   3.504  15.511  1.2170  1.6842  0.0023
 8006TIP3   OH245508   6.669   3.308  14.101  0.3059  0.1442 -0.2566
 8006TIP3    H145509   6.594   3.332  14.156  0.6513 -0.0494  0.3077
 8006TIP3    H245510   6.725   3.385  14.103  0.3181  0.1375 -0.3362
 8007TIP3   OH245511   1.445   4.195   0.970  0.9299 -0.2946 -0.6230
 8007TIP3    H145512   1.517   4.216   1.029 -0.7712  0.0583  1.3943
 8007TIP3    H245513   1.454   4.101   0.954  0.7326 -0.6306  1.1610
 8008TIP3   OH245514   3.668   0.387  11.941  0.4379  0.0268  0.0660
 8008TIP3    H145515   3.677   0.373  12.035 -0.5962 -0.2035  0.1333
 8008TIP3    H245516   3.682   0.301  11.902 -0.0146 -0.0474  0.0689
 8009TIP3   OH245517   2.942   5.457   1.428 -0.0575  0.8310  0.1273
 8009TIP3    H145518   2.967   5.364   1.434 -0.9180  0.3459 -2.8185
 8009TIP3    H245519   3.011   5.496   1.374 -2.5957  0.6086 -3.5024
 8010TIP3   OH245520   3.709   2.802   3.173  0.3517 -0.0133  1.0280
 8010TIP3    H145521   3.708   2.896   3.193 -0.4320  0.3885 -0.7978
 8010TIP3    H245522   3.800   2.776   3.186  0.9626  1.4161 -0.1954
 8011TIP3   OH245523   2.182   4.099   1.513 -0.2785 -0.2803  0.1646
 8011TIP3    H145524   2.213   4.012   1.488 -0.8162 -0.2852 -0.5049
 8011TIP3    H245525   2.128   4.127   1.440  1.4917  1.4537 -0.5350
 8012TIP3   OH245526   0.014   3.999  13.832 -0.1323 -0.1164  0.4532
 8012TIP3    H145527   0.068   4.077  13.846  1.1251 -0.6758 -1.0593
 8012TIP3    H245528   0.016   3.953  13.916  0.0670  0.8939  1.0134
 8013TIP3   OH245529   2.793   6.281  12.476  0.1810  0.5346 -0.2587
 8013TIP3    H145530   2.757   6.212  12.531  0.3790 -0.6857 -1.6248
 8013TIP3    H245531   2.849   6.235  12.414  0.5907  1.9657 -0.9698
 8014TIP3   OH245532   3.064   0.803  14.916  0.5588 -0.3920 -0.1866
 8014TIP3    H145533   3.087   0.780  14.826  1.4063  1.1078 -0.3658
 8014TIP3    H245534   3.140   0.851  14.949 -1.0627  1.9543  0.2508
 8015TIP3   OH245535   4.828   6.487  11.488 -0.5150  0.0124 -0.4925
 8015TIP3    H145536   4.905   6.447  11.447 -1.5766 -1.5763 -1.0019
 8015TIP3    H245537   4.864   6.542  11.557  0.9639 -4.3348  2.4616
 8016TIP3   OH245538   6.597   5.066  12.524 -0.4521  0.3077  0.5078
 8016TIP3    H145539   6.620   4.983  12.482 -2.0243  0.7951 -1.4010
 8016TIP3    H245540   6.503   5.057  12.544 -0.6759  1.6974  0.1062
 8017TIP3   OH245541   6.120   2.124  12.591  0.2639 -0.2092  0.2016
 8017TIP3    H145542   6.095   2.206  12.549 -0.8132 -0.3208  0.6047
 8017TIP3    H245543   6.157   2.149  12.675  1.7027 -0.0301 -0.4751
 8018TIP3   OH245544   2.895   3.950  15.545 -0.1390  0.1541 -0.4196
 8018TIP3    H145545   2.801   3.965  15.535 -0.0460  1.4547  0.5064
 8018TIP3    H245546   2.936   4.009  15.482  0.0921  0.9292  0.4284
 8019TIP3   OH245547   3.110   4.735  13.828  0.8383  0.2603  0.5834
 8019TIP3    H145548   3.081   4.798  13.894  1.8016  0.3510  0.9177
 8019TIP3    H245549   3.036   4.730  13.767 -0.8231 -1.1593  2.6031
 8020TIP3   OH245550   6.198   2.514  13.875 -0.3113  0.4612  0.1607
 8020TIP3    H145551   6.259   2.460  13.926 -0.3955  0.4453  0.2457
 8020TIP3    H245552   6.164   2.456  13.808 -0.1188  0.5115  0.0194
 8021TIP3   OH245553   2.349   2.425   1.415  0.1558 -0.0409  0.8942
 8021TIP3    H145554   2.403   2.499   1.444  0.7761 -0.4295  0.7271
 8021TIP3    H245555   2.268   2.466   1.386  0.7989  0.6575  0.0412
 8022TIP3   OH245556   4.082   3.667  16.611  0.1076  0.5097 -0.3652
 8022TIP3    H145557   4.163   3.719  16.606  0.3303  0.1015 -1.0636
 8022TIP3    H245558   4.105   3.583  16.572 -0.9146  0.7255 -1.4643
 8023TIP3   OH245559   2.731   3.045  13.057  0.5099 -0.4900  0.0579
 8023TIP3    H145560   2.723   3.138  13.034  0.7684 -0.2726  0.8032
 8023TIP3    H245561   2.747   3.001  12.974  1.1442  0.2302 -0.2122
 8024TIP3   OH245562   4.424   3.005   4.314 -0.5406  0.1763 -0.1246
 8024TIP3    H145563   4.353   3.069   4.302 -1.0016 -0.2523  0.3081
 8024TIP3    H245564   4.441   3.006   4.408 -0.5940 -0.3850 -0.1097
 8025TIP3   OH245565   2.076   0.580  11.435 -0.2713  0.4260 -0.0431
 8025TIP3    H145566   2.034   0.598  11.351 -0.1409 -0.1842 -0.2427
 8025TIP3    H245567   2.037   0.498  11.465  2.1141 -1.1718 -1.1573
 8026TIP3   OH245568   1.635   4.076   3.513  0.0097 -0.0357 -0.5480
 8026TIP3    H145569   1.599   4.132   3.583  1.1437 -1.7152  1.4294
 8026TIP3    H245570   1.558   4.029   3.479 -0.3446 -0.3350  0.6303
 8027TIP3   OH245571   3.498   0.721   5.475  0.1847  0.0086 -0.5043
 8027TIP3    H145572   3.535   0.654   5.532 -0.4411 -0.7719 -1.0159
 8027TIP3    H245573   3.412   0.688   5.451  0.4001  0.3727 -1.8413
 8028TIP3   OH245574   2.166   2.495   5.530  0.1592  0.1262 -0.7110
 8028TIP3    H145575   2.246   2.466   5.574 -0.4003 -0.8432 -0.3174
 8028TIP3    H245576   2.112   2.416   5.524 -0.1806  0.4708 -2.2615
 8029TIP3   OH245577   6.713   2.061  10.704 -0.1854  0.3928  0.2664
 8029TIP3    H145578   6.686   2.042  10.794 -1.6001  0.5176 -0.1297
 8029TIP3    H245579   6.692   2.153  10.691  1.1936  0.7148  0.2154
 8030TIP3   OH245580   6.391   0.120   3.872  0.1994 -0.4209 -0.3345
 8030TIP3    H145581   6.317   0.066   3.899  0.2690 -0.7029 -0.7055
 8030TIP3    H245582   6.461   0.096   3.932 -0.1717  0.2597  0.3846
 8031TIP3   OH245583   5.410   4.267  15.912 -0.4841 -0.0545 -0.1402
 8031TIP3    H145584   5.449   4.238  15.994 -1.4620 -0.7257  0.0859
 8031TIP3    H245585   5.330   4.216  15.903  0.7613 -1.6908 -2.6699
 8032TIP3   OH245586   6.412   2.704  16.631  0.0972  0.7953  0.1045
 8032TIP3    H145587   6.388   2.696  16.723 -0.4590  3.2315  0.2005
 8032TIP3    H245588   6.504   2.731  16.633 -0.1031  1.4918 -0.0334
 8033TIP3   OH245589   3.877   3.921  11.872 -0.1535  0.0593 -0.3219
 8033TIP3    H145590   3.968   3.933  11.898  0.2177  1.0975 -2.0247
 8033TIP3    H245591   3.868   3.974  11.793 -1.6295 -1.8288 -1.4427
 8034TIP3   OH245592   5.143   2.653   5.816  0.3984 -0.5770 -0.0095
 8034TIP3    H145593   5.238   2.648   5.816  0.3812 -0.9495  0.5870
 8034TIP3    H245594   5.113   2.562   5.812  0.0412 -0.3632 -3.5775
 8035TIP3   OH245595   6.799   1.235   2.017  0.3400  0.4965 -0.1508
 8035TIP3    H145596   6.860   1.237   2.091 -0.4970  2.7997  0.5167
 8035TIP3    H245597   6.796   1.325   1.986 -1.9953  0.2354 -0.7717
 8036TIP3   OH245598   2.643   1.018   5.221 -0.1099 -0.3505 -1.0143
 8036TIP3    H145599   2.582   0.960   5.267  0.8092 -1.2313 -0.8949
 8036TIP3    H245600   2.679   1.074   5.289  1.0994 -1.5188 -0.6797
 8037TIP3   OH245601   1.502   5.289   3.409 -0.1272  0.0584  0.0553
 8037TIP3    H145602   1.500   5.299   3.504 -0.4301 -1.9975  0.2894
 8037TIP3    H245603   1.587   5.325   3.383 -0.0642  0.6734  1.0870
 8038TIP3   OH245604   0.817   3.363   0.489  0.1841 -0.1112  0.3469
 8038TIP3    H145605   0.897   3.405   0.522 -0.3179 -0.0176  1.4360
 8038TIP3    H245606   0.839   3.339   0.399  1.6177 -0.5156  0.7832
 8039TIP3   OH245607   4.496   3.431  11.434 -0.0496  0.0013  0.2930
 8039TIP3    H145608   4.501   3.410  11.341 -0.7775  1.1077 -0.0054
 8039TIP3    H245609   4.416   3.388  11.464  0.0780 -0.1878  0.3638
 8040TIP3   OH245610   5.408   1.115  11.927  0.2430 -0.1609 -0.1119
 8040TIP3    H145611   5.413   1.121  11.831 -0.0944  2.1840 -0.0141
 8040TIP3    H245612   5.476   1.175  11.958  0.9726 -1.6017  1.1459
 8041TIP3   OH245613   6.622   3.177   1.257 -0.1489  0.1682  0.0507
 8041TIP3    H145614   6.666   3.181   1.172 -1.0354  2.7011 -0.3137
 8041TIP3    H245615   6.693   3.162   1.320  0.6236 -0.7680 -1.0177
 8042TIP3   OH245616   6.263   2.236  15.999  0.0418  1.1222 -0.0951
 8042TIP3    H145617   6.207   2.307  16.031 -0.7683 -0.2760  1.6820
 8042TIP3    H245618   6.213   2.156  16.018  2.4129 -0.1343  1.1108
 8043TIP3   OH245619   6.256   6.586   3.017 -0.0865  0.0932  0.3287
 8043TIP3    H145620   6.207   6.648   3.071  0.1719 -0.3549  1.0914
 8043TIP3    H245621   6.293   6.524   3.080  1.2230  0.2613 -0.2673
 8044TIP3   OH245622   1.609   2.879  16.783 -0.3917  0.6920 -0.0208
 8044TIP3    H145623   1.521   2.869  16.746  0.5098  0.0356 -2.0267
 8044TIP3    H245624   1.659   2.923  16.714  1.1099  0.1893  0.7361
 8045TIP3   OH245625   0.595   4.214  16.665  0.2761 -0.5490 -0.0411
 8045TIP3    H145626   0.635   4.296  16.693 -0.0306  0.8271 -3.3488
 8045TIP3    H245627   0.511   4.211  16.710 -0.7074  2.1220 -1.5983
 8046TIP3   OH245628   3.243   6.317  15.442 -0.0974  0.2342  0.5748
 8046TIP3    H145629   3.339   6.319  15.443  0.0111 -1.9414 -1.6140
 8046TIP3    H245630   3.220   6.250  15.505 -0.0823 -0.5954 -0.2842
 8047TIP3   OH245631   1.048   5.297  13.406 -0.3056 -0.6755 -0.0371
 8047TIP3    H145632   1.076   5.373  13.355 -2.2442 -1.1382 -1.9025
 8047TIP3    H245633   0.981   5.332  13.466 -1.0909 -0.8486 -0.7933
 8048TIP3   OH245634   2.511   5.413  11.133  0.3501 -0.7525  0.5480
 8048TIP3    H145635   2.507   5.458  11.217  1.0515  1.6268 -0.6468
 8048TIP3    H245636   2.602   5.422  11.105  0.0208 -1.1134 -0.6852
 8049TIP3   OH245637   1.277   1.817   5.940  0.4687 -0.3336  0.1222
 8049TIP3    H145638   1.344   1.878   5.909 -2.8798  2.3047 -2.3388
 8049TIP3    H245639   1.250   1.769   5.862 -1.7172 -0.0788  0.6900
 8050TIP3   OH245640   0.390   2.138  14.453  0.5018  0.2935 -0.3822
 8050TIP3    H145641   0.432   2.194  14.519  0.6234  0.7259 -0.8216
 8050TIP3    H245642   0.409   2.181  14.370  1.4548 -0.9552 -0.8169
 8051TIP3   OH245643   2.988   2.080   2.306 -0.1250 -0.0389  0.3960
 8051TIP3    H145644   3.026   2.168   2.314  0.5699 -0.4022  1.0421
 8051TIP3    H245645   2.934   2.086   2.227  1.4859  0.3967 -0.6928
 8052TIP3   OH245646   2.948   1.226  13.303  0.6896 -0.5730  0.0674
 8052TIP3    H145647   3.003   1.159  13.263 -1.4605 -1.6591 -1.1506
 8052TIP3    H245648   2.981   1.235  13.393  2.6550 -1.3719 -0.5600
 8053TIP3   OH245649   0.030   3.810   4.024 -0.0707 -0.1479 -0.3059
 8053TIP3    H145650   0.104   3.823   3.965 -0.1899  1.0916 -0.2053
 8053TIP3    H245651  -0.005   3.898   4.038 -0.9199 -0.5986  0.4808
 8054TIP3   OH245652   4.555   3.261  11.200 -0.1488 -0.0264 -0.0807
 8054TIP3    H145653   4.555   3.174  11.161  1.5056 -0.0093 -0.1737
 8054TIP3    H245654   4.591   3.318  11.132  1.1990  0.2728  0.8443
 8055TIP3   OH245655   2.231   5.867  15.721 -0.4839 -0.0955  0.2108
 8055TIP3    H145656   2.300   5.897  15.661  2.0920 -1.0053  2.5737
 8055TIP3    H245657   2.167   5.825  15.665 -1.2594  4.4627 -2.5247
 8056TIP3   OH245658   5.742   3.994   3.255 -0.0856 -0.5243 -0.1776
 8056TIP3    H145659   5.762   4.065   3.316 -1.2446  0.5834 -1.0721
 8056TIP3    H245660   5.816   3.992   3.195  0.5193 -0.8702  0.5739
 8057TIP3   OH245661   6.162   6.399   2.797 -0.7130 -0.2962  0.4318
 8057TIP3    H145662   6.090   6.351   2.838 -0.7505 -0.0343  0.6711
 8057TIP3    H245663   6.202   6.449   2.868 -1.7214  1.3334 -0.1056
 8058TIP3   OH245664   1.462   6.686  11.015  0.4028  0.0454  0.5105
 8058TIP3    H145665   1.373   6.669  10.985  0.0024  1.5476  0.8094
 8058TIP3    H245666   1.495   6.601  11.043 -1.3000 -0.3474  1.3678
 8059TIP3   OH245667   2.696   5.839  12.517 -0.6987  0.1736 -0.0751
 8059TIP3    H145668   2.774   5.838  12.572 -1.5138  2.1075  1.1969
 8059TIP3    H245669   2.728   5.831  12.428  0.7966 -1.0881  0.5721
 8060TIP3   OH245670   5.058   6.620  13.061  0.6218 -0.0157  0.3557
 8060TIP3    H145671   5.081   6.569  13.139  1.9066  0.4275  0.2663
 8060TIP3    H245672   5.082   6.564  12.987  0.3210 -0.0279  0.2637
 8061TIP3   OH245673   0.543   6.603  11.609  0.7012 -0.1118 -0.5516
 8061TIP3    H145674   0.616   6.644  11.562  0.5032 -0.1512 -0.8976
 8061TIP3    H245675   0.564   6.510  11.611 -0.0668 -0.3395 -1.9967
 8062TIP3   OH245676   1.385   4.093  14.275  0.0733 -0.2183 -0.3807
 8062TIP3    H145677   1.296   4.064  14.253 -0.5163  1.6086 -0.5629
 8062TIP3    H245678   1.395   4.175  14.227  0.9648  0.8133  1.4938
 8063TIP3   OH245679   1.388   2.905   2.497 -0.5849  0.3297 -0.5509
 8063TIP3    H145680   1.318   2.969   2.482 -1.0868 -0.3462 -1.1369
 8063TIP3    H245681   1.342   2.822   2.509  0.1133 -0.1166 -0.9087
 8064TIP3   OH245682   1.326   4.658   1.576  0.3065 -0.1487  0.6645
 8064TIP3    H145683   1.365   4.594   1.637  0.4467 -0.8344 -0.1269
 8064TIP3    H245684   1.392   4.727   1.570  0.1181  0.1212  1.5998
 8065TIP3   OH245685   6.500   5.258   4.410 -1.5225 -0.0618  0.6026
 8065TIP3    H145686   6.536   5.184   4.360 -2.4256  0.3347 -0.6803
 8065TIP3    H245687   6.554   5.333   4.385 -0.6395 -0.2781  1.8647
 8066TIP3   OH245688   4.054   4.391  14.044  0.0706  0.2572  0.2902
 8066TIP3    H145689   3.981   4.375  14.104  0.1700  0.3958  0.4493
 8066TIP3    H245690   4.026   4.353  13.961  0.6638 -1.6067  0.8991
 8067TIP3   OH245691   4.083   0.243  16.586 -0.2696  0.6938 -0.0104
 8067TIP3    H145692   4.095   0.245  16.491  1.2163 -0.7245  0.1197
 8067TIP3    H245693   4.060   0.332  16.609  0.3697  1.2848 -1.5843
 8068TIP3   OH245694   3.763   2.466  13.440 -0.0213 -0.1930 -0.4288
 8068TIP3    H145695   3.777   2.512  13.357  0.2532  0.7521  0.1354
 8068TIP3    H245696   3.685   2.508  13.477 -0.2370 -0.7211 -0.2737
 8069TIP3   OH245697   0.821   5.467  11.017  0.2588  0.0294  0.0341
 8069TIP3    H145698   0.895   5.527  11.008  1.8086 -1.8761 -0.2180
 8069TIP3    H245699   0.794   5.475  11.108  1.3270  0.1148  0.3482
 8070TIP3   OH245700   5.326   4.110   0.446 -0.3207  0.4326 -0.4786
 8070TIP3    H145701   5.403   4.091   0.501 -0.7222 -0.3254 -0.1636
 8070TIP3    H245702   5.294   4.023   0.419  1.1039  0.8297 -3.6608
 8071TIP3   OH245703   0.174   2.030  12.715 -0.2363 -0.2041 -0.6170
 8071TIP3    H145704   0.190   2.123  12.696  0.0480 -0.0200  0.5262
 8071TIP3    H245705   0.080   2.026  12.734 -0.4274 -0.3076 -1.5612
 8072TIP3   OH245706   2.345   3.246  11.543 -0.2088 -0.1706  0.2243
 8072TIP3    H145707   2.437   3.221  11.548  0.8297  3.0261 -1.3781
 8072TIP3    H245708   2.303   3.200  11.615  2.1848 -3.4478 -0.3642
 8073TIP3   OH245709   6.466   1.634  15.596 -0.1419 -0.6342 -0.3589
 8073TIP3    H145710   6.471   1.544  15.565  0.9250 -0.0085 -2.0760
 8073TIP3    H245711   6.378   1.642  15.633 -0.8571 -1.8767 -1.7441
 8074TIP3   OH245712   6.151   5.022   1.635 -0.1997  0.4499 -0.1282
 8074TIP3    H145713   6.086   5.004   1.703 -1.3691 -0.4858 -1.4625
 8074TIP3    H245714   6.235   5.010   1.678 -0.9186  0.1993  1.2375
 8075TIP3   OH245715   4.226   5.453  11.640  0.0061 -0.4438  0.2022
 8075TIP3    H145716   4.133   5.462  11.662 -0.0919 -0.1887 -0.3274
 8075TIP3    H245717   4.247   5.363  11.665 -0.6275 -0.8167 -0.5864
 8076TIP3   OH245718   3.450   0.047   2.150  0.1048 -0.2038  0.0384
 8076TIP3    H145719   3.545   0.050   2.159  0.3662  0.2365 -2.5501
 8076TIP3    H245720   3.429  -0.046   2.157  0.7967 -0.3726 -0.0379
 8077TIP3   OH245721   2.350   5.613   5.730  0.0135 -0.6356  0.0196
 8077TIP3    H145722   2.312   5.701   5.724  0.3381 -0.5636 -1.0733
 8077TIP3    H245723   2.316   5.578   5.812 -0.1772  0.4861  0.4287
 8078TIP3   OH245724   1.119   5.798  11.414 -0.0236 -0.0376 -0.2522
 8078TIP3    H145725   1.045   5.745  11.443  0.7684 -0.5812  0.8701
 8078TIP3    H245726   1.081   5.873  11.370 -1.1683 -2.7087 -4.0267
 8079TIP3   OH245727   0.721   2.362   3.074  0.0544 -0.0199  0.0824
 8079TIP3    H145728   0.731   2.274   3.110 -1.1174  0.1254  0.7811
 8079TIP3    H245729   0.638   2.393   3.110  0.7692  1.6183  0.3391
 8080TIP3   OH245730   2.520   2.993  14.741  0.9580 -0.7482 -0.0232
 8080TIP3    H145731   2.533   2.995  14.836  2.2178  1.2279 -0.2139
 8080TIP3    H245732   2.467   3.070  14.722 -0.6487 -2.0066 -0.7573
 8081TIP3   OH245733   4.508   0.261  15.643  0.0756 -0.5876 -0.0524
 8081TIP3    H145734   4.431   0.288  15.593  2.2621  0.9938 -2.6746
 8081TIP3    H245735   4.546   0.189  15.593  1.1300 -0.3894  0.4577
 8082TIP3   OH245736   3.492   3.333   2.652 -0.1509 -0.6241 -0.3733
 8082TIP3    H145737   3.525   3.313   2.565 -0.1898 -0.6905 -0.3729
 8082TIP3    H245738   3.537   3.413   2.678 -2.5304  1.2571 -1.7861
 8083TIP3   OH245739   1.415   2.237   0.995 -0.4622  0.0685 -0.3683
 8083TIP3    H145740   1.443   2.146   0.988 -0.5145  0.1036 -1.1170
 8083TIP3    H245741   1.382   2.246   1.085 -1.0660 -0.8220 -0.4945
 8084TIP3   OH245742   6.673   4.719  11.835 -0.1816  0.2513 -0.4985
 8084TIP3    H145743   6.608   4.712  11.765 -0.3321 -0.2337 -0.3109
 8084TIP3    H245744   6.660   4.640  11.888 -1.6564  1.7521  1.4586
 8085TIP3   OH245745   5.709   3.566   1.569  0.6831 -0.0057 -0.2875
 8085TIP3    H145746   5.727   3.638   1.509  1.5331 -1.1591 -1.4412
 8085TIP3    H245747   5.744   3.596   1.653  0.8746  0.9901 -0.7166
 8086TIP3   OH245748   1.154   5.582  16.364  0.1100  0.3883  0.1002
 8086TIP3    H145749   1.101   5.543  16.433  0.0044 -0.6822 -0.5730
 8086TIP3    H245750   1.219   5.515  16.343  0.9564  1.2101  0.0607
 8087TIP3   OH245751   3.876   4.082  10.411  0.0771  0.1135  0.7178
 8087TIP3    H145752   3.907   4.017  10.474  3.0736  0.5863 -0.2272
 8087TIP3    H245753   3.953   4.106  10.360 -2.3419 -0.5705 -3.4599
 8088TIP3   OH245754   2.354   1.261   2.783 -0.2969 -0.1542 -0.2693
 8088TIP3    H145755   2.332   1.318   2.857 -1.0130  1.2062 -1.5236
 8088TIP3    H245756   2.270   1.226   2.754  0.1708 -2.2127  0.7536
 8089TIP3   OH245757   5.694   0.941  13.163 -0.0443  0.0096  0.4514
 8089TIP3    H145758   5.668   0.997  13.090 -0.6883 -0.7829  0.0590
 8089TIP3    H245759   5.684   0.996  13.241 -0.1096  0.6136  0.0191
 8090TIP3   OH245760   2.930   4.544   1.594 -0.3067  0.3406 -0.1058
 8090TIP3    H145761   2.975   4.571   1.514 -1.5025 -0.0984 -0.9471
 8090TIP3    H245762   2.992   4.487   1.639  1.5829  3.0387  0.8426
 8091TIP3   OH245763   0.209   4.998  12.617 -0.1088 -0.0106  0.4542
 8091TIP3    H145764   0.133   4.943  12.596  2.7278 -3.4146 -1.4658
 8091TIP3    H245765   0.258   4.947  12.681  2.0473  0.7777 -0.5281
 8092TIP3   OH245766   4.324   0.477   4.833 -0.0760 -0.2069 -0.1221
 8092TIP3    H145767   4.366   0.390   4.830 -1.5291 -0.9770  1.4837
 8092TIP3    H245768   4.230   0.458   4.828 -0.3489  1.3754 -1.2338
 8093TIP3   OH245769   5.690   2.677   0.490 -0.3744 -0.0406  0.4742
 8093TIP3    H145770   5.778   2.642   0.477 -0.4157 -0.5465  1.5266
 8093TIP3    H245771   5.656   2.688   0.401  0.6653 -0.0405  0.0602
 8094TIP3   OH245772   4.887   4.309  16.017  0.1104  0.1029 -0.1893
 8094TIP3    H145773   4.842   4.265  15.946  1.3676  0.0549 -0.9798
 8094TIP3    H245774   4.836   4.388  16.034 -0.8525 -0.4812 -0.3341
 8095TIP3   OH245775   4.451   4.490   3.944  0.9193  0.2518  0.0756
 8095TIP3    H145776   4.430   4.583   3.951 -1.2105 -0.2475  0.6373
 8095TIP3    H245777   4.462   4.474   3.851 -1.4254  0.5072 -0.2621
 8096TIP3   OH245778   4.530   6.690   0.941 -0.2649 -0.1607 -0.3319
 8096TIP3    H145779   4.590   6.705   0.868  0.6586  0.4521  0.5399
 8096TIP3    H245780   4.464   6.758   0.933  0.5679  0.7148  0.1430
 8097TIP3   OH245781   5.805   2.844   3.539  0.0495  0.2988 -0.6616
 8097TIP3    H145782   5.824   2.901   3.614 -0.8484  2.2659 -1.8718
 8097TIP3    H245783   5.891   2.819   3.506  0.4569  0.5375  0.1934
 8098TIP3   OH245784   0.725   1.765   4.279  0.3965 -0.1615 -0.0210
 8098TIP3    H145785   0.716   1.843   4.223  0.1870 -0.7261 -0.7773
 8098TIP3    H245786   0.726   1.692   4.218  1.2917 -0.7120  0.6501
 8099TIP3   OH245787   3.011   2.978  13.854  0.4156  0.4815  0.9860
 8099TIP3    H145788   2.981   3.064  13.883 -0.0269 -0.0800  2.2338
 8099TIP3    H245789   3.103   2.991  13.830  0.7828  0.9850  2.6174
 8100TIP3   OH245790   6.159   1.412  11.767 -0.4862  0.1818 -0.2963
 8100TIP3    H145791   6.070   1.439  11.786  0.0503  1.7400  0.0703
 8100TIP3    H245792   6.209   1.434  11.846  0.2043 -0.7801 -0.4496
 8101TIP3   OH245793   3.958   0.202   4.587  0.5482 -0.2598 -0.0299
 8101TIP3    H145794   3.965   0.173   4.496 -3.0883 -0.1383 -0.4033
 8101TIP3    H245795   3.928   0.292   4.581  2.6667  0.5700  1.2978
 8102TIP3   OH245796   4.381   1.065  15.458  0.0463 -0.3566  0.6024
 8102TIP3    H145797   4.332   1.012  15.522 -1.7888  0.5711  0.0032
 8102TIP3    H245798   4.326   1.142  15.444  1.1286  0.1331 -1.0204
 8103TIP3   OH245799   4.666   4.334   6.281  0.4060  0.7796 -0.0757
 8103TIP3    H145800   4.719   4.361   6.356  0.6295  0.9890 -0.3080
 8103TIP3    H245801   4.715   4.261   6.243  0.7785  1.2765 -0.5710
 8104TIP3   OH245802   4.064   5.297   0.526  0.2789  0.3803  0.1357
 8104TIP3    H145803   4.147   5.250   0.523  0.4835  0.8162 -1.2026
 8104TIP3    H245804   4.055   5.337   0.440 -1.4731  0.0842  0.1482
 8105TIP3   OH245805   4.507   1.272  12.466 -0.2654 -0.3602 -0.6222
 8105TIP3    H145806   4.488   1.362  12.442 -0.7340 -0.2694  0.0772
 8105TIP3    H245807   4.536   1.231  12.385  0.3591  0.5279 -0.8463
 8106TIP3   OH245808   5.786   5.395   1.930 -0.1610 -0.1426 -0.2825
 8106TIP3    H145809   5.763   5.398   2.022  0.9706 -1.0873  0.0456
 8106TIP3    H245810   5.871   5.351   1.928 -0.9867 -1.7302 -1.9179
 8107TIP3   OH245811   4.206   5.905  11.150 -0.2148  0.1817 -0.4354
 8107TIP3    H145812   4.163   5.919  11.065  0.0395  1.0434 -0.4237
 8107TIP3    H245813   4.235   5.992  11.177 -1.5834  0.1392  1.2376
 8108TIP3   OH245814   3.693   3.221   2.474  0.4817  0.0118  0.1250
 8108TIP3    H145815   3.762   3.206   2.538  0.0975  0.8233  0.7407
 8108TIP3    H245816   3.737   3.265   2.401  0.4396  1.3745  0.9156
 8109TIP3   OH245817   3.566   4.055  11.030  0.9043 -0.1514  0.1051
 8109TIP3    H145818   3.550   3.961  11.037 -2.2305  0.3808  1.2762
 8109TIP3    H245819   3.564   4.087  11.120  3.5761  0.8534 -0.1437
 8110TIP3   OH245820   2.098   3.994  11.908  0.6770  0.3639  0.2392
 8110TIP3    H145821   2.088   4.023  11.817 -3.3336  0.2514  0.5464
 8110TIP3    H245822   2.074   3.901  11.906  2.1061 -0.0324  1.1648
 8111TIP3   OH245823   0.650   0.306   5.348  0.3321 -0.5392  0.4338
 8111TIP3    H145824   0.709   0.279   5.277 -0.5546  1.6854 -1.1837
 8111TIP3    H245825   0.579   0.242   5.346  1.3220 -1.6597  0.6436
 8112TIP3   OH245826   0.636   5.628   0.327  0.0962 -0.4790 -0.3884
 8112TIP3    H145827   0.661   5.626   0.419 -1.6740 -0.5104  0.1127
 8112TIP3    H245828   0.685   5.701   0.290 -0.5582  0.6899  0.9969
 8113TIP3   OH245829   1.869   1.768   3.223 -0.1688  0.3508  0.1411
 8113TIP3    H145830   1.952   1.772   3.269 -0.3433  2.1926  0.3144
 8113TIP3    H245831   1.821   1.696   3.265  1.4281 -0.9220 -0.1642
 8114TIP3   OH245832   3.135   4.805  12.127 -0.2696 -0.6068 -0.3661
 8114TIP3    H145833   3.111   4.735  12.067  1.1448 -0.6100 -0.9589
 8114TIP3    H245834   3.219   4.777  12.164 -0.3245  0.1598  0.3616
 8115TIP3   OH245835   6.310   2.945  13.809  0.2384 -0.0493 -0.6805
 8115TIP3    H145836   6.377   3.009  13.833  0.6663 -0.1963 -1.4710
 8115TIP3    H245837   6.336   2.915  13.722  0.7474 -2.2765  0.2158
 8116TIP3   OH245838   0.745   6.361   2.453  0.8603  0.0813  0.1506
 8116TIP3    H145839   0.811   6.424   2.482  1.6465 -0.5106 -0.3378
 8116TIP3    H245840   0.794   6.297   2.400 -0.1551 -0.1857 -0.4754
 8117TIP3   OH245841   5.039   4.381  12.743  0.6775  0.0566 -0.0803
 8117TIP3    H145842   5.053   4.314  12.676 -0.5347  0.4091 -0.7162
 8117TIP3    H245843   4.949   4.366  12.773  0.6327  0.9666  0.2524
 8118TIP3   OH245844   4.792   6.167  12.958 -0.2208 -0.0333 -0.2176
 8118TIP3    H145845   4.707   6.159  12.914 -1.5770 -0.7425  2.3957
 8118TIP3    H245846   4.847   6.214  12.896 -2.5123  0.4158 -1.9903
 8119TIP3   OH245847   3.992   3.562   4.977 -0.7873  0.3418 -0.3914
 8119TIP3    H145848   4.080   3.526   4.979 -0.5549  0.8561 -1.2284
 8119TIP3    H245849   3.937   3.492   5.012 -0.1429 -0.2466 -0.5443
 8120TIP3   OH245850   5.382   6.488  14.898 -0.1503  0.1171  0.2713
 8120TIP3    H145851   5.429   6.542  14.961  0.4450 -1.9359  1.6321
 8120TIP3    H245852   5.428   6.404  14.898  0.6761  0.4424 -3.9154
 8121TIP3   OH245853   6.529   2.451  15.951  0.5946 -0.0135 -0.1446
 8121TIP3    H145854   6.520   2.541  15.982 -0.4369 -0.3057  0.4257
 8121TIP3    H245855   6.480   2.399  16.015  2.0086 -1.0949  0.0815
 8122TIP3   OH245856   6.057   5.354   0.986  0.3075 -0.3053 -0.0052
 8122TIP3    H145857   6.073   5.317   0.900 -1.1381  0.3273 -0.5723
 8122TIP3    H245858   6.129   5.324   1.040 -0.1355 -2.8335 -0.7900
 8123TIP3   OH245859   1.552   3.213  13.420  0.1570 -0.5832 -0.3323
 8123TIP3    H145860   1.588   3.217  13.331  0.8015 -0.2715 -0.0617
 8123TIP3    H245861   1.572   3.125  13.450  0.4761 -0.4916 -0.2742
 8124TIP3   OH245862   6.692   3.697   2.276  0.4447 -0.7970  0.8162
 8124TIP3    H145863   6.779   3.725   2.247  0.3346 -0.8566  0.4169
 8124TIP3    H245864   6.644   3.680   2.194 -1.2016  2.9725  0.9040
 8125TIP3   OH245865   0.743   6.356   3.412  0.3054 -0.1691 -0.2391
 8125TIP3    H145866   0.710   6.396   3.493  1.7714 -1.7746  1.1898
 8125TIP3    H245867   0.664   6.336   3.362 -0.6075  1.1664  0.6322
 8126TIP3   OH245868   0.960   1.136  15.686  0.0426  0.2560  0.3947
 8126TIP3    H145869   0.931   1.226  15.674  1.6312  0.9334  1.4512
 8126TIP3    H245870   1.028   1.141  15.753  1.5818 -1.4245 -0.9546
 8127TIP3   OH245871   3.670   2.441   5.601 -0.4895  0.3287 -0.1385
 8127TIP3    H145872   3.660   2.347   5.617 -0.3463  0.7438  2.5681
 8127TIP3    H245873   3.581   2.472   5.587 -0.3427 -0.5659 -3.3864
 8128TIP3   OH245874   3.002   0.516  12.696  0.1314 -0.1578  0.5896
 8128TIP3    H145875   2.969   0.549  12.780 -1.1324  0.0677  0.0047
 8128TIP3    H245876   2.927   0.473  12.655  0.9052 -0.8113 -0.1578
 8129TIP3   OH245877   3.327   5.901   3.282 -0.4694 -0.3337  0.0820
 8129TIP3    H145878   3.417   5.874   3.300 -0.4176 -0.0878  0.1937
 8129TIP3    H245879   3.333   5.947   3.198 -0.5854 -0.8203 -0.1922
 8130TIP3   OH245880   0.663   3.351  12.905 -0.0287  0.1496 -0.1987
 8130TIP3    H145881   0.683   3.439  12.936 -0.1899  0.0919  0.0690
 8130TIP3    H245882   0.609   3.313  12.974  0.0229 -0.1517 -0.3238
 8131TIP3   OH245883   2.808   0.869  15.632 -0.7962 -0.3901  0.9891
 8131TIP3    H145884   2.851   0.950  15.605 -1.1494 -0.3537  0.5377
 8131TIP3    H245885   2.715   0.885  15.619 -0.7080 -1.9219 -2.0852
 8132TIP3   OH245886   5.035   3.489  13.834 -0.4002  0.2315  0.0704
 8132TIP3    H145887   5.081   3.421  13.882 -0.7281 -0.3101 -0.3773
 8132TIP3    H245888   4.976   3.529  13.899  2.0746  2.2604  1.1734
 8133TIP3   OH245889   3.934   3.680  13.591 -0.0546  0.4893  0.1879
 8133TIP3    H145890   3.865   3.709  13.650  1.1765  0.6819  1.5477
 8133TIP3    H245891   3.993   3.628  13.646 -0.8439 -2.4901 -1.6555
 8134TIP3   OH245892   4.226   1.480  11.859  0.0433  0.1061 -0.0630
 8134TIP3    H145893   4.264   1.437  11.783  0.7063  0.1619  0.2283
 8134TIP3    H245894   4.292   1.544  11.886  0.9777 -1.6361  2.0639
 8135TIP3   OH245895   4.861   4.613   0.212  0.2624 -0.2459 -0.2969
 8135TIP3    H145896   4.790   4.576   0.263  1.1757 -0.1681  1.0576
 8135TIP3    H245897   4.824   4.691   0.171 -1.3417 -1.9452 -2.2107
 8136TIP3   OH245898   3.794   3.036   5.519 -0.5034  0.6985  0.5475
 8136TIP3    H145899   3.808   2.956   5.469 -0.1082  0.2523  1.3650
 8136TIP3    H245900   3.717   3.017   5.574 -0.5474  0.9627  0.5780
 8137TIP3   OH245901   1.810   4.203  15.410 -0.2393 -0.4966  0.4436
 8137TIP3    H145902   1.769   4.289  15.397 -0.7863 -0.6968  0.8268
 8137TIP3    H245903   1.862   4.214  15.490  0.3319 -0.2861  0.0429
 8138TIP3   OH245904   6.628   2.394   5.278 -0.0277 -0.5210 -0.0857
 8138TIP3    H145905   6.649   2.358   5.364  2.0932 -2.0594 -1.2056
 8138TIP3    H245906   6.687   2.469   5.268 -0.5335 -0.1131 -0.0671
 8139TIP3   OH245907   2.778   4.609   1.856 -0.3156 -0.3456  0.5638
 8139TIP3    H145908   2.818   4.576   1.776 -0.6881 -1.0806  0.6770
 8139TIP3    H245909   2.813   4.698   1.865 -1.0801  0.1330 -0.9851
 8140TIP3   OH245910   4.197   6.248   4.608 -0.4395 -0.3158  0.0173
 8140TIP3    H145911   4.147   6.174   4.574 -2.3056  0.3074  1.2899
 8140TIP3    H245912   4.145   6.279   4.683  1.5301  0.7840  0.9653
 8141TIP3   OH245913   1.308   5.980   4.903  0.0142 -0.1502  0.0558
 8141TIP3    H145914   1.236   5.977   4.966 -1.1783 -0.5337 -1.3046
 8141TIP3    H245915   1.293   6.061   4.853 -0.0934 -0.7788 -0.9411
 8142TIP3   OH245916   3.812   6.065  14.254  0.6894 -1.3103  0.3312
 8142TIP3    H145917   3.874   6.044  14.184  1.1817  1.3182 -0.1081
 8142TIP3    H245918   3.729   6.030  14.225  0.7515  0.3173 -1.9231
 8143TIP3   OH245919   0.557   2.133  16.580  0.6741  0.0394  0.7241
 8143TIP3    H145920   0.522   2.204  16.633  0.6145  0.5984 -0.0534
 8143TIP3    H245921   0.480   2.084  16.551  0.6667  0.1212  0.6078
 8144TIP3   OH245922   2.651   4.400  15.941 -0.1491  0.2951 -0.8112
 8144TIP3    H145923   2.745   4.411  15.926 -0.1155 -1.4483 -2.0908
 8144TIP3    H245924   2.616   4.376  15.855 -1.8472  1.3542 -0.4401
 8145TIP3   OH245925   5.226   3.116  16.315 -0.0882 -0.0648 -0.4175
 8145TIP3    H145926   5.174   3.056  16.261 -1.1228  0.0906  0.3835
 8145TIP3    H245927   5.187   3.110  16.402  0.9345  0.4389  0.0801
 8146TIP3   OH245928   4.754   0.311   5.198 -0.4500  0.1923 -0.7035
 8146TIP3    H145929   4.849   0.316   5.189 -0.3843 -1.0266 -0.6626
 8146TIP3    H245930   4.740   0.302   5.292 -0.6630  1.3657 -0.6079
 8147TIP3   OH245931   2.130   4.224   3.916  0.5379 -0.0766  0.5079
 8147TIP3    H145932   2.043   4.218   3.878  0.3795 -0.1761  0.8818
 8147TIP3    H245933   2.118   4.196   4.007  0.9491 -0.0439  0.5727
 8148TIP3   OH245934   6.058   2.475   2.978 -0.5740 -0.3049 -0.0638
 8148TIP3    H145935   6.015   2.561   2.984  0.8564  0.5037 -1.0496
 8148TIP3    H245936   6.133   2.483   3.036  1.8337  0.5307 -3.1853
 8149TIP3   OH245937   1.373   2.645   4.363  0.1996  0.2475  0.0488
 8149TIP3    H145938   1.362   2.740   4.360  2.9851  0.5628 -1.4992
 8149TIP3    H245939   1.385   2.618   4.272  2.8059 -1.1142  0.7254
 8150TIP3   OH245940   5.971   4.615  14.599  0.1140 -0.1348  0.3177
 8150TIP3    H145941   6.049   4.595  14.547 -1.3463  0.7248 -2.3096
 8150TIP3    H245942   5.998   4.687  14.656  1.8908 -1.4301  1.1537
 8151TIP3   OH245943   5.147   2.192   2.626  0.8822  0.6359  0.2225
 8151TIP3    H145944   5.154   2.281   2.591 -0.6139  0.1243 -1.4961
 8151TIP3    H245945   5.054   2.171   2.619  1.1293 -0.8507  1.1716
 8152TIP3   OH245946   6.358   4.477  15.131  0.6737  0.1415  0.2905
 8152TIP3    H145947   6.323   4.406  15.078  1.6607 -1.6493  1.9706
 8152TIP3    H245948   6.401   4.434  15.205  0.0985  2.5181  2.1006
 8153TIP3   OH245949   0.232   6.034   5.171 -0.5299 -0.1757 -0.1221
 8153TIP3    H145950   0.187   5.982   5.105 -0.5943 -0.4296  0.1209
 8153TIP3    H245951   0.325   6.019   5.154 -0.5301  0.4002 -0.6631
 8154TIP3   OH245952   3.795   2.191  14.777  0.1797  0.1076  0.2898
 8154TIP3    H145953   3.792   2.286  14.772  2.7560  0.1570 -1.6762
 8154TIP3    H245954   3.876   2.167  14.731 -0.6089 -3.0440  0.3948
 8155TIP3   OH245955   5.005   1.559  12.817  0.1417 -0.4675  0.5779
 8155TIP3    H145956   5.074   1.587  12.877  0.7839  0.0588 -0.4113
 8155TIP3    H245957   5.041   1.482  12.773  0.3971  0.2518 -0.4847
 8156TIP3   OH245958   0.220   4.350   1.171  0.0806  0.8200 -0.8159
 8156TIP3    H145959   0.135   4.339   1.215  0.0417  2.8730 -0.2830
 8156TIP3    H245960   0.283   4.310   1.231 -0.6166 -1.9560 -1.8588
 8157TIP3   OH245961   2.042   0.030  12.043  0.5517 -0.1056  0.1821
 8157TIP3    H145962   1.948   0.046  12.051  0.6940 -0.1083  2.0339
 8157TIP3    H245963   2.084   0.111  12.072  1.1386 -0.3612  0.0749
 8158TIP3   OH245964   5.938   1.708   3.557 -0.2316 -0.1159 -0.2912
 8158TIP3    H145965   5.842   1.712   3.559 -0.2437 -0.9472  0.7976
 8158TIP3    H245966   5.959   1.617   3.575  0.8061  0.3938  1.1325
 8159TIP3   OH245967   2.915   0.783   6.283  0.5694  0.4199  0.4600
 8159TIP3    H145968   2.966   0.764   6.204 -0.5136 -0.5773 -0.0163
 8159TIP3    H245969   2.977   0.771   6.355  0.5502 -2.7675  0.0258
 8160TIP3   OH245970   1.209   1.639  12.110  0.5264  0.0220  0.1481
 8160TIP3    H145971   1.120   1.605  12.115  0.0706  1.1199 -0.2940
 8160TIP3    H245972   1.264   1.561  12.106 -0.5332 -0.6850 -1.6534
 8161TIP3   OH245973   5.939   2.068   6.451  0.0666 -1.2192 -0.4090
 8161TIP3    H145974   5.892   2.068   6.367  0.6588  0.7680 -0.7583
 8161TIP3    H245975   6.018   2.017   6.434  0.5304 -0.2208 -1.2583
 8162TIP3   OH245976   1.697   6.615   3.303 -0.6594  0.7390  0.0005
 8162TIP3    H145977   1.650   6.601   3.385 -1.0062  1.9269  0.0073
 8162TIP3    H245978   1.785   6.640   3.331 -0.3526 -0.2875 -0.0089
 8163TIP3   OH245979   3.648   1.981  16.608  0.2450 -0.6121 -0.3803
 8163TIP3    H145980   3.566   1.944  16.575 -0.3653 -0.2560  0.7062
 8163TIP3    H245981   3.660   2.062  16.558 -1.4312  0.6781  1.2240
 8164TIP3   OH245982   1.922   1.282   4.136 -0.4133 -0.0971 -0.0073
 8164TIP3    H145983   1.841   1.291   4.185 -0.1523  3.5969 -0.1564
 8164TIP3    H245984   1.911   1.337   4.058  0.8921 -2.3622 -1.9014
 8165TIP3   OH245985   0.770   2.838   2.256  0.3876  0.0251 -0.3499
 8165TIP3    H145986   0.863   2.835   2.233  0.1822  0.1023 -1.1924
 8165TIP3    H245987   0.757   2.762   2.312  0.9337 -0.0385 -0.3013
 8166TIP3   OH245988   0.368   0.723   4.054  0.2167  0.7199  0.1714
 8166TIP3    H145989   0.303   0.697   3.988  1.7382 -0.6552 -0.8237
 8166TIP3    H245990   0.445   0.749   4.003  2.3193 -2.7610  1.3670
 8167TIP3   OH245991   0.785   1.301   3.460 -0.0669 -0.1729 -0.6703
 8167TIP3    H145992   0.834   1.306   3.542  2.2275 -0.9743 -1.9476
 8167TIP3    H245993   0.708   1.248   3.480  0.2290  0.0442  1.0662
 8168TIP3   OH245994   5.916   4.753   0.130 -0.3486 -0.1328 -0.4877
 8168TIP3    H145995   5.917   4.676   0.074 -0.6227 -1.3756  1.1592
 8168TIP3    H245996   5.958   4.723   0.212 -0.8838  1.3282  0.3397
 8169TIP3   OH245997   5.826   6.636   1.792 -0.5117  0.9029 -0.1162
 8169TIP3    H145998   5.898   6.583   1.756 -0.1250  0.9875  0.5133
 8169TIP3    H245999   5.804   6.593   1.874 -1.9907  0.1990 -0.8736
 8170TIP3   OH246000   5.579   6.270  17.249 -0.0601 -0.2372  0.1512
 8170TIP3    H146001   5.589   6.326  17.172  1.7542 -1.5092 -0.5615
 8170TIP3    H246002   5.655   6.292  17.304 -0.0067 -1.1314  0.4296
 8171TIP3   OH246003   2.813   3.004   4.603  0.1810  1.0361 -0.1802
 8171TIP3    H146004   2.893   3.000   4.656  0.0962 -0.4240 -0.1443
 8171TIP3    H246005   2.836   2.963   4.520 -0.3067  1.3454 -0.4734
 8172TIP3   OH246006   3.251   4.745   5.087 -0.1330 -0.0703  0.2622
 8172TIP3    H146007   3.175   4.707   5.132  0.1187 -0.2909  0.4986
 8172TIP3    H246008   3.238   4.840   5.096 -1.5706 -0.0440 -1.6598
 8173TIP3   OH246009   0.163   4.472   1.625 -0.0920  0.1711 -0.0756
 8173TIP3    H146010   0.229   4.493   1.560  0.0162  0.9488  0.2845
 8173TIP3    H246011   0.164   4.376   1.630  0.2932  0.1343 -0.8014
 8174TIP3   OH246012   6.644   2.321  10.656  0.7840  0.1812 -0.1457
 8174TIP3    H146013   6.700   2.396  10.638  0.5368  0.6671  1.0162
 8174TIP3    H246014   6.556   2.358  10.662  0.7769 -0.0317  1.3799
 8175TIP3   OH246015   0.573   3.783   0.004  1.1693 -0.2085  0.3998
 8175TIP3    H146016   0.652   3.817  -0.038  0.4411  0.7067 -0.2559
 8175TIP3    H246017   0.532   3.727  -0.062  2.1306 -2.0425  1.3183
 8176TIP3   OH246018   4.405   1.813   2.336  0.3156  0.6307 -0.4723
 8176TIP3    H146019   4.425   1.779   2.249  2.2930 -0.4214  0.3779
 8176TIP3    H246020   4.479   1.868   2.359  0.0948  0.4288  0.7935
 8177TIP3   OH246021   2.816   5.540  17.201  0.2431 -0.0511  0.0802
 8177TIP3    H146022   2.762   5.499  17.269 -1.7608  3.0032  0.4332
 8177TIP3    H246023   2.900   5.556  17.244  0.5110 -2.2683  0.4196
 8178TIP3   OH246024   3.482   0.570  12.423  0.1138 -0.5390 -0.7161
 8178TIP3    H146025   3.436   0.600  12.345  0.5097 -1.4214 -1.2960
 8178TIP3    H246026   3.422   0.507  12.464  0.7600 -1.6665 -1.4551
 8179TIP3   OH246027   2.281   0.759  13.126  0.6245 -0.3998  0.0592
 8179TIP3    H146028   2.363   0.779  13.171 -0.4633  0.9815  1.4709
 8179TIP3    H246029   2.225   0.835  13.142  0.0013 -0.1102 -3.1875
 8180TIP3   OH246030   6.211   0.022  14.851  0.5013 -0.2168 -0.2093
 8180TIP3    H146031   6.131   0.041  14.900  1.0809 -0.0468  0.6880
 8180TIP3    H246032   6.237   0.106  14.814  2.1494  0.4642  2.3753
 8181TIP3   OH246033   0.373   2.846  17.084 -0.6304 -0.3138  0.3398
 8181TIP3    H146034   0.338   2.758  17.094 -1.1845 -0.1642 -0.2303
 8181TIP3    H246035   0.341   2.875  16.998 -0.5871  0.5031  0.5888
 8182TIP3   OH246036   2.458   3.354   1.804 -0.3913 -0.2433  0.7241
 8182TIP3    H146037   2.419   3.282   1.755 -0.2249  0.2956 -0.2152
 8182TIP3    H246038   2.458   3.428   1.743 -1.2607  0.7716  1.9134
 8183TIP3   OH246039   1.251   2.678   4.756 -0.2763  0.3625 -0.3425
 8183TIP3    H146040   1.306   2.630   4.695 -2.2519  0.0383 -1.9134
 8183TIP3    H246041   1.252   2.768   4.723  0.4240  0.6583  0.4523
 8184TIP3   OH246042   3.067   5.616  14.286 -0.6147 -0.0391 -0.3240
 8184TIP3    H146043   3.144   5.669  14.307 -1.0663  0.7581 -0.6436
 8184TIP3    H246044   3.076   5.538  14.341  0.1028  0.3277  0.0955
 8185TIP3   OH246045   4.952   4.743  14.576 -0.5517  0.1901  0.4528
 8185TIP3    H146046   4.946   4.821  14.632 -0.1286  1.1078 -0.7804
 8185TIP3    H246047   5.017   4.687  14.620 -0.1924  0.9217  0.8539
 8186TIP3   OH246048   3.471   0.483   5.022 -0.5885 -0.0220  0.3708
 8186TIP3    H146049   3.454   0.389   5.033  1.4080 -0.5260 -0.5106
 8186TIP3    H246050   3.561   0.486   4.989 -0.7844  2.1947  0.0233
 8187TIP3   OH246051   1.286   3.401  15.550 -0.7864  0.8503 -0.2581
 8187TIP3    H146052   1.303   3.408  15.644 -0.6410  1.2748 -0.3153
 8187TIP3    H246053   1.343   3.331  15.521 -1.0671  0.4994  0.0321
 8188TIP3   OH246054   5.254   0.982  14.267 -0.5812  0.7764 -0.7873
 8188TIP3    H146055   5.225   1.071  14.249  0.5075  0.8978 -1.9712
 8188TIP3    H246056   5.224   0.965  14.357 -0.0546  2.6316 -0.2444
 8189TIP3   OH246057   2.349   3.405   4.782 -0.2692  0.1210 -0.1375
 8189TIP3    H146058   2.275   3.397   4.722  0.3346 -0.4821 -0.8060
 8189TIP3    H246059   2.329   3.484   4.833 -0.9504  0.4525 -0.8946
 8190TIP3   OH246060   2.360   3.464  13.981 -0.4341 -0.2926  0.0055
 8190TIP3    H146061   2.390   3.452  14.071 -1.1693 -1.1432  0.1423
 8190TIP3    H246062   2.276   3.419  13.977 -0.4512 -0.1826 -1.0870
 8191TIP3   OH246063   2.820   3.302   3.892  0.5627  0.3184 -0.7203
 8191TIP3    H146064   2.749   3.352   3.931  0.1549 -0.0670 -0.9682
 8191TIP3    H246065   2.886   3.296   3.962 -1.1334 -2.3519  0.7120
 8192TIP3   OH246066   3.105   5.162   0.139 -0.1766  0.1331 -0.2821
 8192TIP3    H146067   3.181   5.220   0.130 -0.0640 -0.1296 -1.1377
 8192TIP3    H246068   3.142   5.074   0.132 -0.0035 -0.1474  3.6092
 8193TIP3   OH246069   4.639   3.047   1.178  0.5803  0.6229 -0.5427
 8193TIP3    H146070   4.665   2.957   1.199  1.2531  0.8365 -0.4221
 8193TIP3    H246071   4.677   3.098   1.250 -1.4234  0.7838  0.4219
 8194TIP3   OH246072   3.689   0.007  12.901  0.2530  0.3340 -0.1367
 8194TIP3    H146073   3.732  -0.063  12.949 -0.2132 -0.0524 -0.2788
 8194TIP3    H246074   3.761   0.061  12.867  0.6489 -0.8849 -1.2593
 8195TIP3   OH246075   3.327   3.626   5.265  0.0806  0.0743 -0.0724
 8195TIP3    H146076   3.279   3.636   5.347 -2.0604  0.2036 -1.3092
 8195TIP3    H246077   3.408   3.676   5.278 -0.5476  0.6616  1.6952
 8196TIP3   OH246078   6.505   5.002  16.729  0.3736 -0.7213 -0.0043
 8196TIP3    H146079   6.536   5.086  16.694 -1.0184 -0.4209 -0.5540
 8196TIP3    H246080   6.477   4.952  16.652  0.2573 -1.3020  0.4079
 8197TIP3   OH246081   3.839   4.051  13.129 -0.3949 -0.4551 -0.0123
 8197TIP3    H146082   3.872   4.089  13.211  0.5005  3.2675 -2.0028
 8197TIP3    H246083   3.748   4.080  13.124 -0.0192  0.5459 -1.0390
 8198TIP3   OH246084   4.500   5.132  12.702 -0.1566  0.1514 -0.2662
 8198TIP3    H146085   4.557   5.056  12.715 -2.1118 -1.2500  0.2747
 8198TIP3    H246086   4.557   5.207  12.719  0.9287 -1.2757  2.7813
 8199TIP3   OH246087   3.935   2.103   5.400 -0.4236 -0.1370 -0.3886
 8199TIP3    H146088   3.892   2.189   5.399 -0.1787  0.0402  1.9629
 8199TIP3    H246089   3.881   2.049   5.457 -0.0607 -1.2807 -1.1052
 8200TIP3   OH246090   2.035   5.461   1.330  0.1191  0.6808  0.8486
 8200TIP3    H146091   1.941   5.474   1.332  0.1967  1.6013 -0.7533
 8200TIP3    H246092   2.067   5.499   1.412 -0.8186  1.0285  1.0537
 8201TIP3   OH246093   5.255   6.350   2.870 -0.1031  0.0662 -0.0160
 8201TIP3    H146094   5.297   6.394   2.944 -0.2730 -3.9519  2.5727
 8201TIP3    H246095   5.325   6.300   2.829 -0.5407  0.3160 -1.0778
 8202TIP3   OH246096   1.883   6.564  14.196  0.4961  0.2320 -0.6629
 8202TIP3    H146097   1.894   6.580  14.103  1.5360  0.1474 -0.5641
 8202TIP3    H246098   1.964   6.597  14.236  0.9429 -1.5800 -0.0127
 8203TIP3   OH246099   6.030   4.762   5.847  0.4898  0.7408  0.8946
 8203TIP3    H146100   5.938   4.782   5.835  1.0663  1.8861 -2.0586
 8203TIP3    H246101   6.037   4.733   5.938 -2.8759 -0.0968  0.9444
 8204TIP3   OH246102   5.849   0.428  16.088  0.8299 -0.1365 -0.2069
 8204TIP3    H146103   5.933   0.462  16.117  0.4062 -0.7918  1.8902
 8204TIP3    H246104   5.785   0.477  16.140  0.0420 -1.3221 -0.0499
 8205TIP3   OH246105   1.546   0.490  14.624 -0.1578  0.8785 -0.0816
 8205TIP3    H146106   1.453   0.473  14.643 -0.5251  3.0082  0.1467
 8205TIP3    H246107   1.587   0.404  14.627 -2.3222 -0.2361 -1.2460
 8206TIP3   OH246108   0.197   1.420   3.261 -0.2410 -0.0320  0.1512
 8206TIP3    H146109   0.104   1.441   3.248  0.5483  2.4582 -2.2607
 8206TIP3    H246110   0.230   1.493   3.313  0.8119  0.3055 -0.9749
 8207TIP3   OH246111   5.420   2.246  15.935 -0.1447 -0.1155 -0.2885
 8207TIP3    H146112   5.368   2.274  16.010  1.8345  2.3115  0.2585
 8207TIP3    H246113   5.365   2.264  15.859 -0.8829  0.4925  0.3838
 8208TIP3   OH246114   2.590   5.558   3.615 -0.1747 -0.0304  0.0607
 8208TIP3    H146115   2.548   5.557   3.529 -0.8538 -0.3001  0.3904
 8208TIP3    H246116   2.540   5.494   3.667 -0.0443  0.4454  0.7841
 8209TIP3   OH246117   2.429   3.939   3.461  0.1986 -0.8832 -0.0252
 8209TIP3    H146118   2.406   3.850   3.488 -1.3748 -0.2835  0.6245
 8209TIP3    H246119   2.492   3.969   3.527  2.5210 -2.3143 -1.4990
 8210TIP3   OH246120   1.653   2.787   1.658  0.3596 -0.1632  0.1248
 8210TIP3    H146121   1.692   2.758   1.741  2.6071 -0.5566 -1.0232
 8210TIP3    H246122   1.688   2.875   1.644  2.5607 -1.2822 -1.9080
 8211TIP3   OH246123   6.022   0.925   6.338 -0.7012  0.2536 -0.2298
 8211TIP3    H146124   6.013   0.983   6.415  1.4908  2.2122 -1.3801
 8211TIP3    H246125   6.109   0.886   6.349 -0.2548  0.7793 -1.8377
 8212TIP3   OH246126   6.659   5.988   0.804  0.0386  0.2616  0.2003
 8212TIP3    H146127   6.571   5.950   0.799 -0.0494  0.3417  1.0000
 8212TIP3    H246128   6.681   6.011   0.714 -1.9312  2.9257  0.3434
 8213TIP3   OH246129   0.932   5.621  15.574 -0.3613  0.3587 -0.0028
 8213TIP3    H146130   0.837   5.623  15.561 -0.1132  0.8598 -1.9720
 8213TIP3    H246131   0.946   5.658  15.661 -1.9574  0.5952  0.1603
 8214TIP3   OH246132   5.169   0.166  17.042 -0.0497 -0.0903  0.3979
 8214TIP3    H146133   5.182   0.208  16.957 -0.5500  0.4339  0.5779
 8214TIP3    H246134   5.100   0.217  17.084 -2.3908 -2.5381 -0.3278
 8215TIP3   OH246135   1.697   6.437  15.964 -0.0084 -0.2211 -0.3826
 8215TIP3    H146136   1.727   6.433  15.873 -0.0131  1.0782 -0.4417
 8215TIP3    H246137   1.754   6.501  16.006  0.3585 -1.2110  0.6818
 8216TIP3   OH246138   2.644   5.055  11.587 -0.1781 -0.7546 -0.1715
 8216TIP3    H146139   2.560   5.043  11.631 -0.7900  3.1843 -0.0492
 8216TIP3    H246140   2.626   5.118  11.518  2.8879  1.1533  0.6581
 8217TIP3   OH246141   2.052   3.352  16.002  0.9646  0.6789  0.2951
 8217TIP3    H146142   2.108   3.401  15.941  0.4276  0.5505 -0.3086
 8217TIP3    H246143   2.038   3.268  15.958  2.4294 -0.2743  1.6279
 8218TIP3   OH246144   4.241   3.485   5.882  0.3826  0.1968 -0.0232
 8218TIP3    H146145   4.147   3.489   5.863  0.3940 -0.3347 -0.1954
 8218TIP3    H246146   4.248   3.427   5.957  0.5956  0.0303 -0.1721
 8219TIP3   OH246147   4.541   2.959  11.827 -0.6536 -0.2008  0.0423
 8219TIP3    H146148   4.520   2.918  11.911  3.1373  1.1359  1.7260
 8219TIP3    H246149   4.619   2.913  11.797  0.7875  2.4638 -0.4279
 8220TIP3   OH246150   1.714   2.093  13.198  0.5069  0.3778  0.3359
 8220TIP3    H146151   1.756   2.014  13.231  0.0616  0.2569  0.6149
 8220TIP3    H246152   1.786   2.156  13.188  1.0155 -0.3818 -0.8586
 8221TIP3   OH246153   4.628   2.913  11.404  0.4879  0.1572 -0.9043
 8221TIP3    H146154   4.712   2.902  11.447 -0.1179 -2.2876 -0.2913
 8221TIP3    H246155   4.650   2.938  11.314  1.8468  0.0507 -0.6105
 8222TIP3   OH246156   4.613   5.505   2.908 -0.2865 -0.2351  0.1425
 8222TIP3    H146157   4.691   5.457   2.880  1.1746  0.8340  2.2641
 8222TIP3    H246158   4.620   5.590   2.865 -0.3739 -0.1988  0.2002
 8223TIP3   OH246159   4.318   2.628  12.030  0.0325 -0.7141 -0.2300
 8223TIP3    H146160   4.321   2.721  12.054 -0.5558 -0.5622 -0.7399
 8223TIP3    H246161   4.391   2.589  12.078  0.2211 -0.0057  0.0682
 8224TIP3   OH246162   3.147   1.487  13.554  0.1217  0.4634  0.2221
 8224TIP3    H146163   3.173   1.397  13.532 -0.8939  0.1565  0.2444
 8224TIP3    H246164   3.229   1.534  13.564  0.6832 -0.6308  0.8814
 8225TIP3   OH246165   2.675   5.469  16.196 -0.2816  0.2300 -0.0206
 8225TIP3    H146166   2.744   5.535  16.182 -0.4187  0.3844  0.0293
 8225TIP3    H246167   2.650   5.480  16.288 -1.7163  1.4952 -0.5323
 8226TIP3   OH246168   0.856   5.028  15.727 -0.4979  0.1350  0.2782
 8226TIP3    H146169   0.936   5.003  15.774 -0.3518  1.0861  0.5475
 8226TIP3    H246170   0.840   4.955  15.667  0.1350 -0.4183  0.7759
 8227TIP3   OH246171   4.317   2.081   1.294  0.5891 -0.7459  0.6723
 8227TIP3    H146172   4.354   2.161   1.257 -0.4777 -0.5705 -0.0435
 8227TIP3    H246173   4.297   2.104   1.385 -0.3507  0.0227  0.2807
 8228TIP3   OH246174   4.418   1.979  16.349 -0.0432 -0.0924 -0.0479
 8228TIP3    H146175   4.369   1.991  16.430 -1.0503  0.7164 -0.7677
 8228TIP3    H246176   4.352   1.956  16.283  0.8021 -1.0978 -0.5695
 8229TIP3   OH246177   2.328   3.745  13.300  0.3106 -0.1376 -0.8163
 8229TIP3    H146178   2.343   3.673  13.361 -1.8088 -0.3382 -0.4903
 8229TIP3    H246179   2.289   3.703  13.223  1.7071  0.2994 -1.7844
 8230TIP3   OH246180   4.488   6.130   4.142  0.4316  0.1326 -0.1554
 8230TIP3    H146181   4.409   6.178   4.118  0.0277 -0.6717 -0.4476
 8230TIP3    H246182   4.533   6.188   4.204 -0.9254  0.1423  0.8455
 8231TIP3   OH246183   3.100   1.723   6.314 -0.6369  0.1362 -0.0867
 8231TIP3    H146184   3.150   1.753   6.238  1.4125 -1.0534  0.7355
 8231TIP3    H246185   3.066   1.803   6.353 -0.4791  0.8767 -1.4109
 8232TIP3   OH246186   5.070   5.259  16.984  0.2545 -0.5893 -0.2441
 8232TIP3    H146187   5.034   5.275  16.896  0.9935 -2.2877 -0.8894
 8232TIP3    H246188   5.128   5.332  17.000  1.7749 -1.3430 -2.1027
 8233TIP3   OH246189   6.741   4.899   1.175 -0.6182  0.5220 -0.4999
 8233TIP3    H146190   6.756   4.963   1.105 -1.0852 -0.8210 -1.8768
 8233TIP3    H246191   6.694   4.828   1.131 -1.0027 -0.3006  1.2301
 8234TIP3   OH246192   5.171   3.857   1.309 -0.1635  0.1386 -0.2015
 8234TIP3    H146193   5.127   3.924   1.256  1.1044  1.4730  0.3831
 8234TIP3    H246194   5.258   3.849   1.270  0.7241  0.9970  1.5050
 8235TIP3   OH246195   5.468   6.273  12.624  0.1457 -0.1786 -0.0042
 8235TIP3    H146196   5.505   6.360  12.635 -0.2611 -0.0636  0.4475
 8235TIP3    H246197   5.528   6.228  12.564  0.8802  0.0864  0.5407
 8236TIP3   OH246198   2.041   0.640  12.478  0.5498  0.2098  0.1289
 8236TIP3    H146199   2.085   0.583  12.415  1.1885  1.6200 -0.7347
 8236TIP3    H246200   2.031   0.724  12.432  0.8678  1.2117  1.8114
 8237TIP3   OH246201   2.546   2.773   0.728  0.0253  0.6228 -1.1237
 8237TIP3    H146202   2.464   2.807   0.692 -0.2595  1.3362  0.1744
 8237TIP3    H246203   2.544   2.679   0.709 -1.2002  0.5912 -0.8802
 8238TIP3   OH246204   6.782   4.649  12.981  0.2695 -0.3281  0.0788
 8238TIP3    H146205   6.827   4.733  12.994 -0.7399  0.4668 -1.4206
 8238TIP3    H246206   6.710   4.650  13.044  1.7848 -1.2450  1.9033
 8239TIP3   OH246207   5.424   6.050   0.862 -0.6998  0.1373 -0.8692
 8239TIP3    H146208   5.389   6.036   0.950 -1.5389  1.5173 -0.9575
 8239TIP3    H246209   5.493   5.984   0.852 -3.0626 -2.4747 -0.5653
 8240TIP3   OH246210   0.532   2.796  11.456 -0.0722  0.0694  0.4301
 8240TIP3    H146211   0.498   2.719  11.409 -2.2283  1.4088 -0.3022
 8240TIP3    H246212   0.496   2.787  11.545  2.0534 -1.2283  1.1975
 8241TIP3   OH246213   5.294   5.459  10.756  0.0093  0.4223  0.1023
 8241TIP3    H146214   5.203   5.431  10.743  0.1127 -0.0289  0.3345
 8241TIP3    H246215   5.344   5.377  10.755  0.8020  0.9053 -3.1609
 8242TIP3   OH246216   4.476   6.435  16.547 -0.3739 -0.1794 -0.0279
 8242TIP3    H146217   4.476   6.531  16.554 -0.4873 -0.2472  0.9915
 8242TIP3    H246218   4.525   6.406  16.623 -0.1034 -0.9250 -0.4916
 8243TIP3   OH246219   4.126   2.529  15.173  0.4735  0.1478  0.3073
 8243TIP3    H146220   4.119   2.439  15.142 -0.0326  0.1274  0.4651
 8243TIP3    H246221   4.086   2.527  15.260  0.4814  0.5173  0.3201
 8244TIP3   OH246222   1.358   1.178   5.077  0.2760  0.2513 -0.9486
 8244TIP3    H146223   1.436   1.219   5.115 -0.7776  0.1433  1.4183
 8244TIP3    H246224   1.360   1.088   5.110 -2.7735  1.2449  2.2820
 8245TIP3   OH246225   5.035   3.899  16.521  0.6104  0.7382 -0.3025
 8245TIP3    H146226   5.123   3.936  16.510  0.3892  1.2879 -0.2205
 8245TIP3    H246227   4.982   3.972  16.551  0.5461 -0.0459  1.5305
 8246TIP3   OH246228   2.744   1.724   0.867  0.6837 -0.0764 -0.0051
 8246TIP3    H146229   2.738   1.663   0.941  1.1393 -1.1083 -0.8141
 8246TIP3    H246230   2.743   1.668   0.790 -1.5744  1.1100 -0.8548
 8247TIP3   OH246231   5.361   3.422  12.504  0.4289  0.4141  0.8498
 8247TIP3    H146232   5.349   3.366  12.428  1.0597  0.1884  0.9155
 8247TIP3    H246233   5.456   3.434  12.511  0.3836  0.3325  1.6726
 8248TIP3   OH246234   1.815   2.202  15.905  0.4479 -0.1491 -0.0362
 8248TIP3    H146235   1.792   2.113  15.933 -1.0539  0.4094  0.6063
 8248TIP3    H246236   1.862   2.191  15.823  0.9339 -1.5822  0.4367
 8249TIP3   OH246237   2.067   3.832  16.164 -0.0848  0.1224  0.5520
 8249TIP3    H146238   2.033   3.870  16.245 -0.1149  0.5538  0.3386
 8249TIP3    H246239   2.074   3.738  16.182 -0.4270  0.1720  0.9322
 8250TIP3   OH246240   2.480   4.787  12.161 -0.1684 -0.2073  0.0406
 8250TIP3    H146241   2.563   4.747  12.137  0.4791  1.3311 -0.3636
 8250TIP3    H246242   2.488   4.803  12.255  0.1003  0.1391 -0.0367
 8251TIP3   OH246243   5.039   1.168  15.587  0.8601 -0.8385  0.6176
 8251TIP3    H146244   5.084   1.086  15.606  2.9274  0.3552  0.9794
 8251TIP3    H246245   5.084   1.204  15.511 -0.0445 -0.0506  0.4439
 8252TIP3   OH246246   2.506   4.939  16.117 -0.4020  0.2265 -0.3227
 8252TIP3    H146247   2.537   4.848  16.120 -1.7463 -0.2488 -0.0565
 8252TIP3    H246248   2.450   4.948  16.194 -0.4949  1.1952 -0.4975
 8253TIP3   OH246249   6.225   5.490   4.437 -0.2867  0.1899  0.1739
 8253TIP3    H146250   6.233   5.456   4.348 -0.9983  0.6243 -0.0654
 8253TIP3    H246251   6.278   5.570   4.438  2.5718 -1.6376  1.1480
 8254TIP3   OH246252   0.047   0.654   5.733  0.0974  0.5964 -0.3450
 8254TIP3    H146253   0.061   0.566   5.767 -0.9624  0.1775 -0.9493
 8254TIP3    H246254   0.131   0.678   5.694  0.8719  0.5046  1.2557
 8255TIP3   OH246255   4.429   1.456   4.269  0.1219  0.4983 -0.4382
 8255TIP3    H146256   4.372   1.398   4.217  1.6521  1.4453 -3.2323
 8255TIP3    H246257   4.491   1.396   4.311 -0.4114 -0.1707 -0.5783
 8256TIP3   OH246258   3.823   0.062  14.411  0.9624 -0.0503 -0.1250
 8256TIP3    H146259   3.772   0.135  14.375 -0.9691 -2.2677 -2.1070
 8256TIP3    H246260   3.789   0.051  14.500  1.2400  1.4102  0.1777
 8257TIP3   OH246261   4.332   4.377  14.850  0.0861  0.0034  0.1484
 8257TIP3    H146262   4.289   4.325  14.918 -1.9816 -0.4258 -1.4439
 8257TIP3    H246263   4.335   4.319  14.774 -1.8107  1.9864 -1.5056
 8258TIP3   OH246264   0.941   1.029   2.136  0.4341 -0.2345  0.0504
 8258TIP3    H146265   0.921   1.118   2.105  1.6101 -0.2022 -0.6471
 8258TIP3    H246266   0.921   0.973   2.061 -1.7768 -0.7455  0.9873
 8259TIP3   OH246267   5.575   1.483   4.372  0.4877 -0.0185 -0.8834
 8259TIP3    H146268   5.503   1.497   4.311  0.1673 -0.0227 -0.5011
 8259TIP3    H246269   5.602   1.570   4.399  0.7084 -0.0121 -1.1233
 8260TIP3   OH246270   2.509   3.966  11.201  0.1702  0.4077 -0.1477
 8260TIP3    H146271   2.585   4.024  11.194  0.6586 -0.5515 -3.7715
 8260TIP3    H246272   2.474   3.961  11.113 -2.5669 -1.2834  0.9642
 8261TIP3   OH246273   1.512   5.094   1.139  0.4946 -0.2453 -0.0692
 8261TIP3    H146274   1.592   5.043   1.150  0.1398 -0.7801  0.0549
 8261TIP3    H246275   1.458   5.041   1.080 -0.1696 -0.3508  0.6285
 8262TIP3   OH246276   5.670   6.041   2.432 -0.0467 -0.2312 -0.0972
 8262TIP3    H146277   5.683   6.003   2.345 -2.0281 -1.6735  0.2036
 8262TIP3    H246278   5.721   5.985   2.491 -0.1993 -0.3778 -0.1020
 8263TIP3   OH246279   0.197   4.445  10.883 -0.4853  0.3665 -0.1926
 8263TIP3    H146280   0.244   4.495  10.817  0.2349  0.6116  0.5007
 8263TIP3    H246281   0.119   4.498  10.902 -0.7697  0.2230 -0.9469
 8264TIP3   OH246282   4.310   1.464   1.303  0.3525  0.4127  0.2324
 8264TIP3    H146283   4.264   1.452   1.387  0.4693 -1.8325  0.0161
 8264TIP3    H246284   4.259   1.412   1.241  2.0735 -0.5548 -0.3996
 8265TIP3   OH246285   4.378   3.877  12.089 -0.2665 -0.3382 -0.4914
 8265TIP3    H146286   4.387   3.868  12.183 -0.2286 -2.0713 -0.6394
 8265TIP3    H246287   4.418   3.962  12.069  1.1676 -0.6753  0.8540
 8266TIP3   OH246288   5.839   6.375  14.634 -0.1510  0.1226 -0.6161
 8266TIP3    H146289   5.929   6.362  14.665 -0.5017  1.3912  1.0160
 8266TIP3    H246290   5.815   6.462  14.666 -1.9620 -0.2145 -1.0093
 8267TIP3   OH246291   4.512   4.459  15.080  0.3351  0.4077 -0.0779
 8267TIP3    H146292   4.496   4.485  14.989 -0.9754  0.3360  0.1147
 8267TIP3    H246293   4.433   4.487  15.127  1.5226  1.5648  1.2886
 8268TIP3   OH246294   4.084   1.281   4.588  0.1488  0.2151 -0.1644
 8268TIP3    H146295   3.992   1.307   4.581 -0.1025 -0.2418  1.2178
 8268TIP3    H246296   4.119   1.336   4.658  0.2666 -1.3831  1.0541
 8269TIP3   OH246297   3.011   5.688  15.373 -0.1765  0.0491  0.2002
 8269TIP3    H146298   2.932   5.668  15.323 -0.6070 -1.6967  1.5270
 8269TIP3    H246299   3.083   5.665  15.315 -0.6535 -0.0699 -0.3497
 8270TIP3   OH246300   0.457   3.571  15.789  0.4084 -0.7114 -0.0737
 8270TIP3    H146301   0.371   3.529  15.797  0.0639  0.4472  3.3035
 8270TIP3    H246302   0.443   3.641  15.725 -0.9781 -0.9943 -0.1087
 8271TIP3   OH246303   3.903   4.879  15.620 -0.4279  1.2615 -0.6358
 8271TIP3    H146304   3.826   4.880  15.677 -0.7209  2.0290 -1.0351
 8271TIP3    H246305   3.876   4.929  15.543  0.5424  1.6947 -0.6948
 8272TIP3   OH246306   5.133   6.052   3.533 -0.0515 -0.5987  0.2691
 8272TIP3    H146307   5.120   6.146   3.520  0.6489 -0.7541 -1.8208
 8272TIP3    H246308   5.152   6.042   3.626  0.7215  1.4402  0.3404
 8273TIP3   OH246309   5.452   0.230  16.382 -0.2930 -0.1275 -0.1136
 8273TIP3    H146310   5.537   0.237  16.425 -0.6523 -1.1480  0.7874
 8273TIP3    H246311   5.401   0.303  16.416  0.2768  0.6153 -0.8149
 8274TIP3   OH246312   0.570   6.485   0.373 -0.1380  0.3632  0.6551
 8274TIP3    H146313   0.566   6.396   0.337 -1.0834  0.4699  0.4788
 8274TIP3    H246314   0.479   6.508   0.391 -0.0027  1.7211 -0.3261
 8275TIP3   OH246315   4.986   6.065  13.098  0.0884 -0.3176 -1.1459
 8275TIP3    H146316   4.910   6.111  13.064 -1.0207 -0.1242  1.5078
 8275TIP3    H246317   5.020   6.121  13.168  2.4776 -0.5688 -2.0287
 8276TIP3   OH246318   0.861   2.481  11.233  0.0115 -0.2803  0.3990
 8276TIP3    H146319   0.858   2.530  11.315  0.4447 -0.6162  0.6170
 8276TIP3    H246320   0.892   2.544  11.168 -0.7824  0.1147  0.3964
 8277TIP3   OH246321   4.176   5.954   0.146  0.0553 -0.0913 -0.3878
 8277TIP3    H146322   4.144   5.921   0.062  0.3481 -0.1675 -0.4704
 8277TIP3    H246323   4.221   6.036   0.125  0.1709 -0.1346 -0.3146
 8278TIP3   OH246324   2.834   4.797  13.701  0.2140 -0.2737  0.2139
 8278TIP3    H146325   2.783   4.827  13.776 -0.0593  1.1492 -0.5290
 8278TIP3    H246326   2.774   4.741  13.652 -0.2911  0.5114 -0.0723
 8279TIP3   OH246327   0.292   3.878   1.206  0.3302  0.4206 -0.2393
 8279TIP3    H146328   0.291   3.954   1.148  0.3043  0.5540 -0.0620
 8279TIP3    H246329   0.384   3.851   1.209  0.1553 -0.3109 -1.3001
 8280TIP3   OH246330   2.601   6.623   2.974  0.2753  0.1313 -0.0185
 8280TIP3    H146331   2.579   6.537   3.011  1.2358  0.0948  0.4787
 8280TIP3    H246332   2.695   6.631   2.986  0.2693  1.0461 -0.5279
 8281TIP3   OH246333   1.770   6.656   3.875  0.6215 -0.0134 -0.3082
 8281TIP3    H146334   1.827   6.718   3.830  0.3413 -0.1397 -0.8355
 8281TIP3    H246335   1.791   6.667   3.968  1.8711 -0.4284 -0.5370
 8282TIP3   OH246336   2.440   4.527   4.610  0.1709  0.2098  0.4801
 8282TIP3    H146337   2.416   4.478   4.689  1.9156  0.5040  1.2340
 8282TIP3    H246338   2.360   4.573   4.585 -0.1826  0.8429  2.6431
 8283TIP3   OH246339   2.872   2.248   3.200  0.5914  0.2879 -0.2584
 8283TIP3    H146340   2.903   2.266   3.288 -2.2271  1.7342  0.4715
 8283TIP3    H246341   2.923   2.172   3.172  1.7502  0.0123  2.4736
 8284TIP3   OH246342   1.815   4.496  11.111 -0.4478 -0.0536 -0.0888
 8284TIP3    H146343   1.898   4.456  11.139 -1.0528 -1.5046 -0.3476
 8284TIP3    H246344   1.790   4.552  11.184  1.1103  0.9123 -0.2867
 8285TIP3   OH246345   6.544   2.875   2.770 -0.7430  0.1191 -0.0108
 8285TIP3    H146346   6.622   2.927   2.749 -0.4087 -0.4520 -0.2039
 8285TIP3    H246347   6.514   2.909   2.854 -0.4375  0.5198 -0.0609
 8286TIP3   OH246348   0.158   1.904  12.961 -0.5278  0.1923  0.2486
 8286TIP3    H146349   0.168   1.957  12.882  0.6264 -0.4745 -0.0791
 8286TIP3    H246350   0.064   1.891  12.970 -0.9080  3.1156  0.9147
 8287TIP3   OH246351   2.296   2.122  14.597 -0.4567  0.0054  0.3672
 8287TIP3    H146352   2.280   2.092  14.507 -0.1992 -1.4103  0.7703
 8287TIP3    H246353   2.338   2.047  14.640  0.1688  0.9588  1.4452
 8288TIP3   OH246354   5.648   6.536  13.343  0.3996 -0.0358 -0.2548
 8288TIP3    H146355   5.722   6.517  13.401  0.7859 -1.2885 -1.1380
 8288TIP3    H246356   5.586   6.465  13.359  0.1300  0.0867 -0.7581
 8289TIP3   OH246357   0.943   5.637  15.889  0.5219  0.1210 -0.3908
 8289TIP3    H146358   0.937   5.655  15.983 -0.6274 -1.2109 -0.1865
 8289TIP3    H246359   0.958   5.543  15.883  0.1572  0.1250 -1.5506
 8290TIP3   OH246360   6.460   5.089   6.455 -0.1895 -0.3036  0.7047
 8290TIP3    H146361   6.519   5.030   6.408 -0.2410 -0.2288  0.5457
 8290TIP3    H246362   6.419   5.034   6.521  0.0805 -0.3493  0.8365
 8291TIP3   OH246363   4.771   6.307  16.099 -0.0879 -0.2985 -0.3797
 8291TIP3    H146364   4.760   6.212  16.107  1.1027 -0.3049  1.3774
 8291TIP3    H246365   4.743   6.326  16.010 -1.7400 -2.1004 -0.2995
 8292TIP3   OH246366   5.752   1.909  13.513 -0.3313 -0.1579  0.2275
 8292TIP3    H146367   5.812   1.980  13.492 -0.4390  0.3603  1.6184
 8292TIP3    H246368   5.740   1.862  13.430 -1.4891  2.3491 -1.0701
 8293TIP3   OH246369   4.398   3.904   4.569  0.0323 -0.9180 -0.0922
 8293TIP3    H146370   4.452   3.827   4.549 -0.5754 -1.2658 -0.4143
 8293TIP3    H246371   4.439   3.943   4.646  1.1494 -0.7695 -0.7677
 8294TIP3   OH246372   1.538   0.979   0.278 -0.0021 -1.2305 -0.3145
 8294TIP3    H146373   1.627   1.014   0.287  0.0272 -1.1527 -0.9327
 8294TIP3    H246374   1.502   1.022   0.201 -0.0610 -2.3534 -0.9248
 8295TIP3   OH246375   6.820   5.565   0.061  0.2529 -0.3930 -0.1935
 8295TIP3    H146376   6.886   5.633   0.076 -2.2339  1.5320  2.7907
 8295TIP3    H246377   6.820   5.514   0.142 -1.8407 -0.3674 -0.1393
 8296TIP3   OH246378   5.931   0.272   6.065 -0.5823 -0.2855  0.5530
 8296TIP3    H146379   6.012   0.274   6.115 -0.7524 -0.4322  0.8360
 8296TIP3    H246380   5.918   0.362   6.036 -0.0450 -0.3611  0.0663
 8297TIP3   OH246381   2.319   0.503  10.767  0.0206 -0.3962 -0.5666
 8297TIP3    H146382   2.383   0.560  10.726  0.7055  1.5058  3.0114
 8297TIP3    H246383   2.239   0.555  10.772 -0.5884 -1.2521 -1.0787
 8298TIP3   OH246384   3.686   6.517  13.031 -0.3010 -0.4899 -0.0610
 8298TIP3    H146385   3.628   6.455  13.075  0.8770 -1.3864  0.2347
 8298TIP3    H246386   3.695   6.484  12.942 -1.4472  0.4843 -0.5549
 8299TIP3   OH246387   3.990   0.024   4.329 -0.3963 -0.3864  0.0203
 8299TIP3    H146388   4.002  -0.060   4.372 -1.7989 -0.9568 -0.6525
 8299TIP3    H246389   4.078   0.056   4.312  0.1409 -2.3076 -0.8500
 8300TIP3   OH246390   1.602   3.048  12.670 -0.3684  0.4691  0.4228
 8300TIP3    H146391   1.632   3.018  12.584  2.3715  0.0180  1.4717
 8300TIP3    H246392   1.547   3.124  12.652  1.1703  1.1184 -1.6543
 8301TIP3   OH246393   3.472   0.777   0.621 -0.2765  0.4076 -0.2721
 8301TIP3    H146394   3.408   0.753   0.554  1.4364  0.5082 -1.9636
 8301TIP3    H246395   3.515   0.695   0.644  0.4893  0.6681 -0.7398
 8302TIP3   OH246396   0.485   1.297   1.674 -0.0485  0.6104 -0.1831
 8302TIP3    H146397   0.392   1.296   1.697 -0.7113 -1.8954 -2.6623
 8302TIP3    H246398   0.514   1.206   1.689  1.1907  0.6044 -2.4794
 8303TIP3   OH246399   4.862   4.096  10.709  0.3549 -0.0887 -0.6498
 8303TIP3    H146400   4.829   4.144  10.785  2.6922 -0.3881  0.6159
 8303TIP3    H246401   4.813   4.014  10.709 -0.0463  0.1428  0.2354
 8304TIP3   OH246402   1.692   0.235  14.648 -0.5243 -0.2133 -0.3462
 8304TIP3    H146403   1.732   0.229  14.561  0.5509 -2.8965  0.2962
 8304TIP3    H246404   1.618   0.174  14.645 -0.2019 -0.6662  0.7653
 8305TIP3   OH246405   4.145   5.770  12.327 -0.0319 -0.2033 -0.2829
 8305TIP3    H146406   4.192   5.827  12.387  0.3922  1.4212 -2.1122
 8305TIP3    H246407   4.127   5.691  12.377  1.2663  0.6924  1.6165
 8306TIP3   OH246408   3.690   3.440   2.898  0.3845  0.5130 -0.2503
 8306TIP3    H146409   3.695   3.500   2.824  1.4561  1.6222  0.6854
 8306TIP3    H246410   3.613   3.468   2.947 -1.0229 -0.9953 -1.5907
 8307TIP3   OH246411   6.775   3.045   4.454  0.1936 -0.6846 -0.3644
 8307TIP3    H146412   6.707   2.986   4.423  0.3736 -1.8424  1.4243
 8307TIP3    H246413   6.793   3.018   4.544  1.7501  0.7507 -0.2059
 8308TIP3   OH246414   4.881   1.761  14.813  0.0192 -0.3561  0.1008
 8308TIP3    H146415   4.929   1.732  14.735 -1.0994  0.1358 -0.8070
 8308TIP3    H246416   4.826   1.686  14.836 -0.2430 -0.2219 -0.0808
 8309TIP3   OH246417   2.749   5.748  10.723  0.4494 -0.1694  0.1044
 8309TIP3    H146418   2.666   5.738  10.769  1.2561 -0.9689  1.3959
 8309TIP3    H246419   2.758   5.669  10.670  0.3219 -0.0167 -0.1471
 8310TIP3   OH246420   1.632   3.323   1.916 -0.0508 -0.5768  0.4270
 8310TIP3    H146421   1.689   3.339   1.841 -0.3927 -0.8302  0.1152
 8310TIP3    H246422   1.687   3.344   1.992 -0.2582  1.3538  0.0621
 8311TIP3   OH246423   2.450   2.442   2.673 -0.5074  0.3872 -0.2231
 8311TIP3    H146424   2.506   2.398   2.737 -0.6772 -1.2185 -1.1487
 8311TIP3    H246425   2.511   2.485   2.613 -0.3082  0.2192 -0.1408
 8312TIP3   OH246426   3.395   2.296  11.652 -0.6400  0.0375 -0.0334
 8312TIP3    H146427   3.358   2.232  11.712 -2.0013  0.3592 -0.5066
 8312TIP3    H246428   3.488   2.298  11.673 -0.9009 -0.7328  1.2392
 8313TIP3   OH246429   5.317   4.573   0.222 -0.0002  0.0424  0.2021
 8313TIP3    H146430   5.404   4.536   0.207  0.7720  1.5205  0.7867
 8313TIP3    H246431   5.288   4.603   0.136 -0.7619 -2.1713 -0.3157
 8314TIP3   OH246432   2.068   5.382  14.784  0.0870  0.4592 -0.2192
 8314TIP3    H146433   1.993   5.365  14.727  0.4416 -2.1612  0.0358
 8314TIP3    H246434   2.127   5.434  14.731 -1.5176  1.8222 -0.7208
 8315TIP3   OH246435   6.514   0.234   2.906 -0.0252 -0.0063 -0.4118
 8315TIP3    H146436   6.576   0.285   2.854 -1.0700  1.6426 -0.0751
 8315TIP3    H246437   6.565   0.206   2.983  0.1337  1.8670  0.1713
 8316TIP3   OH246438   0.848   1.810   1.491  0.1315  0.2969 -0.6806
 8316TIP3    H146439   0.930   1.780   1.532 -0.1467  4.0650  2.9938
 8316TIP3    H246440   0.780   1.758   1.533  0.2557  0.6873  0.0114
 8317TIP3   OH246441   2.578   1.575  15.867 -0.4675  0.1741 -0.6190
 8317TIP3    H146442   2.507   1.636  15.844  1.6867  2.0121 -2.6250
 8317TIP3    H246443   2.641   1.629  15.914  0.1853 -1.1764  0.0795
 8318TIP3   OH246444   4.847   3.237   4.517 -0.2706  0.3862  0.1685
 8318TIP3    H146445   4.829   3.306   4.453 -3.4867  0.6937  1.3082
 8318TIP3    H246446   4.867   3.284   4.598 -3.5974  0.0714  1.2430
 8319TIP3   OH246447   5.867   1.015   4.898 -0.0350 -0.0570  0.4225
 8319TIP3    H146448   5.843   1.016   4.990 -0.4177 -0.6027  0.3310
 8319TIP3    H246449   5.798   1.064   4.854  0.7293  1.1588  0.5595
 8320TIP3   OH246450   5.088   6.704   0.498  0.1070 -0.3518  0.6004
 8320TIP3    H146451   5.144   6.770   0.537  0.8108 -0.6194  0.0437
 8320TIP3    H246452   5.031   6.752   0.438  0.1532 -0.1646  0.7078
 8321TIP3   OH246453   1.822   4.883   2.306  0.0461  0.0145 -0.6005
 8321TIP3    H146454   1.858   4.807   2.351  0.7908  0.4348 -0.4756
 8321TIP3    H246455   1.786   4.848   2.225  1.6895 -0.2694 -1.2283
 8322TIP3   OH246456   1.195   1.224  15.457 -0.7257 -0.3375 -0.3150
 8322TIP3    H146457   1.169   1.255  15.543 -2.4502 -0.2901 -0.8516
 8322TIP3    H246458   1.291   1.230  15.458 -0.8174  1.2237  1.0001
 8323TIP3   OH246459   3.858   2.780  16.701 -0.1117  0.1332  0.2389
 8323TIP3    H146460   3.869   2.836  16.624 -1.4504  1.1575  0.7642
 8323TIP3    H246461   3.827   2.696  16.666  0.6657  0.1397 -0.4589
 8324TIP3   OH246462   1.276   5.835   1.138  0.5334 -0.2302  0.0658
 8324TIP3    H146463   1.335   5.902   1.174  0.0023  0.4658 -0.3489
 8324TIP3    H246464   1.304   5.753   1.180 -0.4344  0.6309  2.4971
 8325TIP3   OH246465   4.504   1.119  14.708 -0.4288  0.4963  0.2873
 8325TIP3    H146466   4.509   1.153  14.798 -1.8226 -0.0543  0.5893
 8325TIP3    H246467   4.585   1.070  14.697  0.3339  1.5969  0.8050
 8326TIP3   OH246468   6.570   6.805  16.408  0.3522 -0.0609 -0.1853
 8326TIP3    H146469   6.583   6.713  16.430  1.5094  0.5385  1.7049
 8326TIP3    H246470   6.484   6.827  16.444  1.0653  0.1888  1.4064
 8327TIP3   OH246471   3.637   2.569   4.190  0.1765  0.0245 -0.1421
 8327TIP3    H146472   3.608   2.625   4.262 -0.5134 -0.2657 -0.1891
 8327TIP3    H246473   3.729   2.593   4.176 -0.1431  1.2110 -0.2334
 8328TIP3   OH246474   6.488   3.657  13.978  0.3515 -0.6132  0.8305
 8328TIP3    H146475   6.503   3.690  14.066  0.1456  1.2574  0.1893
 8328TIP3    H246476   6.482   3.736  13.923  0.1054 -1.7261 -0.7906
 8329TIP3   OH246477   1.190   6.760  11.529  0.2315  0.4905 -0.7850
 8329TIP3    H146478   1.226   6.687  11.579  1.0624  0.9967 -0.6222
 8329TIP3    H246479   1.244   6.835  11.555 -2.4160  1.7866  1.2391
 8330TIP3   OH246480   5.211   1.206  15.852  0.0850  0.1375 -0.5528
 8330TIP3    H146481   5.153   1.278  15.830 -0.4816 -0.2521 -0.3489
 8330TIP3    H246482   5.297   1.234  15.821 -0.2854  0.5514 -1.2249
 8331TIP3   OH246483   5.531   6.646  11.391  0.1169 -0.3331 -0.2746
 8331TIP3    H146484   5.608   6.623  11.442  0.9985 -0.3542 -1.5766
 8331TIP3    H246485   5.552   6.731  11.352 -1.7799  1.1494  1.8301
 8332TIP3   OH246486   0.555   0.559   1.550  0.0427  0.4453 -0.0764
 8332TIP3    H146487   0.556   0.497   1.477  1.5060  1.0285 -0.5677
 8332TIP3    H246488   0.598   0.513   1.622 -0.8066  0.1121  0.2234
 8333TIP3   OH246489   2.166   5.121  13.988  0.6007  0.0805 -0.3572
 8333TIP3    H146490   2.119   5.204  13.989  1.0653  0.3397  1.0363
 8333TIP3    H246491   2.196   5.112  13.898  0.0672  1.1478 -0.6556
 8334TIP3   OH246492   6.369   1.936   1.900 -0.4140  0.4694  0.7853
 8334TIP3    H146493   6.399   1.844   1.904 -2.3072 -0.1237  1.8698
 8334TIP3    H246494   6.365   1.956   1.807 -0.2400 -0.6361  0.5317
 8335TIP3   OH246495   4.005   4.037   4.285  0.4112  0.1280  1.0365
 8335TIP3    H146496   4.064   3.982   4.233 -0.4261  0.1142  0.0825
 8335TIP3    H246497   4.030   4.126   4.262 -0.6680  0.1237 -0.2408
 8336TIP3   OH246498   2.779   2.559  11.321  0.4462  0.0256 -0.0307
 8336TIP3    H146499   2.711   2.546  11.255  0.4864  0.0801 -0.0819
 8336TIP3    H246500   2.860   2.567  11.270  0.6414 -1.1158  0.0905
 8337TIP3   OH246501   2.659   0.311   3.091 -0.3103  0.2520 -0.2180
 8337TIP3    H146502   2.749   0.323   3.121 -0.3228  1.9339 -0.7696
 8337TIP3    H246503   2.624   0.241   3.146  0.6249  1.1425  1.5329
 8338TIP3   OH246504   2.038   3.900  10.997  0.1767 -0.0238  0.5977
 8338TIP3    H146505   1.970   3.955  10.959 -0.6898  0.0498  2.2276
 8338TIP3    H246506   2.046   3.826  10.936 -0.4282  0.6343 -0.2862
 8339TIP3   OH246507   0.067   2.462   0.317  0.6685  0.0246 -0.2309
 8339TIP3    H146508   0.111   2.526   0.372  0.1437  1.7512 -1.7352
 8339TIP3    H246509   0.135   2.428   0.260  0.5959  0.6962 -0.7307
 8340TIP3   OH246510   2.171   4.425   6.229 -0.8842  0.4782  0.0170
 8340TIP3    H146511   2.196   4.446   6.139 -0.5054  1.1775  0.2824
 8340TIP3    H246512   2.180   4.508   6.277 -2.2038  0.3762  0.4535
 8341TIP3   OH246513   5.619   1.586  14.040 -0.0885  0.0386 -0.5322
 8341TIP3    H146514   5.700   1.534  14.039  1.3958  2.2618 -0.4513
 8341TIP3    H246515   5.589   1.586  13.949 -0.0266 -0.8386 -0.5544
 8342TIP3   OH246516   2.953   6.246  14.980 -0.0415 -0.5378 -0.2117
 8342TIP3    H146517   2.905   6.290  15.050  0.2165  1.3464 -1.2126
 8342TIP3    H246518   3.041   6.234  15.015  0.1572  0.6312 -0.3133
 8343TIP3   OH246519   0.115   5.066  14.128 -0.5994  0.0707 -0.3528
 8343TIP3    H146520   0.167   4.992  14.159  0.5707  0.2512 -1.8094
 8343TIP3    H246521   0.162   5.143  14.159 -1.1798  0.2153  0.1661
 8344TIP3   OH246522   0.893   0.278  15.792 -0.2925  0.2207 -0.2693
 8344TIP3    H146523   0.798   0.279  15.787 -0.3204 -1.5023 -0.4626
 8344TIP3    H246524   0.916   0.185  15.796  1.4348  0.5671 -1.5026
 8345TIP3   OH246525   5.626   6.471  12.295  0.5232 -0.0227 -0.3484
 8345TIP3    H146526   5.611   6.479  12.390  1.2949  0.4044 -0.2599
 8345TIP3    H246527   5.696   6.407  12.287  1.2595  0.7904 -0.5642
 8346TIP3   OH246528   5.778   2.720  11.746  0.5051  0.4324  0.7020
 8346TIP3    H146529   5.854   2.709  11.689 -1.0936  0.3751 -1.4571
 8346TIP3    H246530   5.776   2.640  11.798  1.3024 -0.0331  0.0349
 8347TIP3   OH246531   2.633   5.383  13.437  1.2681 -0.1322 -0.1501
 8347TIP3    H146532   2.637   5.478  13.430  0.7821 -0.0798  0.2336
 8347TIP3    H246533   2.668   5.351  13.353  2.3805  0.3627  0.1181
 8348TIP3   OH246534   1.915   5.708  13.524  0.5226  0.4414 -0.0531
 8348TIP3    H146535   1.966   5.737  13.600  0.6328  0.2330 -0.0481
 8348TIP3    H246536   1.974   5.717  13.450  0.4531  0.5329 -0.0977
 8349TIP3   OH246537   6.727   4.066  14.902  0.1088 -0.1859  0.2681
 8349TIP3    H146538   6.787   4.096  14.971  1.3211  0.2564 -0.9452
 8349TIP3    H246539   6.733   3.970  14.905  0.5624 -0.1534  0.4260
 8350TIP3   OH246540   0.066   4.457   5.029 -0.0471  0.0476  0.1186
 8350TIP3    H146541   0.002   4.429   5.094  0.4710 -0.1201  0.5597
 8350TIP3    H246542   0.014   4.480   4.952 -0.5980 -0.5868  0.2994
 8351TIP3   OH246543   5.873   3.340  11.260  0.7501  0.4800  0.6502
 8351TIP3    H146544   5.905   3.412  11.206  0.9234  0.4679  0.7364
 8351TIP3    H246545   5.882   3.262  11.205 -1.4682  0.8129 -0.2623
 8352TIP3   OH246546   2.743   4.203  15.132 -0.0711  0.2374 -0.3687
 8352TIP3    H146547   2.811   4.268  15.152 -0.7768  0.4574  1.3418
 8352TIP3    H246548   2.792   4.128  15.099  0.8856  0.9601 -0.6244
 8353TIP3   OH246549   4.894   1.332  17.228 -0.3815 -0.0270 -0.1646
 8353TIP3    H146550   4.814   1.358  17.275 -0.1638 -0.9399  0.7158
 8353TIP3    H246551   4.942   1.277  17.290  0.8992  0.4426 -0.7233
 8354TIP3   OH246552   4.159   2.870  16.796 -0.1111 -0.2820  0.3004
 8354TIP3    H146553   4.082   2.915  16.828  0.4560 -1.3764  3.3573
 8354TIP3    H246554   4.126   2.812  16.727 -1.7251  0.4720  0.4187
 8355TIP3   OH246555   2.734   1.668  13.915 -0.4194 -0.6322  0.1410
 8355TIP3    H146556   2.761   1.587  13.960 -1.6334 -2.0104 -1.5553
 8355TIP3    H246557   2.809   1.689  13.859 -0.6808 -1.4449 -0.5363
 8356TIP3   OH246558   3.730   5.752  13.965  0.1309  0.3912 -0.0881
 8356TIP3    H146559   3.661   5.758  14.032 -0.9726 -0.2310 -1.1397
 8356TIP3    H246560   3.810   5.778  14.011 -0.6502  0.2756  1.3904
 8357TIP3   OH246561   6.169   0.751   0.309 -0.2814 -0.1300  0.1087
 8357TIP3    H146562   6.134   0.663   0.295 -0.4958 -0.2835  1.5930
 8357TIP3    H246563   6.203   0.750   0.398  0.9036  0.9043 -0.3073
 8358TIP3   OH246564   0.123   1.195  16.404 -0.4482  0.0015 -0.5191
 8358TIP3    H146565   0.037   1.176  16.443  0.0698 -0.7290  0.2840
 8358TIP3    H246566   0.162   1.109  16.390  0.5310  0.3627 -0.0266
 8359TIP3   OH246567   2.487   0.331   4.250 -0.6189  0.3335 -0.2286
 8359TIP3    H146568   2.502   0.413   4.202  0.0363 -0.2713 -1.0547
 8359TIP3    H246569   2.443   0.274   4.187  0.5280 -0.5723 -0.2158
 8360TIP3   OH246570   3.089   0.252   5.881  0.7259 -0.1733  0.0386
 8360TIP3    H146571   3.019   0.270   5.819  0.2211  0.6730  0.8428
 8360TIP3    H246572   3.084   0.324   5.944 -0.3081 -2.3113  2.4558
 8361TIP3   OH246573   1.887   6.298  11.441 -0.1623 -0.1503 -0.3881
 8361TIP3    H146574   1.845   6.215  11.462  1.1134 -0.4964  0.8780
 8361TIP3    H246575   1.916   6.288  11.350 -0.3996 -0.9213 -0.3848
 8362TIP3   OH246576   0.726   3.834  13.168 -0.0922  0.2627 -0.0731
 8362TIP3    H146577   0.727   3.929  13.181  2.9133 -0.0239  2.4475
 8362TIP3    H246578   0.694   3.799  13.251 -1.9071 -0.9264 -1.2574
 8363TIP3   OH246579   4.528   2.948  16.629  0.1263 -0.2894 -0.1624
 8363TIP3    H146580   4.567   3.035  16.622  0.2896 -0.3772 -0.3696
 8363TIP3    H246581   4.464   2.945  16.557  1.0679 -0.8212 -0.9862
 8364TIP3   OH246582   6.542   4.283  14.921 -0.1504  0.3954 -0.3189
 8364TIP3    H146583   6.448   4.299  14.918 -0.5745 -1.9165 -0.9084
 8364TIP3    H246584   6.549   4.187  14.927  2.1436  0.5897  0.3662
 8365TIP3   OH246585   4.747   3.308   4.077 -0.1892 -0.1659  0.2667
 8365TIP3    H146586   4.802   3.233   4.052 -0.6967 -0.2093 -0.7733
 8365TIP3    H246587   4.803   3.362   4.133  0.5792 -0.7106  0.0332
 8366TIP3   OH246588   4.433   6.679  15.054  0.0365 -0.0008 -0.4644
 8366TIP3    H146589   4.495   6.738  15.096 -1.4819  1.2419  0.0582
 8366TIP3    H246590   4.450   6.690  14.960  0.8823  0.0125 -0.3169
 8367TIP3   OH246591   6.499   3.559   4.913 -0.7268 -0.4084 -0.4141
 8367TIP3    H146592   6.520   3.541   4.821  0.0468  0.5857 -0.4306
 8367TIP3    H246593   6.448   3.640   4.911  1.2818  0.8888  0.2345
 8368TIP3   OH246594   4.443   0.698  14.247 -0.0600  0.3458 -0.6106
 8368TIP3    H146595   4.533   0.722  14.224 -0.4683  1.3266 -1.2357
 8368TIP3    H246596   4.399   0.782  14.260 -1.2803 -0.0877 -1.8357
 8369TIP3   OH246597   3.710   1.549  13.635  0.3626 -0.6354 -0.0091
 8369TIP3    H146598   3.728   1.524  13.544  1.4988 -1.8789  0.5430
 8369TIP3    H246599   3.715   1.645  13.634 -1.2526 -0.5246 -1.5716
 8370TIP3   OH246600   0.096   0.971  14.345 -0.2909  0.4391 -0.3084
 8370TIP3    H146601   0.027   0.991  14.282  0.5179  0.0794 -1.3251
 8370TIP3    H246602   0.052   0.920  14.413 -0.6671 -1.3760 -1.8784
 8371TIP3   OH246603   1.853   1.569  12.246 -0.6733 -0.0296  0.3392
 8371TIP3    H146604   1.803   1.634  12.296 -0.8110  0.4553 -0.4222
 8371TIP3    H246605   1.901   1.520  12.313  1.3152  2.4345  0.7962
 8372TIP3   OH246606   4.828   2.860   2.524  0.4577  0.1664 -0.7110
 8372TIP3    H146607   4.784   2.783   2.489 -0.4990  1.3059 -2.0762
 8372TIP3    H246608   4.791   2.933   2.474  1.7468  1.4465  0.1832
 8373TIP3   OH246609   2.864   2.334   0.432 -0.1768  0.0008  0.1491
 8373TIP3    H146610   2.929   2.272   0.399  0.3439  1.2982 -1.3047
 8373TIP3    H246611   2.784   2.313   0.385 -0.0370  0.3371 -0.2393
 8374TIP3   OH246612   5.231   2.471   0.041 -0.4552 -0.0955 -0.1123
 8374TIP3    H146613   5.210   2.536  -0.025  0.5223  0.7836  0.4125
 8374TIP3    H246614   5.299   2.513   0.095 -1.0160 -0.9039  1.2507
 8375TIP3   OH246615   4.655   1.216   3.663  1.0327  0.0202  0.2339
 8375TIP3    H146616   4.740   1.258   3.678  1.0805 -0.7517  2.4257
 8375TIP3    H246617   4.668   1.125   3.692 -0.9669  0.3078  2.1481
 8376TIP3   OH246618   4.554   4.045   3.368 -0.5122  0.7441 -0.8071
 8376TIP3    H146619   4.483   4.012   3.423 -1.6452  0.8317 -2.1810
 8376TIP3    H246620   4.577   4.129   3.407  3.0566 -1.8832  3.3153
 8377TIP3   OH246621   4.402   5.319   3.805 -0.6044  0.7364 -0.5674
 8377TIP3    H146622   4.317   5.320   3.849 -0.3007  0.1737  0.0432
 8377TIP3    H246623   4.466   5.327   3.876 -0.1166  0.1333 -0.9378
 8378TIP3   OH246624   4.759   5.394  11.515  0.5613  0.4364  0.1805
 8378TIP3    H146625   4.710   5.380  11.596  0.9281 -1.7426  0.0486
 8378TIP3    H246626   4.737   5.319  11.460  3.0518  0.0934 -0.3889
 8379TIP3   OH246627   0.569   2.438   1.556 -0.0545 -0.3712  0.4925
 8379TIP3    H146628   0.665   2.432   1.557 -0.0159  0.0480 -0.2130
 8379TIP3    H246629   0.551   2.531   1.542 -0.5388 -0.6945 -1.1903
 8380TIP3   OH246630   1.049   3.860  13.269 -0.2988 -0.1292 -0.0945
 8380TIP3    H146631   1.136   3.854  13.231  0.3268 -1.8769  1.5783
 8380TIP3    H246632   0.999   3.791  13.225 -0.7991  0.7210 -0.8856
 8381TIP3   OH246633   5.459   3.352  16.047 -0.1569  0.0553  0.5708
 8381TIP3    H146634   5.532   3.297  16.018  0.3169  1.1014 -0.2426
 8381TIP3    H246635   5.409   3.369  15.967 -0.2212  0.9362  0.7996
 8382TIP3   OH246636   2.385   3.029   5.580  0.3676  0.2812  0.2314
 8382TIP3    H146637   2.471   3.027   5.539  1.1330  0.8000  1.7771
 8382TIP3    H246638   2.324   3.047   5.508  1.4110 -1.2271 -1.0515
 8383TIP3   OH246639   6.351   0.364  12.742 -0.0998  0.5397 -0.3580
 8383TIP3    H146640   6.444   0.341  12.742  0.0676  1.2149 -0.3079
 8383TIP3    H246641   6.323   0.350  12.833  0.0034  0.5577 -0.3234
 8384TIP3   OH246642   3.072   3.114   6.746  0.1229 -0.1233 -0.1181
 8384TIP3    H146643   3.068   3.023   6.776 -0.5525  0.1959  0.7907
 8384TIP3    H246644   2.990   3.127   6.698  0.0116  0.1220  0.1309
 8385TIP3   OH246645   5.051   3.690   4.110 -0.2785  0.1339 -0.3725
 8385TIP3    H146646   5.128   3.692   4.168  0.0924  1.8675 -0.9093
 8385TIP3    H246647   5.085   3.659   4.026 -0.9755 -3.2515  0.4946
 8386TIP3   OH246648   2.192   0.256   4.672 -0.7121  0.1230  0.0592
 8386TIP3    H146649   2.225   0.336   4.714 -0.4441  0.9904 -1.7604
 8386TIP3    H246650   2.104   0.245   4.708 -0.9791  1.5743 -0.0882
 8387TIP3   OH246651   6.665   0.315   3.789 -0.6886 -0.5307  0.2771
 8387TIP3    H146652   6.692   0.262   3.863  2.7909 -0.1557 -0.6562
 8387TIP3    H246653   6.687   0.262   3.712 -2.5366 -0.1455 -0.5455
 8388TIP3   OH246654   1.841   3.428  14.149 -0.2020 -0.0767  0.0433
 8388TIP3    H146655   1.839   3.506  14.204 -0.0875 -0.8368  1.1355
 8388TIP3    H246656   1.752   3.392  14.155  0.3309 -1.2293  1.2944
 8389TIP3   OH246657   1.142   4.466  11.809  0.2355 -0.1724 -0.1085
 8389TIP3    H146658   1.127   4.506  11.723  1.0075 -0.5553 -0.4301
 8389TIP3    H246659   1.090   4.386  11.808 -0.1682  0.0883 -0.0179
 8390TIP3   OH246660   0.730   6.654   3.879 -0.2897 -0.2729  0.2207
 8390TIP3    H146661   0.728   6.718   3.808  1.0263 -0.5730 -0.1060
 8390TIP3    H246662   0.704   6.572   3.838 -1.1692 -0.1208  0.4609
 8391TIP3   OH246663   5.014   4.618  13.510 -0.2711 -1.1371  0.1796
 8391TIP3    H146664   4.956   4.543  13.521 -3.2109  0.9432 -0.6662
 8391TIP3    H246665   4.971   4.689  13.557  0.1669  1.1664 -2.7613
 8392TIP3   OH246666   2.213   3.668  16.465 -0.1005 -0.7708 -0.6315
 8392TIP3    H146667   2.263   3.625  16.395  1.4075 -0.2402  0.1067
 8392TIP3    H246668   2.162   3.597  16.504 -0.9449 -1.0786 -2.2570
 8393TIP3   OH246669   5.361   5.485  11.609  0.3967 -0.0179 -0.0946
 8393TIP3    H146670   5.375   5.421  11.539 -0.2135 -0.5034  0.2180
 8393TIP3    H246671   5.443   5.485  11.658  0.2358 -0.9278  0.1910
 8394TIP3   OH246672   4.790   4.809   2.511  0.0916 -0.1041 -0.0644
 8394TIP3    H146673   4.696   4.821   2.499  0.0555  0.2997  0.5959
 8394TIP3    H246674   4.800   4.718   2.536 -0.0263 -0.4099 -1.0873
 8395TIP3   OH246675   1.894   3.315  11.761  0.0742 -0.0925  0.7018
 8395TIP3    H146676   1.959   3.367  11.714 -0.1781  0.1718  0.6478
 8395TIP3    H246677   1.827   3.295  11.695  0.4912 -1.0461  0.5509
 8396TIP3   OH246678   2.765   5.648   2.376 -0.1344  0.0565  0.6811
 8396TIP3    H146679   2.792   5.706   2.447 -0.3169  0.4435  0.4431
 8396TIP3    H246680   2.805   5.564   2.396  2.7273  1.0528 -0.5997
 8397TIP3   OH246681   4.026   1.909  14.874  0.6478  0.9687  0.2640
 8397TIP3    H146682   4.001   1.884  14.785  0.0437  0.4758  0.5624
 8397TIP3    H246683   4.121   1.917  14.872  0.6171  1.1447 -0.4729
 8398TIP3   OH246684   3.358   1.889  11.394 -0.0689  0.7104  0.4515
 8398TIP3    H146685   3.431   1.832  11.370  0.7955  1.6504  0.7929
 8398TIP3    H246686   3.376   1.971  11.348 -0.7215  1.0643  0.8220
 8399TIP3   OH246687   2.733   2.121   1.678 -0.0609 -0.0641 -0.1542
 8399TIP3    H146688   2.798   2.170   1.628 -0.9620  0.1972 -1.0935
 8399TIP3    H246689   2.696   2.059   1.615 -1.1195  0.1763  0.2201
 8400TIP3   OH246690   5.929   6.173   3.901  0.4631  0.1233 -0.1778
 8400TIP3    H146691   5.894   6.261   3.918  1.1691  0.0327  1.9302
 8400TIP3    H246692   5.895   6.150   3.815 -0.9691  1.8627 -0.1182
 8401TIP3   OH246693   2.304   4.642  12.724  0.2105  0.5201 -0.0561
 8401TIP3    H146694   2.261   4.720  12.689 -2.5470 -1.2639 -0.7577
 8401TIP3    H246695   2.254   4.620  12.802  1.5759 -0.0005  0.6930
 8402TIP3   OH246696   1.636   0.948  12.365  0.2808  0.6603 -1.1168
 8402TIP3    H146697   1.560   0.910  12.322  0.4620  0.8315 -1.5882
 8402TIP3    H246698   1.644   0.900  12.448 -0.7826  1.1439 -0.7278
 8403TIP3   OH246699   3.188   5.263  16.665  0.0298  0.2191 -0.3074
 8403TIP3    H146700   3.116   5.286  16.607  0.5232  0.9718 -0.6301
 8403TIP3    H246701   3.200   5.341  16.720 -0.2926 -0.4059  0.6556
 8404TIP3   OH246702   1.122   0.971   6.318  0.3476  0.0541  0.0263
 8404TIP3    H146703   1.058   0.921   6.368  1.5228 -0.7270  0.7634
 8404TIP3    H246704   1.176   1.014   6.384  0.2706  1.1108 -0.5955
 8405TIP3   OH246705   5.734   1.053  11.106  0.8790 -0.6338 -0.1103
 8405TIP3    H146706   5.671   1.012  11.047 -0.0650 -0.8922  1.0569
 8405TIP3    H246707   5.792   1.103  11.048 -0.6675 -0.0275 -1.1638
 8406TIP3   OH246708   1.499   4.494   4.591  0.4479  0.2608  0.2111
 8406TIP3    H146709   1.430   4.543   4.545  0.4329 -0.2984 -0.3674
 8406TIP3    H246710   1.556   4.562   4.627 -0.6486  0.7454  1.0761
 8407TIP3   OH246711   6.538   2.553  14.526 -0.2876 -0.8409  0.2928
 8407TIP3    H146712   6.581   2.568  14.442  0.4627 -0.3431  0.7474
 8407TIP3    H246713   6.535   2.640  14.567 -1.0361 -1.0073  0.5895
 8408TIP3   OH246714   2.727   5.655   2.877 -0.0729 -0.2221 -0.2819
 8408TIP3    H146715   2.691   5.674   2.963 -1.2255 -1.9731 -0.3642
 8408TIP3    H246716   2.822   5.649   2.891 -0.3827 -1.9787  1.1480
 8409TIP3   OH246717   4.641   5.833   4.064  0.4093 -0.0444 -0.0311
 8409TIP3    H146718   4.551   5.844   4.094  1.2024  2.1175  1.7566
 8409TIP3    H246719   4.684   5.785   4.135  0.9369 -0.0604 -0.3592
 8410TIP3   OH246720   4.398   1.932  12.746 -0.5648 -0.5401 -0.2156
 8410TIP3    H146721   4.492   1.933  12.733 -0.4597 -0.6907  0.5231
 8410TIP3    H246722   4.386   1.908  12.838 -1.2803  0.7493  0.0485
 8411TIP3   OH246723   1.436   4.417   0.534 -0.1626  0.2618 -0.0421
 8411TIP3    H146724   1.366   4.354   0.518 -0.2117  0.2236  0.3336
 8411TIP3    H246725   1.423   4.485   0.467  1.0279 -1.0660 -1.6845
 8412TIP3   OH246726   1.170   0.472  15.430 -0.0181  0.5888  0.4221
 8412TIP3    H146727   1.219   0.393  15.454  0.2799  0.4718 -0.5667
 8412TIP3    H246728   1.164   0.469  15.335 -1.9517  0.5865  0.5093
 8413TIP3   OH246729   1.288   1.813   5.115  0.5069  0.2363 -0.1525
 8413TIP3    H146730   1.248   1.753   5.052 -1.1064 -1.0857  2.0586
 8413TIP3    H246731   1.239   1.799   5.195  1.0732  3.4846  0.8279
 8414TIP3   OH246732   1.290   4.231  16.171  0.3808 -0.3295 -0.1810
 8414TIP3    H146733   1.256   4.303  16.224 -1.0051 -0.6283 -0.6377
 8414TIP3    H246734   1.236   4.156  16.196 -1.1548 -0.1856 -2.9333
 8415TIP3   OH246735   6.563   4.358  11.990  0.2462 -0.3280  0.1468
 8415TIP3    H146736   6.495   4.426  11.993 -0.0500 -0.4958 -2.2457
 8415TIP3    H246737   6.517   4.278  12.014 -0.1773 -0.2619 -0.4272
 8416TIP3   OH246738   1.319   2.081  11.566 -0.3607  0.7325 -0.1603
 8416TIP3    H146739   1.283   2.164  11.597  0.0193  0.7168  0.3208
 8416TIP3    H246740   1.307   2.084  11.471 -0.1607  1.4266 -0.1656
 8417TIP3   OH246741   1.937   4.075   2.268 -0.4946 -0.0468  0.8378
 8417TIP3    H146742   2.011   4.027   2.306 -0.3977  0.4697  1.3076
 8417TIP3    H246743   1.934   4.157   2.318 -0.3371  0.6637 -0.2967
 8418TIP3   OH246744   2.864   3.734  13.962 -0.0984  0.0057  0.1128
 8418TIP3    H146745   2.951   3.753  13.995 -0.7586  0.3232  1.7304
 8418TIP3    H246746   2.837   3.656  14.010 -1.2873  0.7985  0.7790
 8419TIP3   OH246747   1.950   5.046  14.680 -0.4783  0.5983 -0.2250
 8419TIP3    H146748   1.908   4.966  14.712 -1.5161  0.9706 -0.6620
 8419TIP3    H246749   1.972   5.027  14.589  0.2950  0.4090 -0.0031
 8420TIP3   OH246750   0.104   5.805   0.711  0.3847  0.0169 -0.2225
 8420TIP3    H146751   0.088   5.743   0.639 -1.6694  2.4710 -1.9676
 8420TIP3    H246752   0.017   5.826   0.745  1.0344  1.9915  0.2690
 8421TIP3   OH246753   3.631   5.475   2.474  0.3372 -0.0689 -0.3210
 8421TIP3    H146754   3.537   5.468   2.459 -0.1815 -0.0567  2.5501
 8421TIP3    H246755   3.642   5.562   2.513  1.0038 -1.4760  2.7480
 8422TIP3   OH246756   3.154   2.656   0.589 -0.3467  0.0499 -0.0327
 8422TIP3    H146757   3.076   2.696   0.628 -1.4007 -0.3187 -1.7460
 8422TIP3    H246758   3.126   2.627   0.503  1.3562 -1.2304 -0.1797
 8423TIP3   OH246759   4.395   3.812   0.561 -0.0530  0.0148 -0.5709
 8423TIP3    H146760   4.417   3.881   0.498  3.3596 -0.2537  0.2297
 8423TIP3    H246761   4.324   3.764   0.520  1.0877  0.7433 -3.5550
 8424TIP3   OH246762   6.425   1.850   0.422  0.1639  0.3364 -0.3409
 8424TIP3    H146763   6.414   1.754   0.419 -0.9207  0.2958  3.0614
 8424TIP3    H246764   6.345   1.884   0.381  0.3259 -0.1925 -1.1141
 8425TIP3   OH246765   2.364   4.723  13.084 -0.0674  0.1299  0.0866
 8425TIP3    H146766   2.302   4.718  13.157 -1.1272 -1.5549 -0.8842
 8425TIP3    H246767   2.401   4.811  13.090  1.0432 -0.4923  3.5648
 8426TIP3   OH246768   2.933   5.398   4.737  0.9524  0.0122 -0.7455
 8426TIP3    H146769   2.850   5.363   4.770  0.8408  0.8428 -0.1183
 8426TIP3    H246770   2.917   5.491   4.726  1.0001 -0.2520 -3.1996
 8427TIP3   OH246771   1.020   6.358  14.991  0.9529 -0.5595 -0.2161
 8427TIP3    H146772   0.986   6.447  14.981  1.4708 -0.3464 -0.0723
 8427TIP3    H246773   0.943   6.302  14.981  0.8715 -0.1743 -1.8325
 8428TIP3   OH246774   4.694   0.640   5.488  0.0448  0.1458  0.1157
 8428TIP3    H146775   4.620   0.618   5.545  0.1201  2.2403  1.0608
 8428TIP3    H246776   4.762   0.578   5.513 -0.5601 -0.1846  1.0009
 8429TIP3   OH246777   0.546   2.309  11.850  0.6437  0.4444  0.1080
 8429TIP3    H146778   0.454   2.335  11.854  0.0104 -1.6329 -0.2622
 8429TIP3    H246779   0.568   2.315  11.757 -0.1281 -2.2859 -0.2922
 8430TIP3   OH246780   1.878   2.602   1.208  0.1973  0.0519  0.5029
 8430TIP3    H146781   1.860   2.681   1.158  0.0226 -0.6652 -0.5958
 8430TIP3    H246782   1.815   2.604   1.280 -1.3892 -0.2504 -0.8410
 8431TIP3   OH246783   4.367   6.698  11.637 -0.2379  0.0991  0.0671
 8431TIP3    H146784   4.457   6.689  11.605 -0.7826 -3.4154 -0.6951
 8431TIP3    H246785   4.316   6.713  11.557 -0.5598 -0.1197  0.2303
 8432TIP3   OH246786   2.829   1.094   0.056 -0.4790  0.3569  0.1629
 8432TIP3    H146787   2.901   1.138   0.010  0.6373 -1.2734  0.2951
 8432TIP3    H246788   2.868   1.064   0.138 -0.1012 -4.2182 -1.5605
 8433TIP3   OH246789   2.686   3.676   5.848  0.2563  0.3907 -0.0420
 8433TIP3    H146790   2.654   3.754   5.893 -0.7456 -0.6519  1.0738
 8433TIP3    H246791   2.713   3.617   5.918  0.8369 -0.3529 -0.8827
 8434TIP3   OH246792   5.373   1.720   3.707 -0.3250 -0.9040  0.3627
 8434TIP3    H146793   5.358   1.671   3.787  0.6544 -1.3535  0.2763
 8434TIP3    H246794   5.346   1.810   3.728 -0.6543 -1.1544  1.0000
 8435TIP3   OH246795   5.918   6.069  12.371  0.4502 -0.1204  0.8078
 8435TIP3    H146796   5.946   5.992  12.321  0.9356 -0.6452  1.8900
 8435TIP3    H246797   5.923   6.043  12.462 -2.4659  0.1618  1.1117
 8436TIP3   OH246798   0.617   2.228   4.756 -0.3676  0.6903 -0.7220
 8436TIP3    H146799   0.701   2.272   4.769 -0.5324  1.0014 -0.6869
 8436TIP3    H246800   0.606   2.224   4.661 -0.1417  0.3121 -0.7343
 8437TIP3   OH246801   0.065   3.848  14.548 -0.5534 -0.2300  0.2708
 8437TIP3    H146802   0.037   3.768  14.593 -0.4145  1.0105  2.6676
 8437TIP3    H246803   0.017   3.918  14.592 -1.3275  0.9575 -2.3728
 8438TIP3   OH246804   5.347   6.248   4.149 -0.3539  0.0668 -0.0091
 8438TIP3    H146805   5.410   6.189   4.190  0.0547  0.5785  0.1087
 8438TIP3    H246806   5.273   6.249   4.208  0.1211  0.5828  0.5847
 8439TIP3   OH246807   5.147   2.851   4.155  0.2882 -0.3571 -0.1214
 8439TIP3    H146808   5.168   2.765   4.190  3.0525  0.5594  0.5943
 8439TIP3    H246809   5.086   2.889   4.219 -0.1468 -1.3749  0.0752
 8440TIP3   OH246810   0.978   1.288  10.399 -0.3952 -0.5682  0.2486
 8440TIP3    H146811   0.897   1.330  10.426  0.7955  0.4552  2.3548
 8440TIP3    H246812   0.956   1.195  10.393 -2.4902  0.0457 -2.3044
 8441TIP3   OH246813   5.559   5.887   1.127 -0.0821 -0.1404 -0.2878
 8441TIP3    H146814   5.595   5.800   1.115  0.6170  0.2092 -0.7523
 8441TIP3    H246815   5.611   5.943   1.069 -0.1603  0.6724  0.4210
 8442TIP3   OH246816   2.429   1.414  15.179  0.0060 -0.5385  0.2016
 8442TIP3    H146817   2.409   1.431  15.271  0.3836  0.4146  0.1147
 8442TIP3    H246818   2.525   1.420  15.174  0.0497 -1.4370 -0.0883
 8443TIP3   OH246819   5.529   6.462  15.542 -0.6503 -0.1667  0.0060
 8443TIP3    H146820   5.512   6.480  15.634  0.5576 -3.0410  0.8528
 8443TIP3    H246821   5.600   6.522  15.518  0.0340 -0.4118  1.3808
 8444TIP3   OH246822   6.245   1.748   3.046  0.1057 -0.1897 -0.6961
 8444TIP3    H146823   6.164   1.727   3.091 -0.0531  0.1666 -0.8157
 8444TIP3    H246824   6.311   1.691   3.086 -0.0843 -0.0593 -0.2002
 8445TIP3   OH246825   5.203   3.122   5.597  0.0790 -0.2592  0.0054
 8445TIP3    H146826   5.166   3.143   5.511  1.4860  1.3627 -0.2400
 8445TIP3    H246827   5.159   3.041   5.623 -1.5385  0.0838 -1.5241
 8446TIP3   OH246828   6.779   1.300  10.885 -0.6658 -0.2831 -0.1625
 8446TIP3    H146829   6.765   1.333  10.974  0.5998  0.3755 -0.2046
 8446TIP3    H246830   6.829   1.368  10.841 -0.2898 -1.1119 -1.0475
 8447TIP3   OH246831   0.930   1.368  16.268  0.3058 -0.0035  0.3424
 8447TIP3    H146832   0.883   1.411  16.197 -0.6632  1.7118  1.9740
 8447TIP3    H246833   0.883   1.286  16.281  0.1864 -0.1011 -0.6599
 8448TIP3   OH246834   0.652   5.620  15.942  0.2412 -0.4012  0.8068
 8448TIP3    H146835   0.739   5.633  15.903  0.4406 -1.1852  0.9828
 8448TIP3    H246836   0.660   5.656  16.030  0.2845 -0.1628  0.7068
 8449TIP3   OH246837   5.290   1.149   0.637  0.3653  0.1229 -0.4803
 8449TIP3    H146838   5.344   1.134   0.560 -1.0490 -0.3663 -1.4061
 8449TIP3    H246839   5.308   1.240   0.662 -0.1329  0.7165 -2.1896
 8450TIP3   OH246840   2.970   6.680   3.755 -0.5264 -0.5164 -0.1012
 8450TIP3    H146841   2.922   6.715   3.679 -1.2426 -0.2964  0.4477
 8450TIP3    H246842   2.995   6.758   3.805  1.6460 -0.5386 -1.1048
 8451TIP3   OH246843   0.569   2.934  11.168  0.0530 -0.1921 -0.2676
 8451TIP3    H146844   0.604   2.860  11.118 -0.9470 -0.9843  0.2035
 8451TIP3    H246845   0.477   2.938  11.144 -0.0931  0.3654  0.3826
 8452TIP3   OH246846   3.820   2.348  16.521 -0.2650  0.3076 -0.5521
 8452TIP3    H146847   3.838   2.308  16.606 -0.0564 -0.0204 -0.7537
 8452TIP3    H246848   3.744   2.405  16.537 -0.9658 -0.6558 -0.4234
 8453TIP3   OH246849   1.724   4.560   4.016  0.0461 -0.1180 -0.2068
 8453TIP3    H146850   1.790   4.496   4.042 -0.1483  0.0228  0.6393
 8453TIP3    H246851   1.671   4.515   3.950 -0.2870 -0.9385  0.6181
 8454TIP3   OH246852   0.285   3.238  15.539 -0.2889 -0.2594  0.8950
 8454TIP3    H146853   0.364   3.186  15.552  0.0292 -0.0902 -0.3268
 8454TIP3    H246854   0.236   3.192  15.471 -0.6919  0.2616  0.8307
 8455TIP3   OH246855   3.869   0.781   3.449 -0.3432  0.2464  0.1613
 8455TIP3    H146856   3.854   0.777   3.355 -1.6091 -1.4973  0.3971
 8455TIP3    H246857   3.870   0.689   3.476  2.0514  0.6433  1.5528
 8456TIP3   OH246858   4.526   3.677  17.094 -0.3608  0.5409  0.2059
 8456TIP3    H146859   4.535   3.591  17.053 -0.6203 -0.0474  1.3541
 8456TIP3    H246860   4.546   3.662  17.186 -2.6238  1.2682  0.8513
 8457TIP3   OH246861   4.721   0.917   3.599  0.0441 -0.6012  0.4063
 8457TIP3    H146862   4.711   0.945   3.508 -0.6587 -0.9110  0.3850
 8457TIP3    H246863   4.641   0.869   3.618  1.0272 -2.2080  0.5848
 8458TIP3   OH246864   4.014   0.571   4.076  0.4595 -0.3818  0.1204
 8458TIP3    H146865   4.054   0.605   4.155  1.4657 -1.1120 -0.0608
 8458TIP3    H246866   4.086   0.567   4.012  0.1854 -1.9882 -0.1184
 8459TIP3   OH246867   6.481   4.100   4.135 -0.4104 -0.2066  0.6617
 8459TIP3    H146868   6.433   4.031   4.182  1.1759 -0.7810  1.4881
 8459TIP3    H246869   6.572   4.072   4.140 -0.1616 -0.0284 -2.4111
 8460TIP3   OH246870   2.030   4.969   1.871 -0.4933  0.5115  0.0648
 8460TIP3    H146871   2.018   4.997   1.962 -1.3087  1.2042 -0.2451
 8460TIP3    H246872   1.970   4.895   1.862 -1.7909  1.5992 -0.4171
 8461TIP3   OH246873   6.813   3.223   6.186  0.0903 -0.1649 -0.3201
 8461TIP3    H146874   6.807   3.287   6.115 -0.5222 -0.1037 -0.2171
 8461TIP3    H246875   6.907   3.212   6.200  0.2090  0.3090 -0.7023
 8462TIP3   OH246876   3.596   6.363   0.615  1.0886 -0.4187  0.3177
 8462TIP3    H146877   3.511   6.373   0.658  2.1237  1.5886  1.9965
 8462TIP3    H246878   3.646   6.307   0.674  1.5409 -0.0987  0.2345
 8463TIP3   OH246879   3.095   3.317  12.354 -0.4598  0.5797 -0.5374
 8463TIP3    H146880   3.013   3.351  12.389 -0.8888  0.2361 -1.2131
 8463TIP3    H246881   3.091   3.333  12.260  1.4113  2.9993 -0.2530
 8464TIP3   OH246882   3.293   6.198  14.790 -0.1409 -0.5137  0.6489
 8464TIP3    H146883   3.275   6.221  14.699  1.4227  2.5062  1.0388
 8464TIP3    H246884   3.217   6.229  14.838  0.3818  0.6625  0.7296
 8465TIP3   OH246885   2.182   3.722  15.518 -0.1206 -0.2322  0.4046
 8465TIP3    H146886   2.108   3.691  15.466  0.1536 -1.5510  0.8046
 8465TIP3    H246887   2.153   3.715  15.609  0.5998 -1.0335  0.5745
 8466TIP3   OH246888   3.899   0.088   4.088  0.0764 -0.4603  0.3381
 8466TIP3    H146889   3.916   0.078   4.181 -1.4957 -1.4662  0.5231
 8466TIP3    H246890   3.963   0.032   4.045  1.6910  1.0405  0.7442
 8467TIP3   OH246891   2.507   6.079  12.441  0.0620 -0.3263  0.5172
 8467TIP3    H146892   2.487   6.170  12.463  2.0960 -0.2840  2.3900
 8467TIP3    H246893   2.545   6.042  12.521 -0.8019 -2.8591 -0.1740
 8468TIP3   OH246894   3.704   1.081   0.646 -0.6995  0.7409  0.3430
 8468TIP3    H146895   3.677   1.143   0.714 -2.4565  0.6283 -0.2119
 8468TIP3    H246896   3.644   1.097   0.574 -0.0896 -0.4570 -0.4483
 8469TIP3   OH246897   3.400   5.452  14.810 -0.4005 -0.0952  0.6674
 8469TIP3    H146898   3.477   5.422  14.860  0.0549  1.4110  0.8760
 8469TIP3    H246899   3.327   5.403  14.848  0.0271  0.6059  2.4605
 8470TIP3   OH246900   3.621   5.004  15.097  0.5823 -0.0340  0.0919
 8470TIP3    H146901   3.553   4.971  15.038 -0.7519  1.2519  0.8724
 8470TIP3    H246902   3.680   4.929  15.110  0.4642 -0.5662 -2.2195
 8471TIP3   OH246903   3.941   0.965  14.267 -0.1449 -0.1035 -0.2180
 8471TIP3    H146904   3.859   1.012  14.252 -0.5693 -0.8257 -0.1771
 8471TIP3    H246905   3.932   0.929  14.355  1.3363  2.0901  0.8939
 8472TIP3   OH246906   6.142   1.731  13.497 -0.0854  0.3740  0.1521
 8472TIP3    H146907   6.097   1.675  13.561 -0.4553  1.0892  0.5147
 8472TIP3    H246908   6.099   1.816  13.504  1.1622  0.9906  0.3200
 8473TIP3   OH246909   0.932   6.105   1.786  0.4294 -0.4139 -0.8418
 8473TIP3    H146910   1.024   6.131   1.784  0.1646  0.7811  1.2550
 8473TIP3    H246911   0.931   6.024   1.838  0.3339 -0.5705 -1.0879
 8474TIP3   OH246912   6.063   6.760  16.810  0.3934  0.1841  0.0484
 8474TIP3    H146913   6.066   6.714  16.894 -2.1503 -0.5592 -0.2277
 8474TIP3    H246914   6.126   6.831  16.819  1.3048 -0.8289  2.0066
 8475TIP3   OH246915   0.903   5.010   6.517  0.2418  0.0875  0.0077
 8475TIP3    H146916   0.979   4.963   6.482 -1.1929 -1.6505 -0.8399
 8475TIP3    H246917   0.940   5.069   6.583  2.4273 -0.0880 -1.0080
 8476TIP3   OH246918   5.137   3.761   5.985  0.4855 -0.0898  0.7210
 8476TIP3    H146919   5.112   3.677   6.023  0.6933 -0.0855  0.8716
 8476TIP3    H246920   5.066   3.783   5.925  0.8681 -0.8143 -0.0050
 8477TIP3   OH246921   5.946   1.726  13.143 -0.4826 -0.1254  0.2001
 8477TIP3    H146922   6.024   1.673  13.152 -0.1577  0.3483  0.2040
 8477TIP3    H246923   5.882   1.685  13.201 -0.5059 -1.0093 -0.4534
 8478TIP3   OH246924   2.322   4.790   3.602 -0.1494 -0.1655  0.0060
 8478TIP3    H146925   2.411   4.760   3.621  0.5680  0.9923 -1.3939
 8478TIP3    H246926   2.273   4.772   3.681  1.5311 -0.0847  1.0931
 8479TIP3   OH246927   5.383   0.732  14.480 -0.0281 -0.0212 -0.4399
 8479TIP3    H146928   5.451   0.782  14.436 -0.2758  1.3362  0.6970
 8479TIP3    H246929   5.341   0.682  14.410  1.9063 -0.6410 -1.2024
 8480TIP3   OH246930   3.171   3.954   5.318 -0.5663 -0.1901  0.0866
 8480TIP3    H146931   3.150   3.887   5.253  1.0051 -0.6296  0.0046
 8480TIP3    H246932   3.239   4.007   5.276 -0.1100  0.0091  1.0697
 8481TIP3   OH246933   0.989   2.032   2.805 -0.1396 -0.2992 -0.2154
 8481TIP3    H146934   0.914   2.035   2.864 -0.9577  0.1953 -1.2726
 8481TIP3    H246935   0.965   1.967   2.739  1.1866 -1.5909  0.5366
 8482TIP3   OH246936   3.672   4.556  16.233 -0.4615  0.5217 -0.2523
 8482TIP3    H146937   3.579   4.574  16.221 -0.8424 -1.2644 -0.2327
 8482TIP3    H246938   3.674   4.469  16.273  1.2072  0.7670  0.2392
 8483TIP3   OH246939   1.389   1.869   3.173  0.1033 -0.4872  0.2906
 8483TIP3    H146940   1.481   1.892   3.187 -0.3327  1.9510 -0.6260
 8483TIP3    H246941   1.360   1.926   3.101 -1.4925 -2.8736 -1.0412
 8484TIP3   OH246942   1.218   2.984   2.201 -0.4151 -0.4517  0.4167
 8484TIP3    H146943   1.300   3.032   2.207  0.3595 -1.8334  1.1809
 8484TIP3    H246944   1.179   3.012   2.118  0.4062  0.8578  0.4660
 8485TIP3   OH246945   6.768   5.238  14.489  0.8409  0.0908 -0.7310
 8485TIP3    H146946   6.736   5.228  14.399  0.8567  0.1223 -0.7398
 8485TIP3    H246947   6.689   5.254  14.541  0.6645 -1.4661 -0.5143
 8486TIP3   OH246948   5.261   3.312  16.561  0.2781  0.1252 -0.2735
 8486TIP3    H146949   5.237   3.367  16.486  0.9338  1.6546  0.6199
 8486TIP3    H246950   5.178   3.283  16.597 -0.0518 -0.3172 -1.3714
 8487TIP3   OH246951   0.304   6.216   2.985  0.3151  0.0742  0.4311
 8487TIP3    H146952   0.308   6.127   3.020 -1.9892 -0.1915  0.0973
 8487TIP3    H246953   0.395   6.236   2.959  1.4652 -0.8987  3.5091
 8488TIP3   OH246954   2.440   5.938  14.202  0.3492  0.6937 -0.2533
 8488TIP3    H146955   2.513   5.946  14.264  0.1598  3.0811 -0.2706
 8488TIP3    H246956   2.404   5.851  14.217  0.8220  0.9331  2.4481
 8489TIP3   OH246957   3.159   1.981   3.723 -0.4386 -0.0815  0.0787
 8489TIP3    H146958   3.194   1.977   3.812 -0.7039 -0.6932  0.1576
 8489TIP3    H246959   3.067   1.959   3.733 -0.4732 -0.1312 -0.3479
 8490TIP3   OH246960   5.809   5.606   3.671  0.1542  0.1271  0.3419
 8490TIP3    H146961   5.782   5.518   3.647  1.4884 -0.6289  1.5663
 8490TIP3    H246962   5.747   5.663   3.625  0.1556 -1.3812 -1.6019
 8491TIP3   OH246963   0.676   0.623   4.594  0.5706  0.0702  0.7024
 8491TIP3    H146964   0.592   0.619   4.547  0.6825 -0.5909  0.5508
 8491TIP3    H246965   0.728   0.685   4.543  1.1936 -1.7165 -0.8982
 8492TIP3   OH246966   3.571   2.328  12.057  0.1018 -0.6511  0.3751
 8492TIP3    H146967   3.563   2.271  12.133  1.7873 -2.3178 -0.6611
 8492TIP3    H246968   3.482   2.338  12.025 -0.3612 -1.6561  1.3293
 8493TIP3   OH246969   4.356   6.337   5.061  0.1000  0.5057 -0.1475
 8493TIP3    H146970   4.297   6.385   5.003  0.2811  3.0139  1.6503
 8493TIP3    H246971   4.316   6.345   5.148  1.1736 -0.9415  0.4991
 8494TIP3   OH246972   0.419   1.659   2.449 -0.5230 -0.6912 -0.5006
 8494TIP3    H146973   0.429   1.674   2.355 -0.1887 -1.0552 -0.5223
 8494TIP3    H246974   0.403   1.746   2.486  2.0176 -0.1780 -0.5379
 8495TIP3   OH246975   2.780   4.801   1.618 -0.3897 -0.0599  0.0037
 8495TIP3    H146976   2.845   4.788   1.687  0.4515  2.0738 -0.3166
 8495TIP3    H246977   2.827   4.778   1.537 -0.3149  0.5745 -0.1394
 8496TIP3   OH246978   6.478   0.211  15.705  0.5688 -0.4744  0.1991
 8496TIP3    H146979   6.398   0.174  15.668  0.5465  0.0107 -0.2434
 8496TIP3    H246980   6.458   0.305  15.715  0.4971 -0.6272  1.6323
 8497TIP3   OH246981   6.359   1.529  13.737  0.6419  0.1707 -0.1968
 8497TIP3    H146982   6.287   1.469  13.717  1.7206 -1.1248 -0.2764
 8497TIP3    H246983   6.356   1.541  13.832 -0.0394  0.5832 -0.2721
 8498TIP3   OH246984   0.967   4.919   3.513 -0.1312  0.0931  0.2784
 8498TIP3    H146985   0.914   4.966   3.577  0.3918  0.7245  0.2467
 8498TIP3    H246986   0.910   4.907   3.438  0.2898  2.2397 -0.4003
 8499TIP3   OH246987   2.254   6.021   1.769 -1.1777 -0.0714 -0.1944
 8499TIP3    H146988   2.306   5.941   1.759 -2.7460 -0.8821 -2.1030
 8499TIP3    H246989   2.304   6.087   1.721 -0.1767 -0.0063  0.8961
 8500TIP3   OH246990   6.758   0.539   4.018  0.3116  0.3039  0.4202
 8500TIP3    H146991   6.788   0.448   4.014  0.1341  0.2821 -0.6027
 8500TIP3    H246992   6.793   0.579   3.938 -0.3925  0.8898  0.3994
 8501TIP3   OH246993   0.023   4.350  15.889 -0.4992 -0.3890 -0.4585
 8501TIP3    H146994  -0.032   4.357  15.810 -2.0020 -0.8081  0.5233
 8501TIP3    H246995  -0.000   4.428  15.940 -0.0089 -0.4588 -0.1335
 8502TIP3   OH246996   1.501   3.219  17.171 -0.0328  0.1304 -0.1486
 8502TIP3    H146997   1.488   3.311  17.196  2.5917  0.9914 -1.7833
 8502TIP3    H246998   1.439   3.205  17.099 -0.5431  0.5583  0.1999
 8503TIP3   OH246999   4.872   2.192  14.158 -0.0115 -0.0440 -0.1497
 8503TIP3    H147000   4.869   2.213  14.065 -0.8461 -0.7930 -0.3090
 8503TIP3    H247001   4.932   2.118  14.164 -1.8067 -1.5768 -0.4464
 8504TIP3   OH247002   0.544   6.251  13.909  0.2416  0.4386  0.2156
 8504TIP3    H147003   0.547   6.318  13.840 -0.4502  0.9732  0.6951
 8504TIP3    H247004   0.487   6.289  13.976 -0.0560 -0.5858  0.5476
 8505TIP3   OH247005   1.894   2.697   5.249  0.3285 -0.0006  0.7396
 8505TIP3    H147006   1.814   2.688   5.198  0.3912  0.8847  0.4767
 8505TIP3    H247007   1.883   2.636   5.321 -0.1291 -0.6483  0.1341
 8506TIP3   OH247008   0.711   2.907  17.058 -0.2768 -0.8470 -0.0634
 8506TIP3    H147009   0.805   2.897  17.048 -0.1070 -0.4731  1.0627
 8506TIP3    H247010   0.688   2.985  17.008  0.4725  0.7414  1.9889
 8507TIP3   OH247011   0.058   2.025   1.560  0.1401 -0.5833  0.0674
 8507TIP3    H147012  -0.035   2.050   1.566  0.4703  0.1477  3.1036
 8507TIP3    H247013   0.103   2.087   1.617  2.8437  0.4389 -3.0163
 8508TIP3   OH247014   2.372   2.645   3.992 -0.1023 -0.2524 -0.5917
 8508TIP3    H147015   2.459   2.670   3.962 -0.1399 -0.8243 -1.1786
 8508TIP3    H247016   2.346   2.572   3.936 -0.6986 -0.5064 -0.0037
 8509TIP3   OH247017   5.172   6.466   0.404 -0.0988  0.0921 -0.0668
 8509TIP3    H147018   5.140   6.544   0.450  0.2603 -0.2509  0.7734
 8509TIP3    H247019   5.188   6.403   0.473 -0.5757 -0.8062 -0.7637
 8510TIP3   OH247020   6.703   2.962   2.341  0.0171  0.0827 -0.5918
 8510TIP3    H147021   6.787   3.004   2.361  0.0234  1.2401 -2.8020
 8510TIP3    H247022   6.638   3.026   2.370 -0.0293  0.3958 -1.3718
 8511TIP3   OH247023   6.274   2.404  16.717 -0.3620 -0.2396 -0.0605
 8511TIP3    H147024   6.273   2.397  16.621 -0.2009 -2.0842  0.0519
 8511TIP3    H247025   6.189   2.441  16.739 -0.1257  0.8584 -0.9608
 8512TIP3   OH247026   6.229   4.337  16.671  0.2894  0.0082  0.0189
 8512TIP3    H147027   6.206   4.283  16.596  3.8870  1.0664 -1.9707
 8512TIP3    H247028   6.207   4.426  16.645 -0.8746  0.0948  1.2659
 8513TIP3   OH247029   5.854   0.666   2.227 -0.0496 -0.2066  0.1710
 8513TIP3    H147030   5.851   0.744   2.283  0.2240  0.9276 -1.3455
 8513TIP3    H247031   5.835   0.593   2.286  0.9187  0.8772  1.8537
 8514TIP3   OH247032   5.955   2.572  11.047 -0.0184  0.3780 -0.2415
 8514TIP3    H147033   6.034   2.623  11.062  0.7353 -0.9019  0.3003
 8514TIP3    H247034   5.946   2.569  10.952  1.9009 -1.3713 -0.4079
 8515TIP3   OH247035   2.918   2.799  15.747 -0.5425 -0.4249 -0.0834
 8515TIP3    H147036   2.872   2.829  15.669  0.3282  0.4849 -0.2461
 8515TIP3    H247037   2.875   2.716  15.770 -0.5862 -0.8577 -1.7058
 8516TIP3   OH247038   4.710   0.983   5.330 -0.0577 -0.4167  0.0749
 8516TIP3    H147039   4.664   0.900   5.338  0.5790 -0.6732  1.0743
 8516TIP3    H247040   4.782   0.965   5.269 -0.6533 -0.2700 -0.6895
 8517TIP3   OH247041   3.716   4.917   5.369  0.1886  0.1287  0.4310
 8517TIP3    H147042   3.715   4.893   5.276  0.9079 -0.5838  0.6082
 8517TIP3    H247043   3.737   5.010   5.369  0.5469  0.0516 -0.1061
 8518TIP3   OH247044   1.214   3.414  14.466  0.4138 -0.4311  0.0800
 8518TIP3    H147045   1.303   3.444  14.484  0.2761  0.0957 -0.1049
 8518TIP3    H247046   1.212   3.324  14.497  1.6355 -1.1441 -1.8691
 8519TIP3   OH247047   4.627   0.311  12.021  0.0422  0.2240 -0.0579
 8519TIP3    H147048   4.705   0.314  12.078  0.1316  0.0688 -0.1739
 8519TIP3    H247049   4.660   0.337  11.935  0.1667 -0.8925 -0.3432
 8520TIP3   OH247050   3.444   5.902   6.064 -0.6467  0.2142  0.3577
 8520TIP3    H147051   3.427   5.830   6.002  0.9377  0.4834 -0.4255
 8520TIP3    H247052   3.539   5.912   6.062 -0.7242  1.2431  1.7155
 8521TIP3   OH247053   5.529   6.546   2.683  0.1974 -0.3926  0.2906
 8521TIP3    H147054   5.613   6.556   2.638 -0.6630 -3.0833 -2.0623
 8521TIP3    H247055   5.478   6.621   2.655  1.9614  1.5929  2.1993
 8522TIP3   OH247056   6.772   4.683   1.514 -0.0131  0.4003 -0.3706
 8522TIP3    H147057   6.838   4.627   1.556  0.2214  1.4170  0.6284
 8522TIP3    H247058   6.748   4.635   1.434  0.9579 -0.6178 -0.0690
 8523TIP3   OH247059   2.046   1.411   2.370 -0.6861  0.0241 -0.0050
 8523TIP3    H147060   1.986   1.421   2.296  1.8305  1.7414 -1.8936
 8523TIP3    H247061   2.012   1.472   2.436 -1.7944 -0.0264 -0.5206
 8524TIP3   OH247062   3.052   3.589   0.613 -0.3137  0.2879 -0.3499
 8524TIP3    H147063   3.146   3.604   0.622 -0.4209  0.6824  0.1551
 8524TIP3    H247064   3.043   3.494   0.608  0.2146  0.2911 -1.6624
 8525TIP3   OH247065   1.135   5.205  12.544 -0.0502  0.7903  0.6338
 8525TIP3    H147066   1.181   5.247  12.471 -1.7519 -0.6665 -1.3343
 8525TIP3    H247067   1.204   5.159  12.592  1.1652  2.1507  0.2328
 8526TIP3   OH247068   6.784   2.814   6.492  0.5720  0.4420  0.1259
 8526TIP3    H147069   6.796   2.746   6.559  0.7434  0.0502 -0.3020
 8526TIP3    H247070   6.689   2.829   6.489  0.4752 -0.2354 -0.2313
 8527TIP3   OH247071   3.130   0.118   3.721  0.0594  0.0283  0.0195
 8527TIP3    H147072   3.121   0.110   3.626 -0.8025 -0.2296  0.1145
 8527TIP3    H247073   3.106   0.209   3.739  0.7656  0.2356 -0.0645
 8528TIP3   OH247074   5.971   1.640  13.769  0.2314  0.7233  0.0053
 8528TIP3    H147075   6.055   1.628  13.814  1.2670  0.4310 -1.9574
 8528TIP3    H247076   5.939   1.551  13.756  1.3748  0.6317 -2.4416
 8529TIP3   OH247077   6.632   2.744   4.728  0.1697 -0.6144  0.1171
 8529TIP3    H147078   6.542   2.754   4.699  0.4324 -0.2148 -0.5724
 8529TIP3    H247079   6.676   2.703   4.654  1.0881  1.3803 -0.4815
 8530TIP3   OH247080   2.580   3.302  13.463  0.4693 -0.5884 -0.4240
 8530TIP3    H147081   2.623   3.241  13.523  1.7635  1.6297  0.9537
 8530TIP3    H247082   2.647   3.323  13.398 -0.1928 -1.1186 -1.3069
 8531TIP3   OH247083   2.268   3.663  13.807  0.4500  0.1081  0.5771
 8531TIP3    H147084   2.314   3.602  13.865 -0.7012 -0.2052  1.1793
 8531TIP3    H247085   2.245   3.611  13.730  0.6649  0.1264  0.5029
 8532TIP3   OH247086   1.496   0.436  11.665  0.2570  1.2796  0.3057
 8532TIP3    H147087   1.446   0.472  11.738  2.0787  2.9251  0.7916
 8532TIP3    H247088   1.445   0.360  11.636 -1.6122  1.8943  1.8591
 8533TIP3   OH247089   5.774   6.285  10.586 -0.3645 -0.0707  0.1942
 8533TIP3    H147090   5.785   6.377  10.609 -1.1058  0.4457 -1.4352
 8533TIP3    H247091   5.718   6.250  10.655 -0.5826  0.8515  0.4934
 8534TIP3   OH247092   4.634   1.476   4.861  0.1710  0.4360 -0.1597
 8534TIP3    H147093   4.583   1.548   4.825 -0.8476 -0.2158 -0.0668
 8534TIP3    H247094   4.713   1.516   4.896 -0.5930  1.5508  0.2875
 8535TIP3   OH247095   3.439   6.228  11.637 -0.2818 -0.0502  0.1148
 8535TIP3    H147096   3.412   6.304  11.585 -0.1116 -1.1986 -1.7275
 8535TIP3    H247097   3.452   6.262  11.725 -1.2823  1.8318 -0.4368
 8536TIP3   OH247098   6.303   1.456  16.628 -0.1946  0.2565  0.4893
 8536TIP3    H147099   6.223   1.463  16.680 -0.6372 -2.8790  0.3448
 8536TIP3    H247100   6.272   1.440  16.539  0.5499 -1.7853  0.5673
 8537TIP3   OH247101   1.523   0.514  10.923  0.3295  0.7273  0.3104
 8537TIP3    H147102   1.542   0.457  10.849 -0.1081  2.2185 -0.9763
 8537TIP3    H247103   1.577   0.592  10.908 -0.3801  1.3906  1.1275
 8538TIP3   OH247104   2.720   5.180  15.635 -0.1072 -0.1480 -0.4263
 8538TIP3    H147105   2.744   5.180  15.728  0.8250 -0.9313 -0.6609
 8538TIP3    H247106   2.647   5.241  15.630 -0.3576 -0.3121  0.8728
 8539TIP3   OH247107   5.079   3.978   3.588  0.4020 -0.1317  0.3066
 8539TIP3    H147108   5.138   4.019   3.524  0.6726 -0.4910  0.3261
 8539TIP3    H247109   5.048   3.899   3.544  0.0141  0.0023  0.3393
 8540TIP3   OH247110   3.373   0.093  12.805  0.5467  0.3320 -0.0395
 8540TIP3    H147111   3.314   0.168  12.797  1.6303  1.1169 -0.8568
 8540TIP3    H247112   3.451   0.128  12.846  0.0643 -0.9304  1.9975
 8541TIP3   OH247113   3.112   2.574   4.064  0.1049 -0.5117  0.1915
 8541TIP3    H147114   3.079   2.530   4.142  0.6621 -1.4433 -0.0772
 8541TIP3    H247115   3.085   2.517   3.991  0.8137 -0.4043 -0.1659
 8542TIP3   OH247116   5.804   2.833   1.494  0.3186  0.4155  0.0819
 8542TIP3    H147117   5.861   2.817   1.419 -0.9493 -4.4885  0.0117
 8542TIP3    H247118   5.730   2.881   1.457  0.2305 -0.9619 -1.6032
 8543TIP3   OH247119   6.123   5.513   2.933  0.1262 -0.3245 -0.1466
 8543TIP3    H147120   6.211   5.550   2.935  0.1796 -0.3634 -1.2466
 8543TIP3    H247121   6.137   5.419   2.946  0.2454 -0.3201 -0.2364
 8544TIP3   OH247122   4.049   4.248   0.539 -0.7246 -0.2644  0.3633
 8544TIP3    H147123   4.034   4.323   0.480 -1.0007  0.2606  1.0848
 8544TIP3    H247124   4.139   4.258   0.568 -0.6932 -0.3357  0.2901
 8545TIP3   OH247125   2.169   5.495   5.506 -0.3806  0.0769  0.0465
 8545TIP3    H147126   2.159   5.507   5.601 -3.0851  0.5194 -0.2555
 8545TIP3    H247127   2.212   5.575   5.476 -1.5859  0.9289  0.5842
 8546TIP3   OH247128   6.337   5.836   4.020  0.2591  0.1679  0.4106
 8546TIP3    H147129   6.285   5.914   4.035 -1.8014 -1.2326  0.7549
 8546TIP3    H247130   6.411   5.843   4.081 -0.7380  1.0940  1.5211
 8547TIP3   OH247131   3.001   1.478  12.528  0.2651 -0.1093 -0.0415
 8547TIP3    H147132   3.090   1.445  12.514  0.5553  0.8315 -0.4503
 8547TIP3    H247133   2.962   1.477  12.440 -0.0296 -0.2231  0.0922
 8548TIP3   OH247134   6.667   0.840  16.083  0.2380  0.3346 -0.5811
 8548TIP3    H147135   6.666   0.927  16.122  1.3075 -0.8558  2.2604
 8548TIP3    H247136   6.576   0.810  16.088 -0.2003  1.3930 -1.9045
 8549TIP3   OH247137   2.312   3.454  11.340 -0.2407 -0.0633 -0.5089
 8549TIP3    H147138   2.362   3.536  11.347 -0.3430 -0.1329  1.3891
 8549TIP3    H247139   2.350   3.397  11.407 -1.7556 -0.7038 -0.1679
 8550TIP3   OH247140   6.098   2.768  16.755 -0.9314 -0.3958 -0.0413
 8550TIP3    H147141   6.046   2.740  16.830 -0.7138  0.8071  0.5677
 8550TIP3    H247142   6.188   2.753  16.782 -0.7565  1.8167  0.6984
 8551TIP3   OH247143   2.222   5.790   5.501  0.6832 -0.0486  0.2034
 8551TIP3    H147144   2.175   5.873   5.495 -1.0737 -0.8556  2.0076
 8551TIP3    H247145   2.312   5.815   5.525 -0.0764  1.3072  1.7839
 8552TIP3   OH247146   1.209   5.710  14.639  0.2939  0.1103  0.5554
 8552TIP3    H147147   1.199   5.694  14.732 -0.2398  0.4423  0.5559
 8552TIP3    H247148   1.276   5.779  14.634  0.2214  0.1904  0.6955
 8553TIP3   OH247149   3.571   3.568   3.687  0.1582 -0.3631 -0.3888
 8553TIP3    H147150   3.565   3.622   3.766  0.0595  0.5509 -1.0148
 8553TIP3    H247151   3.487   3.522   3.683  0.0688 -0.2296 -0.0906
 8554TIP3   OH247152   4.571   4.910  16.085 -0.0042  0.2544 -0.2935
 8554TIP3    H147153   4.488   4.922  16.131  0.4826 -1.0752  0.9669
 8554TIP3    H247154   4.566   4.823  16.047 -0.2485  1.1991 -2.5087
 8555TIP3   OH247155   0.417   2.312   1.350  0.5110 -0.1209 -0.5939
 8555TIP3    H147156   0.451   2.342   1.434  1.9714 -1.4177 -0.7022
 8555TIP3    H247157   0.431   2.386   1.290 -0.9152  0.9594  0.3701
 8556TIP3   OH247158   5.524   5.733  16.866  0.1035  0.5703  0.0864
 8556TIP3    H147159   5.616   5.756  16.856  0.1335  0.7905  0.8307
 8556TIP3    H247160   5.521   5.639  16.844  0.7468  0.2340  1.3566
 8557TIP3   OH247161   3.615   3.940   1.007 -0.1939 -0.4541 -0.3959
 8557TIP3    H147162   3.594   4.030   1.031  2.0475  0.2418 -0.8768
 8557TIP3    H247163   3.602   3.889   1.087  0.5952  0.6703  0.4515
 8558TIP3   OH247164   1.507   0.068  12.030  0.0875  0.2036 -0.1269
 8558TIP3    H147165   1.467   0.101  12.111  0.5970  0.0283  0.2007
 8558TIP3    H247166   1.437   0.073  11.965  0.0962  1.8097 -0.0529
 8559TIP3   OH247167   4.968   5.545  13.969  0.9389  0.3623 -0.1782
 8559TIP3    H147168   4.882   5.520  13.937  1.2843  0.4556 -1.1786
 8559TIP3    H247169   4.981   5.634  13.935  1.8611 -0.0406 -0.8981
 8560TIP3   OH247170   3.387   0.534   2.897 -0.1417  0.5474  0.8752
 8560TIP3    H147171   3.350   0.622   2.896 -0.4471  0.4251  1.0658
 8560TIP3    H247172   3.380   0.507   2.989 -0.4016  0.1799  0.7506
 8561TIP3   OH247173   0.780   2.164  14.350 -0.1172  0.3500  0.0142
 8561TIP3    H147174   0.871   2.156  14.378  0.1566  0.7235 -0.7545
 8561TIP3    H247175   0.748   2.243  14.394 -0.3269 -0.2333  0.9403
 8562TIP3   OH247176   2.856   0.414  14.459 -0.0586  0.4504  0.1667
 8562TIP3    H147177   2.768   0.380  14.476 -0.1164  0.3357 -0.3707
 8562TIP3    H247178   2.881   0.377  14.374 -0.7589  2.9785 -1.2055
 8563TIP3   OH247179   0.425   1.130   0.643  0.2355 -0.0073  0.1911
 8563TIP3    H147180   0.351   1.094   0.693 -0.0975 -1.8822 -1.5818
 8563TIP3    H247181   0.502   1.102   0.691 -0.1609  0.5899  1.1852
 8564TIP3   OH247182   0.596   6.114   1.127  0.0443 -0.3136  0.4772
 8564TIP3    H147183   0.595   6.023   1.156  0.6923 -1.1947 -2.1142
 8564TIP3    H247184   0.687   6.131   1.101 -0.5030  0.4042 -1.0274
 8565TIP3   OH247185   1.148   5.457   4.863 -0.3071 -0.0802 -0.1717
 8565TIP3    H147186   1.124   5.518   4.933 -0.5603 -0.4978  0.1069
 8565TIP3    H247187   1.065   5.422   4.832 -0.1528 -0.3943 -0.2309
 8566TIP3   OH247188   4.307   3.130   1.546 -0.0609 -0.2399 -0.5945
 8566TIP3    H147189   4.216   3.157   1.552  0.1968  0.4858  0.0332
 8566TIP3    H247190   4.310   3.045   1.591 -0.6465 -0.8248 -1.6309
 8567TIP3   OH247191   1.764   3.660  14.819  0.5852  0.1540  0.0046
 8567TIP3    H147192   1.700   3.589  14.812  1.4403 -0.4724 -2.0729
 8567TIP3    H247193   1.727   3.720  14.884 -1.0866 -1.2299  0.3643
 8568TIP3   OH247194   5.583   1.284  12.369 -0.3842 -0.3207  0.1622
 8568TIP3    H147195   5.607   1.340  12.443  0.5819 -0.3212 -0.1328
 8568TIP3    H247196   5.550   1.204  12.409  0.0465 -0.2884  0.5980
 8569TIP3   OH247197   4.802   2.994  12.059 -0.1098 -0.0706  0.0977
 8569TIP3    H147198   4.839   3.024  11.976  0.4471 -1.0019  0.0028
 8569TIP3    H247199   4.857   3.035  12.126 -0.6665  0.8222  0.0223
 8570TIP3   OH247200   0.500   0.697  11.605 -0.2346  0.5330  0.1160
 8570TIP3    H147201   0.508   0.647  11.524  2.5024 -1.3069  1.4715
 8570TIP3    H247202   0.552   0.776  11.590  0.2717  0.1947  0.0872
 8571TIP3   OH247203   3.107   6.607  14.288  0.2158  0.1245  0.0513
 8571TIP3    H147204   3.039   6.665  14.322 -0.1664  0.3634 -1.0918
 8571TIP3    H247205   3.155   6.662  14.225  0.6162 -0.4434 -0.1408
 8572TIP3   OH247206   2.046   4.435   1.092  0.0429  0.6496 -0.6039
 8572TIP3    H147207   2.128   4.386   1.102  0.5801  1.6597  0.0304
 8572TIP3    H247208   1.979   4.367   1.080  0.9234 -0.1974 -0.8281
 8573TIP3   OH247209   5.923   5.926  11.735  0.1520 -0.3789 -0.2773
 8573TIP3    H147210   5.986   5.995  11.750  0.8249 -1.1522  0.4694
 8573TIP3    H247211   5.969   5.861  11.681 -0.2359 -0.6018 -0.3526
 8574TIP3   OH247212   1.414   2.908   4.005  0.8387  0.0111 -0.4885
 8574TIP3    H147213   1.391   2.838   3.943 -1.9386 -0.0615  0.5330
 8574TIP3    H247214   1.415   2.866   4.090 -0.9128  1.1716  0.1488
 8575TIP3   OH247215   4.105   2.691   2.756 -0.7199 -0.3234 -0.6710
 8575TIP3    H147216   4.180   2.632   2.767 -0.9379 -0.3138  0.9975
 8575TIP3    H247217   4.143   2.769   2.716  0.4690  0.2886  1.5697
 8576TIP3   OH247218   0.187   0.999   3.046  0.0107  0.3139 -0.5778
 8576TIP3    H147219   0.163   1.091   3.032  1.0076  0.5041 -1.1356
 8576TIP3    H247220   0.282   0.998   3.034 -0.0376 -0.8505 -0.8961
 8577TIP3   OH247221   6.500   4.501  11.415 -0.5666 -0.3991 -0.5690
 8577TIP3    H147222   6.409   4.475  11.425 -1.1705  2.1393  0.9205
 8577TIP3    H247223   6.550   4.437  11.465 -1.9316  0.6933  2.2625
 8578TIP3   OH247224   6.416   6.100   5.870 -0.4210 -0.3503 -0.4905
 8578TIP3    H147225   6.396   6.026   5.812 -0.8600 -1.2134  0.7444
 8578TIP3    H247226   6.438   6.059   5.954 -0.9061  0.9312  0.2725
 8579TIP3   OH247227   0.490   2.864   1.102  0.1184 -0.7467 -0.3005
 8579TIP3    H147228   0.585   2.874   1.102  0.2946 -2.2775  1.5321
 8579TIP3    H247229   0.457   2.954   1.112  1.3811 -0.3621  0.4617
 8580TIP3   OH247230   4.916   3.999  15.984 -0.0280 -0.5054 -0.3964
 8580TIP3    H147231   4.959   4.062  16.042  0.7777 -0.4971 -0.9986
 8580TIP3    H247232   4.842   4.048  15.946 -1.4232 -0.9190  1.6709
 8581TIP3   OH247233   4.310   3.194   0.795  0.0134 -0.0785 -0.1546
 8581TIP3    H147234   4.340   3.145   0.871  0.1274 -0.1983 -0.2757
 8581TIP3    H247235   4.364   3.162   0.723  0.1396  0.2796 -0.2227
 8582TIP3   OH247236   4.130   2.022  13.863  0.6256  0.1298  0.0549
 8582TIP3    H147237   4.162   2.110  13.881  0.5786  0.0916  0.3269
 8582TIP3    H247238   4.038   2.034  13.842  0.5607  0.1210  0.3266
 8583TIP3   OH247239   1.093   5.919  15.563 -0.2430 -0.1186 -0.5151
 8583TIP3    H147240   1.034   5.969  15.507  0.4966 -0.2401 -1.4250
 8583TIP3    H247241   1.043   5.903  15.643 -1.4842 -0.3252 -1.3207
 8584TIP3   OH247242   4.294   3.860  16.871 -0.2553  0.4189  0.3465
 8584TIP3    H147243   4.269   3.831  16.784 -1.8683 -2.3207  1.6535
 8584TIP3    H247244   4.389   3.874  16.865 -0.2829 -0.1473 -1.7247
 8585TIP3   OH247245   6.336   5.781  13.169  0.0509 -0.0681 -0.1128
 8585TIP3    H147246   6.393   5.843  13.123  0.2572  0.6764  1.1302
 8585TIP3    H247247   6.350   5.799  13.262 -3.7570  1.5963  0.2309
 8586TIP3   OH247248   2.015   0.859   4.139 -0.1129  0.3141  0.6023
 8586TIP3    H147249   1.945   0.844   4.075  0.2125 -1.5280  0.6445
 8586TIP3    H247250   2.069   0.927   4.100 -1.8020  1.6105  0.4683
 8587TIP3   OH247251   1.231   3.248  11.836  0.6047 -0.0329 -0.0994
 8587TIP3    H147252   1.324   3.260  11.815  0.4525  0.8857 -0.2421
 8587TIP3    H247253   1.199   3.336  11.856 -0.0370 -0.4554  0.7720
 8588TIP3   OH247254   3.368   6.448   2.795 -0.4390  0.9086  0.0944
 8588TIP3    H147255   3.280   6.428   2.763  0.4657  0.7136 -2.3816
 8588TIP3    H247256   3.416   6.366   2.786  0.2382  1.2437  0.6143
 8589TIP3   OH247257   6.588   2.655  13.706 -0.2080  0.6826 -0.0122
 8589TIP3    H147258   6.590   2.742  13.665  1.9298  0.8917  0.5053
 8589TIP3    H247259   6.536   2.668  13.785 -2.9913  0.6357 -1.7481
 8590TIP3   OH247260   2.895   1.650  15.123 -0.3652  0.0765  0.5767
 8590TIP3    H147261   2.803   1.657  15.099 -0.1804  1.6058  0.2414
 8590TIP3    H247262   2.942   1.693  15.051  0.6393 -1.0061  0.5626
 8591TIP3   OH247263   2.162   0.935   0.664  0.2516 -0.1560  0.0078
 8591TIP3    H147264   2.220   0.925   0.740  1.1750  0.1523 -0.6490
 8591TIP3    H247265   2.169   0.851   0.618  0.4948  0.0279 -0.2913
 8592TIP3   OH247266   1.738   3.854   2.436 -0.1129 -0.3830  0.0049
 8592TIP3    H147267   1.830   3.882   2.435 -0.4694  1.0423  2.6617
 8592TIP3    H247268   1.688   3.934   2.424 -1.0371 -1.0820 -0.8683
 8593TIP3   OH247269   1.749   1.918   5.110  0.2682 -0.7513 -0.0150
 8593TIP3    H147270   1.830   1.966   5.126  0.1182  0.3885 -2.4260
 8593TIP3    H247271   1.709   1.910   5.197  1.1875  1.8751  0.7162
 8594TIP3   OH247272   6.614   5.742   1.442 -0.1503 -0.6916  0.4835
 8594TIP3    H147273   6.574   5.814   1.394  2.8841  0.2688 -0.7197
 8594TIP3    H247274   6.556   5.728   1.517 -3.0136  0.2002 -1.4547
 8595TIP3   OH247275   4.980   1.433   4.316 -0.1530  0.2670  0.4302
 8595TIP3    H147276   4.937   1.452   4.400 -0.6960  0.7904  0.0440
 8595TIP3    H247277   5.013   1.518   4.287  0.1742  0.0597  0.1945
 8596TIP3   OH247278   0.280   4.425   6.731 -0.0500  0.5608 -0.2458
 8596TIP3    H147279   0.353   4.424   6.669  0.9554 -1.1464  0.9037
 8596TIP3    H247280   0.246   4.336   6.731  1.7105 -0.2438  3.5436
 8597TIP3   OH247281   2.083   5.767   0.674  0.3472  0.7001 -0.4048
 8597TIP3    H147282   2.007   5.825   0.665 -1.1156 -0.7632  1.9977
 8597TIP3    H247283   2.081   5.739   0.765 -0.0306 -4.4806 -1.8518
 8598TIP3   OH247284   2.855   0.934  12.959 -0.3935  0.1803 -0.4258
 8598TIP3    H147285   2.837   0.936  12.865 -1.1477  0.8672 -0.2627
 8598TIP3    H247286   2.938   0.885  12.966 -0.1914  0.3645 -1.4615
 8599TIP3   OH247287   1.538   3.198  16.384 -0.2415  0.2191 -0.1530
 8599TIP3    H147288   1.606   3.167  16.324 -0.2499 -0.8161  0.3626
 8599TIP3    H247289   1.583   3.258  16.442  0.7435 -2.0805  1.5443
 8600TIP3   OH247290   5.199   3.243   4.619 -0.1141  0.0166 -0.1589
 8600TIP3    H147291   5.182   3.279   4.706  0.7456 -0.0282  0.0333
 8600TIP3    H247292   5.145   3.164   4.615 -0.2114  0.0549  0.3018
 8601TIP3   OH247293   2.042   1.017   1.371 -0.0915  0.2726 -0.2125
 8601TIP3    H147294   2.077   1.106   1.378  1.3095 -0.2144 -0.8656
 8601TIP3    H247295   1.951   1.030   1.342  0.0871  1.4889 -0.2814
 8602TIP3   OH247296   4.742   1.356   4.130 -0.3080 -0.1648  0.0878
 8602TIP3    H147297   4.788   1.355   4.214 -0.8517  0.7727  0.4045
 8602TIP3    H247298   4.754   1.445   4.098 -0.0642 -0.5307 -0.8596
 8603TIP3   OH247299   0.118   4.025  14.325 -0.0689  0.0599 -0.7329
 8603TIP3    H147300   0.085   3.952  14.377  0.3991 -0.6434 -1.4095
 8603TIP3    H247301   0.210   4.003  14.310  0.1465  0.9353 -0.6913
 8604TIP3   OH247302   2.879   3.427  16.964  0.2804 -0.0846  0.5240
 8604TIP3    H147303   2.862   3.472  17.046  1.4924 -1.7062  1.7103
 8604TIP3    H247304   2.813   3.357  16.961 -0.8860  1.0306 -0.7628
 8605TIP3   OH247305   2.185   4.000   1.105 -0.2628 -0.4204  0.1564
 8605TIP3    H147306   2.180   3.914   1.065 -1.9808 -0.8530  1.2460
 8605TIP3    H247307   2.241   3.988   1.181  1.0451 -0.1277 -0.7351
 8606TIP3   OH247308   4.653   0.989  15.075  0.2719 -0.2298  0.1455
 8606TIP3    H147309   4.696   1.062  15.029 -1.0373  0.8354  0.6004
 8606TIP3    H247310   4.633   1.024  15.161 -2.6093 -0.3210 -0.4522
 8607TIP3   OH247311   4.041   4.791  16.922 -0.7699  0.0308 -0.2462
 8607TIP3    H147312   4.053   4.749  17.006 -0.2922  1.7459  0.5739
 8607TIP3    H247313   3.948   4.813  16.919 -0.9313 -0.6821 -0.4853
 8608TIP3   OH247314   5.037   4.076   2.798  0.0376 -0.3461  0.2709
 8608TIP3    H147315   5.078   4.157   2.829 -3.0327  0.9174  1.1783
 8608TIP3    H247316   5.051   4.014   2.870  0.9029 -0.1385  0.2941
 8609TIP3   OH247317   0.842   4.948  16.307 -0.7264  0.3852  0.0007
 8609TIP3    H147318   0.754   4.917  16.286  0.1273 -2.9713  1.1106
 8609TIP3    H247319   0.899   4.910  16.240  0.6048 -2.1042  2.4450
 8610TIP3   OH247320   3.479   3.937  13.262 -0.3496  0.0773  0.4087
 8610TIP3    H147321   3.518   4.011  13.217  1.5195 -0.8382  0.4903
 8610TIP3    H247322   3.456   3.876  13.192  1.5297 -0.8636  0.6048
 8611TIP3   OH247323   1.491   1.256  15.995 -0.0023  0.6253 -0.4489
 8611TIP3    H147324   1.424   1.222  16.055  0.7534  3.0324  1.8599
 8611TIP3    H247325   1.460   1.343  15.971  1.2715  0.9373 -1.0099
 8612TIP3   OH247326   4.997   3.247  11.984  0.0093  0.2612  0.7310
 8612TIP3    H147327   4.925   3.309  11.973  0.4243  1.1097  2.5484
 8612TIP3    H247328   5.031   3.265  12.072  1.7483 -0.8523  0.3185
 8613TIP3   OH247329   2.007   6.086  13.730  0.3788  0.0825  0.7237
 8613TIP3    H147330   1.915   6.082  13.755  0.3669 -3.7883  0.3087
 8613TIP3    H247331   2.032   6.178  13.745 -2.6769  0.5110  3.8003
 8614TIP3   OH247332   6.283   0.466  13.839  0.0020 -0.0613  0.8430
 8614TIP3    H147333   6.325   0.513  13.911  0.4679  1.6243 -0.5001
 8614TIP3    H247334   6.355   0.420  13.796 -0.1514 -0.4007  0.9481
 8615TIP3   OH247335   6.380   0.256   5.122 -0.1740  0.0177 -0.3485
 8615TIP3    H147336   6.453   0.301   5.164 -1.7907  2.0768  0.3423
 8615TIP3    H247337   6.393   0.270   5.029  0.4707  0.1264 -0.2469
 8616TIP3   OH247338   4.920   1.830   2.372  0.1018  0.2998 -0.2347
 8616TIP3    H147339   4.870   1.904   2.407 -1.8414 -0.8220 -0.5674
 8616TIP3    H247340   4.941   1.776   2.448  0.0707  0.3448 -0.1945
 8617TIP3   OH247341   6.274   2.251   2.450  0.1807  0.5674 -0.3722
 8617TIP3    H147342   6.329   2.178   2.477 -0.9410  0.1478  0.8710
 8617TIP3    H247343   6.188   2.212   2.436 -0.3595  1.6077  0.0235
 8618TIP3   OH247344   3.172   0.764   2.339 -0.2380  0.6709 -0.7941
 8618TIP3    H147345   3.159   0.686   2.285 -0.3925 -0.0695  0.3104
 8618TIP3    H247346   3.093   0.771   2.393 -0.2204  1.5835 -0.8655
 8619TIP3   OH247347   2.280   3.303  11.908 -0.0660 -0.4190 -0.7275
 8619TIP3    H147348   2.367   3.274  11.879  0.0761 -1.1465  0.4032
 8619TIP3    H247349   2.278   3.283  12.001 -1.8038 -1.2715 -0.9195
 8620TIP3   OH247350   4.874   4.823  13.169  0.3533 -0.0406 -0.3822
 8620TIP3    H147351   4.967   4.823  13.145  0.2358  2.2037 -0.8988
 8620TIP3    H247352   4.863   4.743  13.220  2.8307  0.2391  0.6682
 8621TIP3   OH247353   5.661   0.619  14.073  0.8004 -0.3399 -0.1952
 8621TIP3    H147354   5.566   0.624  14.086  0.8609  1.2633 -0.2573
 8621TIP3    H247355   5.697   0.623  14.162  0.8653  1.0701 -0.2676
 8622TIP3   OH247356   4.476   4.243  13.218 -0.8806  0.5117  0.0335
 8622TIP3    H147357   4.478   4.148  13.231 -2.5219 -0.0833 -3.5481
 8622TIP3    H247358   4.383   4.265  13.212 -0.4415  1.6910 -3.2447
 8623TIP3   OH247359   3.665   4.633  17.090  0.4007 -0.5126 -0.4048
 8623TIP3    H147360   3.719   4.708  17.064 -0.1941 -0.3751 -1.2444
 8623TIP3    H247361   3.620   4.607  17.010 -0.4464 -0.9008  0.1961
 8624TIP3   OH247362   4.393   1.249  15.861 -0.9137  0.0623 -0.8075
 8624TIP3    H147363   4.478   1.207  15.856 -0.5771  0.7781 -1.1236
 8624TIP3    H247364   4.408   1.339  15.832 -1.9340 -0.0339 -1.6634
 8625TIP3   OH247365   2.234   4.577   3.051  0.0492 -0.6986 -0.6062
 8625TIP3    H147366   2.294   4.648   3.030 -0.0912  0.1521  1.7781
 8625TIP3    H247367   2.289   4.512   3.096 -0.6411 -0.2672  0.8798
 8626TIP3   OH247368   2.855   1.912  11.942 -0.3862 -0.5784  0.0972
 8626TIP3    H147369   2.872   1.856  11.866  0.6056  1.5028 -1.2422
 8626TIP3    H247370   2.832   1.850  12.012  4.4863 -2.9899 -0.2197
 8627TIP3   OH247371   4.940   0.823   5.664  0.2419  0.1275  0.4776
 8627TIP3    H147372   4.888   0.895   5.626 -2.2811 -2.4525 -1.1616
 8627TIP3    H247373   4.953   0.762   5.591  1.8454 -1.3730  1.9800
 8628TIP3   OH247374   1.807   6.008  17.189  0.0458 -0.1513  0.3282
 8628TIP3    H147375   1.742   6.033  17.123  1.6876  1.7120 -0.6139
 8628TIP3    H247376   1.816   6.086  17.244  0.1765 -1.0188  1.5499
 8629TIP3   OH247377   1.077   0.097  12.209 -0.3714 -0.6148  0.0296
 8629TIP3    H147378   1.117   0.087  12.123 -0.7718 -0.4009 -0.1810
 8629TIP3    H247379   1.012   0.028  12.214 -0.6130 -0.3875  0.0146
 8630TIP3   OH247380   3.814   3.574   4.731  0.0117  0.7648 -0.5046
 8630TIP3    H147381   3.829   3.612   4.818  3.6242  0.4942 -0.9291
 8630TIP3    H247382   3.862   3.491   4.733 -1.3121 -0.0657 -2.2076
 8631TIP3   OH247383   5.389   5.698   2.576  0.1160  0.4296  0.1013
 8631TIP3    H147384   5.412   5.634   2.643 -0.6972 -0.6789 -0.6600
 8631TIP3    H247385   5.399   5.651   2.493  1.2048  1.8136 -0.5708
 8632TIP3   OH247386   0.381   1.074   3.672 -0.2500 -0.2488 -0.3228
 8632TIP3    H147387   0.309   1.035   3.623 -1.5384 -0.0015  1.2924
 8632TIP3    H247388   0.354   1.165   3.685  1.3616  0.4142 -1.5501
 8633TIP3   OH247389   5.425   2.235  14.531  0.7150  0.2278 -0.2277
 8633TIP3    H147390   5.365   2.213  14.603 -0.1626  1.8904 -0.4142
 8633TIP3    H247391   5.446   2.151  14.491  0.9452 -0.6890  1.7551
 8634TIP3   OH247392   0.813   0.639  10.561  0.3439 -0.5932 -0.7678
 8634TIP3    H147393   0.867   0.629  10.483  0.6911  0.9376 -0.7320
 8634TIP3    H247394   0.869   0.610  10.633  1.0836  0.8154 -0.7519
 8635TIP3   OH247395   0.925   4.379  13.885  0.3313  0.0070 -0.3911
 8635TIP3    H147396   1.008   4.331  13.881  1.2229  1.5022 -0.4911
 8635TIP3    H247397   0.858   4.315  13.864  1.6086 -0.8994 -1.7314
 8636TIP3   OH247398   2.732   6.231  13.866 -0.6061  0.2731  0.3780
 8636TIP3    H147399   2.782   6.223  13.785  1.3240  2.0809  1.3572
 8636TIP3    H247400   2.643   6.251  13.837 -0.1715 -0.1818 -1.3203
 8637TIP3   OH247401   1.055   1.835   0.472 -0.2778  0.4322  0.0212
 8637TIP3    H147402   1.055   1.742   0.450  0.7669  0.3431  0.3604
 8637TIP3    H247403   0.994   1.875   0.410 -1.6164 -0.6467  0.6276
 8638TIP3   OH247404   6.327   2.825   5.535 -0.7231  0.4183 -0.6642
 8638TIP3    H147405   6.375   2.777   5.467 -0.9180 -1.8969  0.7692
 8638TIP3    H247406   6.236   2.802   5.520 -0.7727 -0.0173  0.3182
 8639TIP3   OH247407   2.809   5.055  15.883 -0.1407 -0.3372 -0.4158
 8639TIP3    H147408   2.779   4.996  15.813 -2.4212 -0.7177  0.8581
 8639TIP3    H247409   2.842   4.996  15.951 -0.0814 -0.0343 -0.1824
 8640TIP3   OH247410   6.130   5.488  14.256  0.1918  0.4568 -0.5871
 8640TIP3    H147411   6.194   5.453  14.318 -1.1899 -0.2677  0.4673
 8640TIP3    H247412   6.130   5.424  14.184  0.2546  0.1604 -0.3272
 8641TIP3   OH247413   0.955   5.362   2.939  0.0604  0.2462  0.6203
 8641TIP3    H147414   1.027   5.299   2.933  0.0175  0.1706  0.8951
 8641TIP3    H247415   0.913   5.359   2.853  2.0718  2.3048 -0.4698
 8642TIP3   OH247416   5.016   0.876  11.402 -0.0353 -0.3727  0.2619
 8642TIP3    H147417   4.936   0.914  11.437  1.4757  0.7643  2.6007
 8642TIP3    H247418   4.988   0.796  11.358 -2.5327  0.4497  0.2882
 8643TIP3   OH247419   1.239   2.633  15.343  0.5234  0.0483 -0.1020
 8643TIP3    H147420   1.170   2.644  15.277 -0.1051  1.4020  0.7637
 8643TIP3    H247421   1.200   2.665  15.424  1.3298 -1.5103  0.9218
 8644TIP3   OH247422   4.506   2.533   6.683  0.1729  0.1707 -0.8289
 8644TIP3    H147423   4.519   2.478   6.761  1.0203  0.4874 -0.7394
 8644TIP3    H247424   4.585   2.519   6.630  0.7394  1.8295 -0.4657
 8645TIP3   OH247425   1.414   4.550   0.288  0.7246  0.2686 -0.2466
 8645TIP3    H147426   1.486   4.610   0.272  2.1728 -1.3042  0.2202
 8645TIP3    H247427   1.345   4.579   0.228  0.9359  3.0783  0.7770
 8646TIP3   OH247428   2.173   0.174  13.543 -0.0607  0.9075  1.1620
 8646TIP3    H147429   2.116   0.225  13.485  0.3046 -0.6927 -0.6856
 8646TIP3    H247430   2.113   0.126  13.600 -0.4271  2.5491  2.1880
 8647TIP3   OH247431   0.643   5.614  15.548  0.4341 -0.0719  0.0059
 8647TIP3    H147432   0.659   5.565  15.467  0.4562  0.1461 -0.1222
 8647TIP3    H247433   0.625   5.704  15.518  1.4977  0.2476  0.2997
 8648TIP3   OH247434   4.158   0.366  12.267  0.2176  0.2149  0.3286
 8648TIP3    H147435   4.229   0.384  12.206 -0.2996  0.7634 -0.1187
 8648TIP3    H247436   4.084   0.341  12.211  0.0933 -0.5030  0.7952
 8649TIP3   OH247437   1.178   2.421  13.203  0.4189  1.2424  0.1748
 8649TIP3    H147438   1.117   2.393  13.272  0.9832  1.0952  0.6234
 8649TIP3    H247439   1.149   2.508  13.179 -1.5097  0.2130 -1.3896
 8650TIP3   OH247440   5.453   6.723   1.207 -0.1993 -0.0443 -0.2162
 8650TIP3    H147441   5.437   6.636   1.244 -0.3381 -0.2163 -0.6686
 8650TIP3    H247442   5.546   6.723   1.186 -0.2639 -0.2045 -0.5121
 8651TIP3   OH247443   2.021   5.318  14.426  0.3448  0.6543  0.0818
 8651TIP3    H147444   2.069   5.244  14.388 -0.6929  0.2784 -0.5334
 8651TIP3    H247445   2.069   5.395  14.397  0.1114  0.3191 -1.2312
 8652TIP3   OH247446   6.050   1.006  10.832 -0.7386 -0.3527 -0.0614
 8652TIP3    H147447   6.019   1.095  10.816 -1.0801 -0.6302 -0.9218
 8652TIP3    H247448   5.971   0.952  10.832 -0.4770 -0.7387 -0.0588
 8653TIP3   OH247449   1.617   4.448   5.045 -0.1669 -0.1208 -0.1143
 8653TIP3    H147450   1.606   4.500   5.124 -0.0948  1.0869 -0.8888
 8653TIP3    H247451   1.690   4.389   5.065 -0.5342 -0.2441  0.9203
 8654TIP3   OH247452   4.414   3.444   0.003  0.0066 -0.2628  0.2161
 8654TIP3    H147453   4.347   3.499   0.044 -0.5073 -0.8748  0.2208
 8654TIP3    H247454   4.493   3.460   0.053 -0.2270  0.2127  0.4319
 8655TIP3   OH247455   5.105   0.065   4.611  0.0901  0.3326  0.2361
 8655TIP3    H147456   5.199   0.074   4.593  0.6065 -0.4650  2.3591
 8655TIP3    H247457   5.065   0.048   4.526  2.1055 -1.1365 -0.4468
 8656TIP3   OH247458   5.386   6.541   3.502  0.3820  0.0214  0.8224
 8656TIP3    H147459   5.358   6.619   3.455  1.3065  0.1168  0.4086
 8656TIP3    H247460   5.309   6.484   3.503 -0.0924  0.6486  0.5300
 8657TIP3   OH247461   4.667   6.350   5.501  0.0375 -0.2279 -0.1142
 8657TIP3    H147462   4.636   6.291   5.570  0.9755 -0.7063 -0.0848
 8657TIP3    H247463   4.621   6.432   5.517  0.3535 -0.2829  1.1907
 8658TIP3   OH247464   6.331   1.676  13.267 -0.3333 -0.2764 -0.2833
 8658TIP3    H147465   6.305   1.711  13.352  2.4490  1.3118 -0.0205
 8658TIP3    H247466   6.303   1.584  13.269 -1.1300 -0.0175  1.9792
 8659TIP3   OH247467   6.762   6.612  11.933 -0.3237 -0.4718  0.3096
 8659TIP3    H147468   6.812   6.594  12.013 -0.8121  0.4114  0.8324
 8659TIP3    H247469   6.828   6.630  11.867  0.1090 -2.3840  0.2179
 8660TIP3   OH247470   2.667   3.698   2.447 -0.0115 -0.1320 -0.3932
 8660TIP3    H147471   2.625   3.613   2.460 -1.3746  0.5878  0.0213
 8660TIP3    H247472   2.761   3.679   2.447 -0.2741 -1.4920  0.7131
 8661TIP3   OH247473   1.493   0.238   3.045 -0.9668 -0.7774  0.7602
 8661TIP3    H147474   1.536   0.152   3.048 -0.6144 -0.6222  0.2952
 8661TIP3    H247475   1.546   0.292   3.103 -0.3665 -0.5155 -0.0220
 8662TIP3   OH247476   5.583   5.628  10.721  0.0013  0.2895  0.4305
 8662TIP3    H147477   5.656   5.574  10.692  1.6013  1.9072  1.3849
 8662TIP3    H247478   5.600   5.646  10.813 -1.5525  0.7612  0.6488
 8663TIP3   OH247479   2.548   3.882   4.776  0.1457  0.2557  0.1286
 8663TIP3    H147480   2.604   3.830   4.719 -0.3693 -1.5075  1.2002
 8663TIP3    H247481   2.495   3.934   4.715  1.2794  0.1941 -0.9331
 8664TIP3   OH247482   2.055   3.755  11.262 -0.4395  0.1638  0.0996
 8664TIP3    H147483   2.131   3.738  11.206  0.7516  0.6490  1.5210
 8664TIP3    H247484   2.017   3.836  11.227 -0.8221 -0.5443 -1.1449
 8665TIP3   OH247485   4.570   5.445   1.137 -0.1979  0.0514 -0.3051
 8665TIP3    H147486   4.590   5.362   1.182 -0.5651  0.0860 -0.0822
 8665TIP3    H247487   4.576   5.511   1.206  0.1559  0.2212 -0.4959
 8666TIP3   OH247488   5.953   0.602   6.204 -0.0237  0.0639 -0.0079
 8666TIP3    H147489   5.917   0.528   6.252 -1.7963 -0.0409 -1.4486
 8666TIP3    H247490   6.045   0.606   6.231 -0.3076 -1.6493  1.2917
 8667TIP3   OH247491   3.410   1.085  11.601  0.0325 -0.3761  0.2543
 8667TIP3    H147492   3.437   1.123  11.517 -0.7906  1.1462  0.6616
 8667TIP3    H247493   3.484   1.029  11.626  1.0518  0.5274 -0.6383
 8668TIP3   OH247494   6.274   3.324   0.081  0.2932 -0.3024  0.1912
 8668TIP3    H147495   6.338   3.323   0.010  0.5362 -0.6379  0.4138
 8668TIP3    H247496   6.325   3.300   0.159  0.3322  1.3753  0.7199
 8669TIP3   OH247497   5.971   2.725   3.110  0.2285  0.4229  0.0828
 8669TIP3    H147498   5.907   2.795   3.096  1.9000  1.8782 -0.5962
 8669TIP3    H247499   5.965   2.705   3.203  0.4253  2.2232  0.5110
 8670TIP3   OH247500   5.699   5.578   0.746 -0.4475 -0.1101 -0.1577
 8670TIP3    H147501   5.713   5.513   0.815 -0.9990  0.3149  0.3603
 8670TIP3    H247502   5.774   5.567   0.688 -1.0364 -1.8667 -0.6164
 8671TIP3   OH247503   5.848   5.373  13.116 -0.3137  0.2281  0.5376
 8671TIP3    H147504   5.759   5.349  13.087 -0.3945 -1.1049  1.8116
 8671TIP3    H247505   5.869   5.308  13.183  1.6721  0.4790  0.1778
 8672TIP3   OH247506   3.002   1.453   1.152 -0.0934 -0.1885  0.0620
 8672TIP3    H147507   3.037   1.400   1.081 -0.6010 -0.2721 -0.1229
 8672TIP3    H247508   3.008   1.396   1.229 -3.3836 -1.6021 -0.6724
 8673TIP3   OH247509   0.593   5.934   4.091 -0.0381  0.1740 -0.1471
 8673TIP3    H147510   0.656   5.993   4.132  0.7688  0.2355 -1.4220
 8673TIP3    H247511   0.585   5.966   4.001 -3.4005  1.3460  0.5078
 8674TIP3   OH247512   3.698   5.754  15.153  0.1899 -0.4002 -0.1336
 8674TIP3    H147513   3.638   5.719  15.087  0.8229 -0.5973 -0.6172
 8674TIP3    H247514   3.785   5.745  15.113  0.7089 -1.6077  1.2085
 8675TIP3   OH247515   2.840   4.795   0.059 -0.4315  0.6616  0.0588
 8675TIP3    H147516   2.853   4.790   0.153 -0.7424  0.6072  0.0996
 8675TIP3    H247517   2.906   4.737   0.022 -0.0611  0.9806  0.2256
 8676TIP3   OH247518   1.464   4.352  15.408 -0.1826 -0.4562  0.1994
 8676TIP3    H147519   1.546   4.399  15.397 -0.1694 -0.6216 -0.4377
 8676TIP3    H247520   1.412   4.376  15.331  0.0371 -1.9247 -0.4017
 8677TIP3   OH247521   5.754   5.033   1.968 -0.1879  0.0570 -0.2727
 8677TIP3    H147522   5.775   4.944   1.997  0.1152  0.7020  1.5388
 8677TIP3    H247523   5.665   5.049   2.000  0.4827  1.0979  1.1170
 8678TIP3   OH247524   2.424   2.100   4.333  0.3376  0.2499 -0.1257
 8678TIP3    H147525   2.499   2.154   4.362  2.8115 -3.5547  0.9554
 8678TIP3    H247526   2.442   2.082   4.241  0.1897  0.2292 -0.1506
 8679TIP3   OH247527   1.575   1.630   4.329  0.4849  0.1877  0.0044
 8679TIP3    H147528   1.593   1.715   4.368  0.6255 -0.7957  2.1704
 8679TIP3    H247529   1.662   1.594   4.309  0.3786  1.1122 -2.1944
 8680TIP3   OH247530   1.123   0.004   1.366  0.3163  0.3303  0.0731
 8680TIP3    H147531   1.168  -0.078   1.348  1.0014  1.0829 -1.7127
 8680TIP3    H247532   1.035  -0.008   1.329  0.2503  0.2304  0.2592
 8681TIP3   OH247533   1.295   5.862   2.188  0.0851  0.5044 -0.6694
 8681TIP3    H147534   1.306   5.832   2.098  0.3870 -1.2555 -0.0817
 8681TIP3    H247535   1.362   5.814   2.237 -0.2816  1.2045  0.5366
 8682TIP3   OH247536   0.103   5.176   4.777  0.1832 -0.3354  0.6293
 8682TIP3    H147537   0.106   5.243   4.846 -0.8054  0.4224 -0.0397
 8682TIP3    H247538   0.193   5.172   4.744  0.4002  0.1634  1.1521
 8683TIP3   OH247539   0.245   4.860   4.167 -0.3793  0.7877  0.2279
 8683TIP3    H147540   0.174   4.914   4.203 -0.7866  0.4667 -0.0935
 8683TIP3    H247541   0.200   4.794   4.114  0.2108  1.1425 -0.7217
 8684TIP3   OH247542   5.038   4.239  11.047  0.3410  0.1354 -0.3330
 8684TIP3    H147543   4.959   4.253  10.996  0.8100 -0.0321 -1.1185
 8684TIP3    H247544   5.009   4.190  11.124 -0.5092  1.1300 -0.0159
 8685TIP3   OH247545   5.142   5.419  13.276  0.3865  0.2719  0.3805
 8685TIP3    H147546   5.192   5.365  13.215 -1.1991  2.6706 -3.2792
 8685TIP3    H247547   5.206   5.482  13.311  1.0451 -0.2335  0.0865
 8686TIP3   OH247548   3.407   3.407   4.137  0.9010 -0.0250 -0.0014
 8686TIP3    H147549   3.313   3.394   4.153  0.9258 -1.9009 -1.1749
 8686TIP3    H247550   3.410   3.469   4.064  0.6278  1.3151  1.0978
 8687TIP3   OH247551   4.591   3.348  12.320 -0.5615 -0.4633 -0.0158
 8687TIP3    H147552   4.636   3.308  12.394 -0.5192 -0.6016 -0.1155
 8687TIP3    H247553   4.616   3.295  12.244  0.4341  0.4666 -0.3408
 8688TIP3   OH247554   2.731   0.474  11.480 -0.1480  0.2135 -0.0416
 8688TIP3    H147555   2.771   0.387  11.479 -0.1088  0.1922  1.6816
 8688TIP3    H247556   2.786   0.527  11.422  0.9226 -0.4353  0.3784
 8689TIP3   OH247557   1.264   3.162   5.377  0.0064  0.3483  0.3970
 8689TIP3    H147558   1.227   3.199   5.457 -1.1341 -0.7810  0.3896
 8689TIP3    H247559   1.303   3.237   5.333 -3.3490  1.8024 -0.2104
 8690TIP3   OH247560   6.800   4.771   0.288 -0.0278 -0.3438  0.1351
 8690TIP3    H147561   6.749   4.691   0.297 -2.9723  1.5319  0.9469
 8690TIP3    H247562   6.777   4.805   0.201  0.7240 -0.0609  0.0417
 8691TIP3   OH247563   6.459   6.233  10.326 -0.0646  0.0499 -0.2368
 8691TIP3    H147564   6.522   6.288  10.372  0.8267 -0.8497 -0.3725
 8691TIP3    H247565   6.446   6.278  10.242 -0.0972  0.5798  0.0478
 8692TIP3   OH247566   6.690   0.220  16.959 -0.7195 -0.4807 -0.6315
 8692TIP3    H147567   6.743   0.190  16.885 -1.5060 -1.5978 -0.7663
 8692TIP3    H247568   6.703   0.154  17.027  1.9236  1.8150  1.1651
 8693TIP3   OH247569   4.258   2.893  13.808 -0.2306  0.6074 -0.3304
 8693TIP3    H147570   4.305   2.827  13.757 -0.5110 -0.0025  0.1911
 8693TIP3    H247571   4.288   2.881  13.897  0.2807  1.6949 -0.3473
 8694TIP3   OH247572   3.832   4.827  15.091  0.2480  0.5414  0.0123
 8694TIP3    H147573   3.872   4.786  15.168 -0.3585  1.0157  0.5893
 8694TIP3    H247574   3.905   4.859  15.039  0.7903 -2.1614 -0.9625
 8695TIP3   OH247575   4.254   3.467  11.179 -0.2456 -0.1874  0.2178
 8695TIP3    H147576   4.253   3.423  11.094 -1.7137  1.6861 -0.7783
 8695TIP3    H247577   4.328   3.528  11.172 -2.4046  2.4181 -1.0875
 8696TIP3   OH247578   1.730   0.160   4.730 -0.1973 -0.5315 -0.5662
 8696TIP3    H147579   1.655   0.199   4.775  0.6723 -1.6567  1.8989
 8696TIP3    H247580   1.691   0.111   4.658 -1.5847  1.4179 -1.2029
 8697TIP3   OH247581   4.286   4.853  10.973 -0.1451  0.1944 -0.2778
 8697TIP3    H147582   4.259   4.903  11.050 -0.8704  1.0248 -1.0686
 8697TIP3    H247583   4.259   4.906  10.898 -0.6618 -1.2321 -1.1350
 8698TIP3   OH247584   2.513   3.466  13.758 -0.1576  0.7291 -0.5018
 8698TIP3    H147585   2.478   3.468  13.847  0.0701 -0.0068 -0.3944
 8698TIP3    H247586   2.459   3.403  13.712  0.3053  0.4312 -0.6406
 8699TIP3   OH247587   1.213   4.527   5.604 -0.7835  0.1278 -0.4763
 8699TIP3    H147588   1.288   4.586   5.609  0.7746 -1.8955  0.7050
 8699TIP3    H247589   1.245   4.452   5.554 -1.8324 -1.0333  0.5674
 8700TIP3   OH247590   0.500   2.781  14.407  0.0941  0.1960  0.9267
 8700TIP3    H147591   0.426   2.834  14.378  1.3123  1.1886 -0.4297
 8700TIP3    H247592   0.572   2.807  14.351  1.3996 -1.0258  1.9850
 8701TIP3   OH247593   5.962   2.480  16.538 -0.2331 -0.1888 -0.3713
 8701TIP3    H147594   5.958   2.399  16.487  0.8797 -0.7244  0.3666
 8701TIP3    H247595   5.972   2.451  16.628 -3.5962  0.7465  0.3376
 8702TIP3   OH247596   4.987   1.457  16.351  0.3980  0.7083  0.1537
 8702TIP3    H147597   5.056   1.445  16.416 -0.3463  0.9439  1.0004
 8702TIP3    H247598   4.909   1.479  16.403 -0.7440 -1.3261 -0.6424
 8703TIP3   OH247599   4.165   1.750   4.493  0.2842  0.0607 -0.2935
 8703TIP3    H147600   4.112   1.765   4.572 -0.0786 -1.5573 -0.2182
 8703TIP3    H247601   4.179   1.656   4.491 -0.0161  0.0341 -2.3704
 8704TIP3   OH247602   4.347   0.796  11.373  0.6952  0.4570 -0.6527
 8704TIP3    H147603   4.344   0.741  11.295  3.0999  2.1957 -2.0553
 8704TIP3    H247604   4.424   0.765  11.422  0.9355  1.2638 -0.4950
 8705TIP3   OH247605   2.846   6.755  15.149  0.2173  0.5408 -0.1421
 8705TIP3    H147606   2.785   6.736  15.077  0.7942 -0.7345 -0.2984
 8705TIP3    H247607   2.799   6.818  15.203 -2.4476 -2.5027  1.2802
 8706TIP3   OH247608   4.038   3.504   5.665 -0.4229  0.3504 -0.5937
 8706TIP3    H147609   3.957   3.478   5.710  0.5630  1.9814  2.2442
 8706TIP3    H247610   4.075   3.422   5.632 -1.7580 -0.7626  0.6157
 8707TIP3   OH247611   2.317   1.172   0.971  0.0676  0.4921 -0.3115
 8707TIP3    H147612   2.234   1.133   0.944 -0.1424  1.0074 -0.4190
 8707TIP3    H247613   2.333   1.240   0.906  0.1267  0.9818  0.2153
 8708TIP3   OH247614   3.160   3.004   3.058  0.2634 -0.1575 -0.1309
 8708TIP3    H147615   3.068   2.998   3.084  0.1140 -2.1444 -1.0642
 8708TIP3    H247616   3.208   3.014   3.140 -0.6978 -0.0037  0.4216
 8709TIP3   OH247617   1.382   2.645   6.296 -0.1671 -0.0022  0.1992
 8709TIP3    H147618   1.430   2.631   6.378 -0.2438  2.0551  0.6329
 8709TIP3    H247619   1.323   2.571   6.290  0.3850 -0.5855  1.6315
 8710TIP3   OH247620   4.592   6.247   6.344  0.6383 -0.0235  0.0125
 8710TIP3    H147621   4.609   6.341   6.350 -0.6800  0.1000  2.1994
 8710TIP3    H247622   4.535   6.239   6.268  2.7184  0.6147 -1.6973
 8711TIP3   OH247623   0.241   0.352   3.354 -0.8508 -0.5479  0.0689
 8711TIP3    H147624   0.190   0.413   3.301  0.0942  0.0147 -0.2167
 8711TIP3    H247625   0.323   0.341   3.306 -0.6585 -1.3487  0.5679
 8712TIP3   OH247626   2.566   1.761   2.120  1.0640  0.0837  0.2858
 8712TIP3    H147627   2.481   1.745   2.078  0.8314 -1.0879  1.2026
 8712TIP3    H247628   2.550   1.837   2.176  1.0449  0.8669 -0.7638
 8713TIP3   OH247629   2.818   0.406  10.400 -0.5323 -0.0167 -0.3587
 8713TIP3    H147630   2.853   0.447  10.321 -2.5043 -0.4608 -1.5040
 8713TIP3    H247631   2.895   0.386  10.453  0.8625 -0.1076 -2.3618
 8714TIP3   OH247632   4.907   5.039   6.550  0.0283 -0.2045  0.3979
 8714TIP3    H147633   4.945   4.955   6.576 -1.3442 -0.9161  0.1861
 8714TIP3    H247634   4.960   5.067   6.475 -0.8488 -1.9846 -0.9440
 8715TIP3   OH247635   2.695   6.813  12.681  0.2097  0.5175  0.5135
 8715TIP3    H147636   2.783   6.795  12.648  0.3428 -0.4407  1.3575
 8715TIP3    H247637   2.710   6.850  12.769 -0.1525  2.5736 -0.2536
 8716TIP3   OH247638   6.280   3.178  15.906  0.5919 -0.4205 -0.1483
 8716TIP3    H147639   6.323   3.214  15.984 -0.3758  1.1049 -0.2982
 8716TIP3    H247640   6.187   3.195  15.920  0.4420  0.2839 -1.8318
 8717TIP3   OH247641   5.982   6.557   5.822  0.1470 -0.2320  0.1321
 8717TIP3    H147642   5.987   6.512   5.737  2.4377 -0.7857  0.5294
 8717TIP3    H247643   6.018   6.644   5.805 -0.4749  0.0544  0.2827
 8718TIP3   OH247644   6.403   2.016  13.708 -0.0813  0.0121 -0.1275
 8718TIP3    H147645   6.419   1.923  13.722 -1.7062 -0.1863  0.4942
 8718TIP3    H247646   6.434   2.033  13.619 -1.7408 -1.5945 -1.0498
 8719TIP3   OH247647   6.740   4.842   1.962 -0.1218  0.4486 -0.2779
 8719TIP3    H147648   6.703   4.755   1.944 -2.3202  1.3917 -0.5062
 8719TIP3    H247649   6.769   4.874   1.877 -1.3999  0.8522 -0.5720
 8720TIP3   OH247650   1.119   3.712  11.605  0.1770  0.2180  0.0649
 8720TIP3    H147651   1.061   3.668  11.668  0.0842 -0.4259 -0.4679
 8720TIP3    H247652   1.146   3.792  11.649  0.0228 -0.1802  0.8822
 8721TIP3   OH247653   2.268   6.240  17.262 -0.6901 -0.8578  0.4297
 8721TIP3    H147654   2.191   6.201  17.220  0.3190 -1.4079 -0.9777
 8721TIP3    H247655   2.334   6.243  17.192  0.4696 -0.1373  1.5307
 8722TIP3   OH247656   2.556   3.864   6.015 -0.2975 -0.0967 -0.1981
 8722TIP3    H147657   2.510   3.926   6.072 -1.1375 -0.2015 -0.7558
 8722TIP3    H247658   2.618   3.820   6.073  0.3161  1.2595  0.2120
 8723TIP3   OH247659   6.563   6.134   5.224 -0.6202 -0.1607  0.1938
 8723TIP3    H147660   6.568   6.195   5.151 -2.8679  0.8766  0.8703
 8723TIP3    H247661   6.552   6.048   5.183 -0.3091  0.2275 -0.7088
 8724TIP3   OH247662   3.864   4.045  14.614  0.6407  0.8849  0.2198
 8724TIP3    H147663   3.924   4.008  14.550 -0.4012 -0.8690  0.2171
 8724TIP3    H247664   3.838   3.970  14.669 -2.5349  1.2837 -0.6063
 8725TIP3   OH247665   6.647   0.484  11.649  0.6241 -0.1968  0.4584
 8725TIP3    H147666   6.684   0.442  11.726  0.3832 -0.3332  0.5014
 8725TIP3    H247667   6.708   0.463  11.578 -0.9976 -3.1914 -0.1696
 8726TIP3   OH247668   3.495   0.386   0.831  0.1180 -0.7770 -0.1706
 8726TIP3    H147669   3.487   0.355   0.740 -0.0155  0.5033 -0.6104
 8726TIP3    H247670   3.424   0.343   0.877  0.2356 -1.5058 -0.6596
 8727TIP3   OH247671   5.439   1.900   2.860 -0.6958  0.0958  0.0984
 8727TIP3    H147672   5.443   1.840   2.785  1.6392 -2.0903  1.9045
 8727TIP3    H247673   5.529   1.929   2.873 -1.4369  2.2900  0.6831
 8728TIP3   OH247674   6.777   6.041  14.183  0.4090  0.0741  0.2177
 8728TIP3    H147675   6.702   6.023  14.240  0.8791 -0.5220  0.6691
 8728TIP3    H247676   6.853   6.031  14.241  0.8839 -0.3379 -0.4661
 8729TIP3   OH247677   2.253   2.708  11.870 -0.3658  0.1125 -0.0738
 8729TIP3    H147678   2.236   2.791  11.825 -0.6790  1.6128  2.6691
 8729TIP3    H247679   2.167   2.666  11.875 -0.0276 -0.9213 -2.4178
 8730TIP3   OH247680   4.635   5.930   1.488  0.5433  0.1922  0.0123
 8730TIP3    H147681   4.629   5.961   1.578 -0.2362  0.3006 -0.0744
 8730TIP3    H247682   4.729   5.932   1.468  0.8723 -1.3947  1.3655
 8731TIP3   OH247683   4.023   5.847   5.237 -1.0894  0.0633  0.6258
 8731TIP3    H147684   3.957   5.858   5.306 -3.5649  0.7991 -1.7759
 8731TIP3    H247685   4.048   5.936   5.214 -0.5337 -0.1702  0.3220
 8732TIP3   OH247686   0.771   2.689   2.831 -0.1750  0.3261  0.1009
 8732TIP3    H147687   0.790   2.595   2.826 -1.9455 -0.0692  0.2708
 8732TIP3    H247688   0.683   2.697   2.794  0.0765  1.9715 -0.1734
 8733TIP3   OH247689   4.098   1.152  15.331  0.1023 -0.0560  0.0981
 8733TIP3    H147690   4.004   1.135  15.327  0.1791 -0.8464  1.3081
 8733TIP3    H247691   4.106   1.236  15.377 -0.0353  0.4548 -0.7915
 8734TIP3   OH247692   1.801   2.246   1.600  0.5571 -0.3017 -0.6195
 8734TIP3    H147693   1.861   2.296   1.656  1.1868 -0.2033 -1.3655
 8734TIP3    H247694   1.821   2.154   1.621 -0.0705 -0.2567  0.2017
 8735TIP3   OH247695   0.741   3.936  15.563 -0.1994 -0.2624 -0.4501
 8735TIP3    H147696   0.658   3.945  15.610  0.6310  0.0743  1.0036
 8735TIP3    H247697   0.802   3.901  15.629  0.1689 -3.0328 -2.2027
 8736TIP3   OH247698   5.269   6.342  16.337 -0.1443  0.0157  1.1346
 8736TIP3    H147699   5.198   6.291  16.298  0.1657  1.3320 -1.2486
 8736TIP3    H247700   5.225   6.409  16.389 -0.8571  2.7613 -2.7579
 8737TIP3   OH247701   3.845   0.585  12.777 -0.2909 -0.0968 -0.3381
 8737TIP3    H147702   3.766   0.626  12.743  0.6841  1.1240 -1.1789
 8737TIP3    H247703   3.863   0.513  12.717  2.0697  2.7439 -3.2211
 8738TIP3   OH247704   5.790   3.567   4.699 -0.0917  0.4658  0.2763
 8738TIP3    H147705   5.751   3.518   4.771 -0.7613  1.8833  0.8922
 8738TIP3    H247706   5.802   3.502   4.630 -1.6257 -0.4235  0.8199
 8739TIP3   OH247707   5.168   3.940   0.788 -0.1209 -0.2303 -0.2062
 8739TIP3    H147708   5.144   3.847   0.792  2.1448 -1.0751 -4.0684
 8739TIP3    H247709   5.253   3.944   0.833  0.2836 -0.2422 -0.9602
 8740TIP3   OH247710   4.308   3.823  14.083  0.0181 -0.4724 -0.6445
 8740TIP3    H147711   4.235   3.825  14.021  0.6940 -1.3461 -1.4910
 8740TIP3    H247712   4.325   3.915  14.104 -1.5527 -0.2840 -0.1585
 8741TIP3   OH247713   0.361   2.695   5.550 -0.5337  0.0994 -0.1129
 8741TIP3    H147714   0.340   2.606   5.579  0.5086  0.1861  0.9721
 8741TIP3    H247715   0.392   2.684   5.460 -1.7659 -0.4490 -0.4867
 8742TIP3   OH247716   2.121   4.753   4.150  0.2066  0.5394  0.9968
 8742TIP3    H147717   2.041   4.766   4.100  0.7098 -1.3520 -0.3874
 8742TIP3    H247718   2.144   4.840   4.183 -1.5867  1.3509  0.1504
 8743TIP3   OH247719   3.735   4.728   2.083  0.3358  0.2802 -0.2760
 8743TIP3    H147720   3.668   4.796   2.073  0.7900  0.7242 -0.2836
 8743TIP3    H247721   3.716   4.689   2.168 -0.0863  0.2390 -0.3841
 8744TIP3   OH247722   4.021   5.902  13.019 -0.3175 -0.0756 -0.0898
 8744TIP3    H147723   4.076   5.853  13.080 -1.4191 -0.3535  0.7232
 8744TIP3    H247724   4.077   5.971  12.985  0.2826  0.2183  1.4326
 8745TIP3   OH247725   1.043   5.883  12.400 -0.3538  0.0469 -0.2383
 8745TIP3    H147726   1.067   5.915  12.486 -1.5588  0.8590 -0.1931
 8745TIP3    H247727   1.002   5.958  12.356  0.7950 -0.1682 -1.7490
 8746TIP3   OH247728   5.008   0.778   2.410  0.2650  0.2526 -0.0384
 8746TIP3    H147729   5.079   0.825   2.366 -0.2286 -0.3971 -1.5698
 8746TIP3    H247730   5.045   0.692   2.431  0.1650  0.1709 -0.1912
 8747TIP3   OH247731   5.077   3.995   6.097 -0.1524 -0.1301  0.3969
 8747TIP3    H147732   5.132   4.046   6.157  0.8947  0.0411 -0.6825
 8747TIP3    H247733   5.130   3.919   6.074 -0.6957 -0.3983  0.0026
 8748TIP3   OH247734   6.044   5.289  16.011 -0.2980  0.1855 -0.2219
 8748TIP3    H147735   6.090   5.293  16.095 -0.8769 -0.7852  0.1578
 8748TIP3    H247736   5.954   5.268  16.035 -1.0079  2.3396 -0.9533
 8749TIP3   OH247737   6.315   3.053  14.148 -0.3538 -0.2904 -0.3765
 8749TIP3    H147738   6.354   3.046  14.061  0.3041 -0.2670 -0.0874
 8749TIP3    H247739   6.308   2.962  14.178  2.9505 -0.1224  1.0837
 8750TIP3   OH247740   6.122   4.945  16.691  0.2662  0.0928  0.2878
 8750TIP3    H147741   6.037   4.924  16.729  0.9908 -0.8728  1.4202
 8750TIP3    H247742   6.184   4.934  16.763  1.5139 -0.5009 -0.8408
 8751TIP3   OH247743   4.811   1.004  13.059 -0.7622 -0.2670  0.4303
 8751TIP3    H147744   4.867   0.969  13.128 -1.6708 -0.2303  1.1847
 8751TIP3    H247745   4.872   1.050  13.001 -0.0527  0.1651  1.4896
 8752TIP3   OH247746   3.547   4.488  15.633 -0.7884  0.3001 -0.6143
 8752TIP3    H147747   3.484   4.458  15.567 -0.9024  1.1577 -0.9100
 8752TIP3    H247748   3.514   4.574  15.659  0.4045  0.8670 -0.9670
 8753TIP3   OH247749   5.822   2.141   6.729  0.1698  0.0107  0.8607
 8753TIP3    H147750   5.818   2.104   6.640 -0.1566  1.8964  0.0589
 8753TIP3    H247751   5.903   2.105   6.766  2.3025  2.0513 -1.5578
 8754TIP3   OH247752   2.699   1.540   5.124  0.0523 -0.0531 -0.0371
 8754TIP3    H147753   2.766   1.510   5.063 -1.1810 -0.2908 -1.3252
 8754TIP3    H247754   2.670   1.624   5.087 -0.0243  0.2735  0.7630
 8755TIP3   OH247755   2.784   2.744  15.210  0.6202  0.0704 -0.0121
 8755TIP3    H147756   2.820   2.686  15.277  0.0184 -1.6282 -1.1167
 8755TIP3    H247757   2.827   2.828  15.224  0.2748 -0.1805  2.6798
 8756TIP3   OH247758   1.303   2.348   4.691 -0.4347 -0.4202 -0.1285
 8756TIP3    H147759   1.313   2.266   4.641  0.3608  0.1788 -0.9717
 8756TIP3    H247760   1.223   2.387   4.657 -0.2074 -0.2991 -0.5297
 8757TIP3   OH247761   3.903   4.035   1.274 -0.4205  0.1538 -0.2571
 8757TIP3    H147762   3.822   4.086   1.272 -1.3118 -1.1197  1.7278
 8757TIP3    H247763   3.956   4.071   1.203 -1.0789  3.7327  0.9404
 8758TIP3   OH247764   2.719   2.220  12.562  0.2697 -0.5920  0.2284
 8758TIP3    H147765   2.665   2.192  12.636  0.5879  0.4092  0.8548
 8758TIP3    H247766   2.795   2.263  12.602 -0.8755  2.4252 -0.6842
 8759TIP3   OH247767   3.765   4.576   4.939 -0.2196 -0.4979 -0.3329
 8759TIP3    H147768   3.682   4.531   4.954 -0.7478  0.5165 -0.1716
 8759TIP3    H247769   3.781   4.566   4.845 -0.7683 -0.2900 -0.4534
 8760TIP3   OH247770   4.854   6.214  13.850  0.2744 -0.1960 -0.4455
 8760TIP3    H147771   4.911   6.281  13.813  0.5555 -1.2199 -1.9305
 8760TIP3    H247772   4.773   6.259  13.871  1.0669  0.9510  0.1702
 8761TIP3   OH247773   0.484   2.954  16.274 -0.3749  0.0737 -0.5374
 8761TIP3    H147774   0.457   2.953  16.182  0.4369  0.3178 -0.7810
 8761TIP3    H247775   0.574   2.987  16.272 -0.2939 -0.0964  0.3282
 8762TIP3   OH247776   4.399   5.139  10.853  0.5161  0.1143  0.5548
 8762TIP3    H147777   4.323   5.100  10.810  0.5379 -0.8375  1.3612
 8762TIP3    H247778   4.472   5.081  10.829  0.6753  0.0450  1.2010
 8763TIP3   OH247779   5.066   0.500   4.286 -0.1728  0.2790  0.4579
 8763TIP3    H147780   5.050   0.451   4.206  0.4924 -0.3837  0.7272
 8763TIP3    H247781   5.117   0.441   4.341  0.9782  1.4126  0.6247
 8764TIP3   OH247782   5.339   0.146  11.516 -0.3158  0.0413 -0.2184
 8764TIP3    H147783   5.381   0.213  11.570  2.2472 -1.9192  0.2763
 8764TIP3    H247784   5.335   0.184  11.428  0.8891  0.9328  0.1103
 8765TIP3   OH247785   4.176   6.083  13.970 -0.4462 -0.1958 -0.1537
 8765TIP3    H147786   4.158   6.174  13.945 -0.7477 -0.0433  0.5907
 8765TIP3    H247787   4.262   6.064  13.932 -0.1391  0.5855  0.1399
 8766TIP3   OH247788   3.670   3.496   5.229 -0.0080  0.3782  0.1725
 8766TIP3    H147789   3.731   3.533   5.293 -0.3002  2.2197 -0.5843
 8766TIP3    H247790   3.656   3.566   5.165 -0.0623 -1.2682 -1.6934
 8767TIP3   OH247791   1.715   0.702  16.035  0.2990  0.3613 -0.1489
 8767TIP3    H147792   1.770   0.686  16.111 -0.9530 -1.9031  0.3411
 8767TIP3    H247793   1.630   0.729  16.072  0.0683  0.4972 -0.7675
 8768TIP3   OH247794   0.975   3.934  15.962  0.1283 -0.4703  0.0349
 8768TIP3    H147795   0.935   3.964  16.043 -1.2641 -1.3197 -0.3141
 8768TIP3    H247796   0.962   4.006  15.900 -0.0335 -0.3737  0.1811
 8769TIP3   OH247797   3.071   6.045   5.505 -0.2624  0.4211 -0.0287
 8769TIP3    H147798   3.109   6.133   5.508 -1.1299  0.8133 -0.3384
 8769TIP3    H247799   3.013   6.041   5.581 -0.2500  0.1289 -0.0352
 8770TIP3   OH247800   3.862   5.480  12.939 -0.0975 -0.0009 -0.5494
 8770TIP3    H147801   3.864   5.396  12.986 -1.5773  0.6021  0.6289
 8770TIP3    H247802   3.877   5.456  12.848  0.2375 -1.4842 -0.1230
 8771TIP3   OH247803   0.404   3.028  11.407 -0.1315 -0.6686  0.1077
 8771TIP3    H147804   0.432   3.086  11.336  2.5586 -0.9273  0.9128
 8771TIP3    H247805   0.461   2.952  11.399 -0.3449 -1.0511  2.0499
 8772TIP3   OH247806   3.808   6.102  17.214  0.3788  0.4865  0.7256
 8772TIP3    H147807   3.799   6.110  17.309  1.5400  0.5321  0.8401
 8772TIP3    H247808   3.884   6.045  17.202 -0.4550 -0.4413 -0.1707
 8773TIP3   OH247809   1.297   5.893  13.416  0.1563 -0.1307 -0.5127
 8773TIP3    H147810   1.260   5.876  13.330 -2.4068 -0.9628  0.6953
 8773TIP3    H247811   1.251   5.971  13.448 -0.2799 -0.9059  0.8285
 8774TIP3   OH247812   6.314   4.460   1.037 -0.2637 -0.2462 -0.0948
 8774TIP3    H147813   6.349   4.497   1.118 -0.9147 -1.1799  0.6229
 8774TIP3    H247814   6.298   4.536   0.981  1.0613  0.3399  0.2998
 8775TIP3   OH247815   5.845   1.529   1.623  0.1492  1.4962 -0.0375
 8775TIP3    H147816   5.807   1.573   1.699  1.9993  2.7570  0.1949
 8775TIP3    H247817   5.864   1.440   1.654 -3.1407  0.6421 -0.3622
 8776TIP3   OH247818   4.110   0.870  14.040  0.2942  0.7567 -0.1253
 8776TIP3    H147819   4.081   0.868  14.131 -1.3446  1.0011 -0.6234
 8776TIP3    H247820   4.159   0.951  14.031 -0.3025  1.1707  0.3312
 8777TIP3   OH247821   1.441   6.031  12.766  0.0971 -0.3914  0.2621
 8777TIP3    H147822   1.370   5.976  12.798 -3.7485  2.9494 -2.0362
 8777TIP3    H247823   1.487   5.977  12.703 -2.2564 -1.6813 -0.3853
 8778TIP3   OH247824   1.173   6.718  13.764 -0.0419 -0.3691 -0.4833
 8778TIP3    H147825   1.109   6.789  13.754 -1.2338 -1.4103 -0.3797
 8778TIP3    H247826   1.256   6.763  13.782 -0.5259  1.0305 -1.6914
 8779TIP3   OH247827   5.941   0.145  12.051 -0.0822 -0.0380 -0.1905
 8779TIP3    H147828   5.953   0.204  12.125  0.3002 -2.0808  1.4233
 8779TIP3    H247829   6.029   0.112  12.032 -0.2329  0.1743 -1.3408
 8780TIP3   OH247830   5.103   3.365  16.286 -0.0431  0.2131 -0.1738
 8780TIP3    H147831   5.186   3.412  16.275  0.4964 -0.8472 -0.7514
 8780TIP3    H247832   5.123   3.275  16.260 -2.0833  0.5727 -3.2899
 8781TIP3   OH247833   0.639   0.052   1.357  0.1606  0.1474 -0.1990
 8781TIP3    H147834   0.610   0.005   1.436  1.7305 -1.7662 -0.7164
 8781TIP3    H247835   0.712   0.106   1.387  0.7165 -0.5333 -0.2852
 8782TIP3   OH247836   6.783   2.184  16.266  0.4279  0.5565  0.2790
 8782TIP3    H147837   6.785   2.277  16.245  0.7589  0.3517 -0.5784
 8782TIP3    H247838   6.866   2.150  16.233  0.0045 -0.1805 -0.0165
 8783TIP3   OH247839   1.983   1.725   0.435 -0.3330  0.1252  0.4598
 8783TIP3    H147840   2.058   1.749   0.489  1.7619 -0.0065 -2.3257
 8783TIP3    H247841   2.010   1.647   0.388 -2.8271 -0.8902  0.6224
 8784TIP3   OH247842   3.998   5.697   1.577 -0.5776  0.3324 -0.1750
 8784TIP3    H147843   3.940   5.633   1.536 -1.8568  1.4622 -0.1805
 8784TIP3    H247844   4.067   5.712   1.513 -0.5617 -0.6506 -0.3872
 8785TIP3   OH247845   3.444   4.319  11.269  0.3460  0.5229 -0.0518
 8785TIP3    H147846   3.376   4.252  11.269  0.1840  0.6879 -0.0253
 8785TIP3    H247847   3.399   4.399  11.244  0.6378  0.5200 -0.5931
 8786TIP3   OH247848   5.397   3.366  12.192 -0.0280  0.2711 -0.6781
 8786TIP3    H147849   5.463   3.297  12.202 -0.8211 -0.5398 -0.9850
 8786TIP3    H247850   5.446   3.448  12.200  0.5643 -0.3004  2.3252
 8787TIP3   OH247851   2.437   5.268  14.880  0.1285 -0.4330  0.1748
 8787TIP3    H147852   2.412   5.309  14.963 -1.2862  0.0611 -0.4736
 8787TIP3    H247853   2.503   5.327  14.843  0.5187 -0.4813  0.8067
 8788TIP3   OH247854   3.624   5.351  14.353  0.3779 -0.0991 -0.1728
 8788TIP3    H147855   3.714   5.368  14.380 -0.4096 -0.6698  3.0129
 8788TIP3    H247856   3.571   5.403  14.413 -1.4365  0.8152 -2.4886
 8789TIP3   OH247857   3.973   6.196   6.049  0.2081  0.0614  0.1779
 8789TIP3    H147858   3.957   6.151   6.133 -0.6796  2.0926  1.1171
 8789TIP3    H247859   4.056   6.158   6.018 -0.0809 -1.6206  1.3470
 8790TIP3   OH247860   4.785   5.083  16.808 -0.1760 -1.0589 -0.3751
 8790TIP3    H147861   4.878   5.071  16.792 -0.4957 -0.9085 -2.4912
 8790TIP3    H247862   4.773   5.178  16.811 -0.2287 -1.0775  0.2524
 8791TIP3   OH247863   1.852   0.969  11.475  0.0696  0.0272  0.1426
 8791TIP3    H147864   1.837   0.882  11.513  0.7547 -0.4099 -0.5653
 8791TIP3    H247865   1.937   0.961  11.431 -0.4157  0.6966 -0.9347
 8792TIP3   OH247866   3.036   2.895  17.264 -0.9995  0.6771 -0.3089
 8792TIP3    H147867   3.032   2.801  17.245 -1.1276  0.9015 -1.4079
 8792TIP3    H247868   3.084   2.900  17.347  1.0872 -0.2332 -1.4266
 8793TIP3   OH247869   4.399   1.384  10.958 -0.5877  0.1907 -0.2256
 8793TIP3    H147870   4.462   1.450  10.929 -0.1643  0.9677  2.3553
 8793TIP3    H247871   4.416   1.374  11.052 -2.0064 -2.1239 -0.1672
 8794TIP3   OH247872   0.407   0.544   5.758 -0.3511 -0.0901 -0.2318
 8794TIP3    H147873   0.377   0.618   5.705  0.0988 -1.6987 -2.8021
 8794TIP3    H247874   0.327   0.509   5.797 -0.4555  2.3775  1.9440
 8795TIP3   OH247875   4.863   4.370   0.377 -0.2584 -0.3969 -0.1671
 8795TIP3    H147876   4.909   4.382   0.294 -0.3410  1.2112  0.0064
 8795TIP3    H247877   4.932   4.371   0.443 -0.3917  0.3580 -0.0432
 8796TIP3   OH247878   6.181   6.541   2.151 -0.1487  0.8566  0.1869
 8796TIP3    H147879   6.141   6.496   2.225  1.1667 -0.5277  0.0754
 8796TIP3    H247880   6.250   6.594   2.190  0.9451 -0.3460 -0.1108
 8797TIP3   OH247881   3.188   5.472   3.531  0.1839  0.1383  0.0158
 8797TIP3    H147882   3.206   5.563   3.506 -0.8079  0.2781 -0.1953
 8797TIP3    H247883   3.100   5.455   3.499  0.1602 -0.7343  0.5265
 8798TIP3   OH247884   4.600   0.147  11.588  0.1118  0.0957  0.2340
 8798TIP3    H147885   4.582   0.167  11.496  2.0252 -1.1998 -0.4290
 8798TIP3    H247886   4.587   0.053  11.595  1.1998  0.0048  1.0242
 8799TIP3   OH247887   5.482   1.954   6.215 -0.4537 -0.0437 -0.1332
 8799TIP3    H147888   5.524   1.961   6.301  1.0205  0.1265 -0.8488
 8799TIP3    H247889   5.447   1.865   6.212 -2.2825  0.5873  1.4216
 8800TIP3   OH247890   5.194   0.948   3.254  0.1704  0.2366  0.0519
 8800TIP3    H147891   5.142   0.868   3.243 -0.5466  0.7536 -0.4070
 8800TIP3    H247892   5.238   0.937   3.338 -0.0792 -0.5562  0.0823
 8801TIP3   OH247893   0.500   6.249   0.263 -0.3788 -1.2564  0.0224
 8801TIP3    H147894   0.473   6.219   0.176  1.4662  0.3576 -1.1519
 8801TIP3    H247895   0.530   6.170   0.308  0.5580 -1.8000 -1.5500
 8802TIP3   OH247896   6.107   3.970   5.803 -0.1407  0.0172  0.3745
 8802TIP3    H147897   6.189   4.018   5.810 -0.7592  0.7694  2.5697
 8802TIP3    H247898   6.051   4.026   5.750  1.4293 -1.4977 -3.0970
 8803TIP3   OH247899   5.713   2.845   2.907 -0.5682  0.4691  0.2250
 8803TIP3    H147900   5.704   2.784   2.980  2.7117 -1.6411 -0.9939
 8803TIP3    H247901   5.642   2.823   2.847 -0.7031 -0.7319  0.8124
 8804TIP3   OH247902   1.482   0.695   5.322  0.3063  0.4236  0.3286
 8804TIP3    H147903   1.539   0.721   5.394  0.5349  0.9076 -0.0256
 8804TIP3    H247904   1.524   0.617   5.285 -1.5944 -1.8715  2.8514
 8805TIP3   OH247905   4.977   3.965   4.492 -0.3976  0.0722  0.0107
 8805TIP3    H147906   5.053   4.024   4.490 -1.2375  1.1741 -0.4015
 8805TIP3    H247907   4.926   3.994   4.568 -0.4119 -0.6416  0.2703
 8806TIP3   OH247908   0.609   2.215   1.973 -0.5428 -0.2235 -0.0881
 8806TIP3    H147909   0.585   2.224   2.065 -0.0657 -0.3006  0.0444
 8806TIP3    H247910   0.546   2.270   1.926 -1.4805 -1.0724  0.1833
 8807TIP3   OH247911   4.085   4.677  17.210  0.2287  0.2978 -0.5288
 8807TIP3    H147912   3.998   4.647  17.237  1.4619 -2.0807  1.0729
 8807TIP3    H247913   4.141   4.654  17.284  2.4109  0.7292 -2.0213
 8808TIP3   OH247914   3.793   3.014  12.988  0.2460 -0.1570 -0.6341
 8808TIP3    H147915   3.831   2.959  12.920 -1.9852  0.3149 -2.3257
 8808TIP3    H247916   3.731   2.957  13.034  0.1335  0.1162 -0.4393
 8809TIP3   OH247917   0.848   1.900   2.612  0.2860 -0.6568  0.2095
 8809TIP3    H147918   0.817   1.874   2.526 -0.0978 -0.6729  0.3537
 8809TIP3    H247919   0.769   1.907   2.666  0.5210 -0.6393  0.5577
 8810TIP3   OH247920   4.995   4.763   4.611  0.2923  0.7390  0.2210
 8810TIP3    H147921   4.936   4.785   4.683  2.6234 -0.8004  2.6657
 8810TIP3    H247922   4.953   4.688   4.569 -0.5512  0.9752  0.6247
 8811TIP3   OH247923   5.698   3.405   1.234  0.2907  0.0938  0.4154
 8811TIP3    H147924   5.759   3.355   1.179 -0.8745  0.1246 -0.9075
 8811TIP3    H247925   5.730   3.495   1.229  0.0061  0.1481 -0.4684
 8812TIP3   OH247926   1.764   2.135   3.168 -0.0905  0.3609 -0.1630
 8812TIP3    H147927   1.708   2.078   3.220  0.0409 -0.1414 -0.5640
 8812TIP3    H247928   1.838   2.154   3.225  0.8989 -1.5726 -0.7420
 8813TIP3   OH247929   6.697   2.546   4.287 -0.5966  0.1202 -0.0889
 8813TIP3    H147930   6.654   2.592   4.359  0.0572  0.8678 -0.1637
 8813TIP3    H247931   6.791   2.552   4.307 -0.5533 -2.4828  0.6659
 8814TIP3   OH247932   2.144   0.647  14.909  0.5967  0.5056 -0.2170
 8814TIP3    H147933   2.143   0.742  14.898  0.0662  0.5805  0.4524
 8814TIP3    H247934   2.055   0.626  14.939  0.6911 -0.2067 -0.4390
 8815TIP3   OH247935   5.486   5.059  17.096 -0.1935  0.0639 -0.6310
 8815TIP3    H147936   5.489   4.980  17.150 -1.4020  0.6946  0.3934
 8815TIP3    H247937   5.522   5.128  17.153 -0.2535  0.4817 -1.0899
 8816TIP3   OH247938   5.960   2.068  13.108  0.3102  1.1798  0.6575
 8816TIP3    H147939   5.937   1.982  13.145  1.2362  1.4281  1.8466
 8816TIP3    H247940   5.912   2.072  13.026 -1.5605  0.4683  1.6756
 8817TIP3   OH247941   4.449   2.688   1.244  0.1329  0.5132 -0.5914
 8817TIP3    H147942   4.497   2.655   1.319 -0.6652  0.0655 -0.2724
 8817TIP3    H247943   4.513   2.739   1.195  0.9236 -0.0631 -0.1650
 8818TIP3   OH247944   0.872   1.158   1.885 -0.4970 -0.0736  0.3777
 8818TIP3    H147945   0.866   1.064   1.872  0.3845 -0.2805  1.3391
 8818TIP3    H247946   0.961   1.181   1.858  0.0185  0.1142  2.1640
 8819TIP3   OH247947   2.420   3.324  12.167 -0.6962  0.4777  0.2848
 8819TIP3    H147948   2.460   3.409  12.148 -0.1964  0.2080  0.1208
 8819TIP3    H247949   2.418   3.319  12.262 -0.3035  0.4762  0.2936
 8820TIP3   OH247950   4.762   1.977   1.512 -0.3620 -0.3028 -0.3666
 8820TIP3    H147951   4.750   1.959   1.605  3.0776 -3.1832 -0.3379
 8820TIP3    H247952   4.825   2.049   1.509  0.4496 -1.0014 -0.4181
 8821TIP3   OH247953   4.999   1.259  11.556  0.3652  0.4745 -0.1120
 8821TIP3    H147954   4.970   1.220  11.638 -0.2878 -0.7813 -0.9140
 8821TIP3    H247955   4.929   1.319  11.531 -0.5564 -0.8995 -0.9215
 8822TIP3   OH247956   4.530   6.357   4.320 -0.4734 -0.0197  0.0781
 8822TIP3    H147957   4.596   6.424   4.307 -0.3557 -0.3373 -1.0208
 8822TIP3    H247958   4.521   6.350   4.415  0.2316  0.8360  0.2145
 8823TIP3   OH247959   3.135   1.727   3.919 -0.0877  0.4064 -0.0235
 8823TIP3    H147960   3.161   1.817   3.940  1.4974 -0.1270  0.3572
 8823TIP3    H247961   3.214   1.675   3.934 -1.0939 -1.1084  0.1060
 8824TIP3   OH247962   5.062   3.187   2.307  0.0147  0.3528 -0.1324
 8824TIP3    H147963   5.020   3.239   2.375  0.4788 -0.0343  0.4543
 8824TIP3    H247964   5.106   3.252   2.251  0.2272  0.6202  0.3465
 8825TIP3   OH247965   5.716   5.466  14.494 -0.0910  0.1722  0.3048
 8825TIP3    H147966   5.781   5.518  14.449  0.1194 -1.4771 -1.3656
 8825TIP3    H247967   5.750   5.457  14.583  2.5162 -1.5072 -0.8006
 8826TIP3   OH247968   3.674   4.225   0.195 -0.0446 -0.2701  0.5872
 8826TIP3    H147969   3.712   4.264   0.274 -0.6018 -0.1614  0.8073
 8826TIP3    H247970   3.580   4.223   0.213 -0.1431 -0.5142  0.0424
 8827TIP3   OH247971   6.660   1.892  14.003  0.7707  0.0268 -0.1677
 8827TIP3    H147972   6.729   1.872  13.940  1.8345 -1.0619  1.3148
 8827TIP3    H247973   6.680   1.980  14.034  1.3670 -0.2029  0.0962
 8828TIP3   OH247974   3.886   3.055  17.204 -0.4596  0.1960 -0.2671
 8828TIP3    H147975   3.878   3.143  17.241  0.4834  0.2968 -0.2913
 8828TIP3    H247976   3.963   3.018  17.248 -1.3371 -0.9186  0.3461
 8829TIP3   OH247977   6.816   3.970   3.004 -0.0005  0.0985  0.2020
 8829TIP3    H147978   6.779   4.049   3.042  0.9478  0.6583 -0.0281
 8829TIP3    H247979   6.740   3.914   2.987 -0.8520  1.7105 -1.3957
 8830TIP3   OH247980   3.735   0.960   3.954  0.4936  0.0591 -0.0587
 8830TIP3    H147981   3.802   0.971   3.886  1.8162  0.2054  1.2461
 8830TIP3    H247982   3.658   0.926   3.907  1.0160  1.2509 -1.7980
 8831TIP3   OH247983   5.248   4.302  16.398 -0.1775  0.0716 -0.2923
 8831TIP3    H147984   5.304   4.373  16.429 -1.0955  0.1349  1.2479
 8831TIP3    H247985   5.213   4.334  16.315 -1.3883  1.8430  0.8741
 8832TIP3   OH247986   6.274   1.516  11.357 -0.1553  0.1086  0.3850
 8832TIP3    H147987   6.296   1.441  11.412 -1.3689  0.1432  0.9275
 8832TIP3    H247988   6.244   1.583  11.418  0.5505  0.9041 -0.1347
 8833TIP3   OH247989   2.527   2.492   0.655  0.6392 -0.2023 -0.6072
 8833TIP3    H147990   2.515   2.403   0.623 -1.7601 -0.1422  0.0461
 8833TIP3    H247991   2.457   2.504   0.719 -0.2804  2.8033 -2.0815
 8834TIP3   OH247992   0.118   5.487  10.928 -0.0527  0.0320  0.1363
 8834TIP3    H147993   0.148   5.397  10.913  0.4826  0.3259 -0.5831
 8834TIP3    H247994   0.022   5.481  10.929 -0.0167 -0.5483  0.0999
 8835TIP3   OH247995   5.482   0.063   6.198 -0.0164  0.1861  0.0318
 8835TIP3    H147996   5.470   0.139   6.254 -1.2524  0.8713 -1.1354
 8835TIP3    H247997   5.483  -0.011   6.259  1.5989  1.1383  1.2093
 8836TIP3   OH247998   3.353   3.199  14.550 -0.3027  0.3684  0.1924
 8836TIP3    H147999   3.363   3.280  14.501  0.1668  0.3871  0.3158
 8836TIP3    H248000   3.312   3.138  14.488 -0.2880  0.5779 -0.0231
 8837TIP3   OH248001   4.971   4.713  16.975 -0.0251  0.2656  1.1098
 8837TIP3    H148002   4.976   4.789  17.032 -0.1730 -0.0377  1.5265
 8837TIP3    H248003   5.062   4.684  16.964  0.2074  1.4625 -0.3522
 8838TIP3   OH248004   6.783   4.877   4.759 -0.3026 -0.3888  0.9782
 8838TIP3    H148005   6.836   4.957   4.748 -2.1657  0.5017 -2.1977
 8838TIP3    H248006   6.801   4.827   4.679 -1.7813 -1.5405  1.3678
 8839TIP3   OH248007   3.644   6.026  15.176  0.3406  0.5339 -0.1066
 8839TIP3    H148008   3.673   5.937  15.154  0.2791  0.5787 -0.3664
 8839TIP3    H248009   3.693   6.083  15.118 -1.4315  0.4986 -1.6913
 8840TIP3   OH248010   0.536   6.364  13.509  0.2448  0.8257  0.1857
 8840TIP3    H148011   0.579   6.409  13.580  0.7401  0.1792  0.2996
 8840TIP3    H248012   0.604   6.310  13.469 -0.2811  0.3582 -0.0929
 8841TIP3   OH248013   1.719   5.027   4.988 -0.2118 -0.0831  0.3616
 8841TIP3    H148014   1.753   5.115   5.000 -1.5396  0.0477  3.8975
 8841TIP3    H248015   1.631   5.039   4.952  0.3754 -0.0575 -1.0666
 8842TIP3   OH248016   2.237   5.736   2.730 -0.6067 -0.4986 -0.0309
 8842TIP3    H148017   2.253   5.662   2.788  0.8879 -1.2077 -1.2964
 8842TIP3    H248018   2.197   5.697   2.652 -0.2832  0.0963 -0.5012
 8843TIP3   OH248019   6.494   0.665   1.839 -0.8700  0.2973 -0.1254
 8843TIP3    H148020   6.588   0.660   1.852 -0.9229 -0.8417 -0.1190
 8843TIP3    H248021   6.483   0.697   1.750 -0.4854  1.2761  0.1757
 8844TIP3   OH248022   2.509   2.313  14.659  0.3794 -0.5604  0.0595
 8844TIP3    H148023   2.475   2.357  14.737 -1.1112 -0.2618 -0.7506
 8844TIP3    H248024   2.439   2.253  14.633  0.8831 -0.6758 -1.0369
 8845TIP3   OH248025   0.541   0.011  13.985  0.2667  0.5786  0.7148
 8845TIP3    H148026   0.608  -0.026  13.928 -0.0834 -0.9617  1.2800
 8845TIP3    H248027   0.542  -0.045  14.062  0.7139  2.6074  2.2279
 8846TIP3   OH248028   0.632   0.236   0.982 -0.5924 -0.5318 -0.3077
 8846TIP3    H148029   0.699   0.213   0.918 -0.6794 -1.7157  0.0072
 8846TIP3    H248030   0.602   0.323   0.956  2.3545  0.8075  0.6134
 8847TIP3   OH248031   4.780   3.989   0.920  0.0810  0.0868 -0.2159
 8847TIP3    H148032   4.729   3.973   0.841 -0.8500 -0.3314  0.4524
 8847TIP3    H248033   4.714   4.009   0.987  0.7910 -0.5158  0.6717
 8848TIP3   OH248034   4.539   3.018   5.844  0.2548  0.6861  0.2335
 8848TIP3    H148035   4.591   2.945   5.878 -0.5342 -0.6800 -1.4256
 8848TIP3    H248036   4.594   3.058   5.777 -0.1070  0.3822 -0.2442
 8849TIP3   OH248037   2.000   4.191  15.959  0.1921 -0.2287 -0.1215
 8849TIP3    H148038   1.953   4.262  15.914  1.3012  0.0520 -0.8427
 8849TIP3    H248039   1.960   4.188  16.045 -0.3929  0.7768 -0.3431
 8850TIP3   OH248040   0.245   2.220   0.727  0.2442 -0.0713 -0.9410
 8850TIP3    H148041   0.190   2.180   0.794 -0.6866  2.7297  0.0815
 8850TIP3    H248042   0.332   2.183   0.741 -0.6034 -1.8221 -0.2073
 8851TIP3   OH248043   2.444   3.788  16.136  0.2632 -0.2104 -0.4103
 8851TIP3    H148044   2.398   3.767  16.054  0.9592 -0.7081 -0.6739
 8851TIP3    H248045   2.417   3.878  16.155  1.4350  0.5281 -2.0925
 8852TIP3   OH248046   0.995   3.373   2.172  0.3613 -0.5131  0.2680
 8852TIP3    H148047   0.977   3.467   2.175  1.0364 -0.3903  0.6201
 8852TIP3    H248048   1.028   3.358   2.084 -0.0685 -0.4761  0.1027
 8853TIP3   OH248049   6.588   1.777   2.070  0.1361 -0.3319  0.1226
 8853TIP3    H148050   6.526   1.732   2.128  1.6424 -0.4875  1.6290
 8853TIP3    H248051   6.552   1.866   2.061 -0.4340 -0.4882  0.8059
 8854TIP3   OH248052   1.454   4.162  11.729  0.2199 -0.5125  0.2621
 8854TIP3    H148053   1.404   4.224  11.676  0.7079  1.1424  1.6995
 8854TIP3    H248054   1.523   4.215  11.769  1.4437 -2.2394  0.4875
 8855TIP3   OH248055   3.535   3.237   5.265 -0.4068  0.0120 -0.1014
 8855TIP3    H148056   3.556   3.326   5.235 -0.1334  0.8009  2.3324
 8855TIP3    H248057   3.486   3.199   5.192 -0.0002  1.9380 -1.4404
 8856TIP3   OH248058   4.514   5.063   2.577  0.0770 -0.1363 -0.0211
 8856TIP3    H148059   4.569   5.009   2.632 -0.7552 -0.2551  0.7080
 8856TIP3    H248060   4.574   5.104   2.514  0.7818 -1.4141 -0.1819
 8857TIP3   OH248061   6.694   0.008  17.123 -0.4853 -0.6623  0.0895
 8857TIP3    H148062   6.685  -0.070  17.178  1.1636 -0.8738  0.0948
 8857TIP3    H248063   6.776  -0.006  17.076 -0.9040  0.4187 -0.9818
 8858TIP3   OH248064   5.828   1.294  11.321  0.7227  0.2215 -0.0956
 8858TIP3    H148065   5.862   1.363  11.378  1.0721  1.1809 -1.4343
 8858TIP3    H248066   5.888   1.220  11.334  0.3501  0.1522  1.3353
 8859TIP3   OH248067   0.089   6.116  17.008  0.2637 -0.6141  0.2100
 8859TIP3    H148068   0.007   6.087  16.968  0.8989 -2.4066  0.1633
 8859TIP3    H248069   0.061   6.175  17.079 -1.0767 -1.3154  0.2876
 8860TIP3   OH248070   0.164   4.894  13.881  0.3132  0.1462 -0.0113
 8860TIP3    H148071   0.231   4.853  13.827 -0.1844 -0.3114 -0.2785
 8860TIP3    H248072   0.200   4.891  13.970  1.1542  0.9478 -0.3169
 8861TIP3   OH248073   1.342   0.230  11.620 -0.9922  0.1538  0.2208
 8861TIP3    H148074   1.381   0.143  11.631  1.3672  1.4012  2.1235
 8861TIP3    H248075   1.284   0.239  11.696  0.2369  0.9667  1.0860
 8862TIP3   OH248076   5.382   5.786  14.512  0.3567 -0.7375  0.2971
 8862TIP3    H148077   5.313   5.779  14.446  1.1437 -1.5269 -0.4503
 8862TIP3    H248078   5.420   5.698  14.517  1.7381 -0.1618  0.2269
 8863TIP3   OH248079   4.270   4.255  11.252 -0.6046 -0.3270  0.1226
 8863TIP3    H148080   4.179   4.278  11.271 -0.6439 -0.1436 -0.3001
 8863TIP3    H248081   4.268   4.215  11.165 -0.2702 -0.2473  0.0772
 8864TIP3   OH248082   4.509   6.344  16.275 -0.0298 -0.0962 -0.3136
 8864TIP3    H148083   4.484   6.353  16.367 -1.7480 -1.3290 -0.6202
 8864TIP3    H248084   4.426   6.348  16.228  0.8630  0.7482 -1.8326
 8865TIP3   OH248085   0.170   2.379   2.038  0.2131 -0.2999  0.2888
 8865TIP3    H148086   0.085   2.342   2.012  0.7031 -0.3410 -1.3155
 8865TIP3    H248087   0.202   2.422   1.959  2.3904 -1.5857  0.4245
 8866TIP3   OH248088   0.621   3.073   3.095 -0.6048  0.3087  0.3071
 8866TIP3    H148089   0.656   2.989   3.066 -0.8269 -0.0094  0.9359
 8866TIP3    H248090   0.649   3.080   3.187  0.9129  1.7325 -0.2450
 8867TIP3   OH248091   3.352   2.239   4.422 -0.4324 -0.1144  0.3523
 8867TIP3    H148092   3.315   2.170   4.477  0.5993  0.6296  2.0335
 8867TIP3    H248093   3.354   2.202   4.334 -0.9548 -1.7926  1.0338
 8868TIP3   OH248094   6.798   0.137  14.381 -0.6429 -0.2069  0.7987
 8868TIP3    H148095   6.839   0.109  14.462  1.0361 -1.1413 -0.3380
 8868TIP3    H248096   6.770   0.227  14.397  1.1917  0.1930  1.8562
 8869TIP3   OH248097   3.071   3.061   4.695  0.0225  0.4242  0.1226
 8869TIP3    H148098   3.095   3.110   4.616  0.2412  1.9494  1.1144
 8869TIP3    H248099   3.049   3.129   4.759  0.3739 -0.7916  1.5479
 8870TIP3   OH248100   6.124   5.448  15.363  0.0456  0.5241 -0.1622
 8870TIP3    H148101   6.055   5.435  15.298  0.9701 -0.8096 -0.8975
 8870TIP3    H248102   6.125   5.368  15.414  2.4418 -0.3830 -1.5235
 8871TIP3   OH248103   4.742   3.230  13.495  0.1153 -0.3993 -0.6656
 8871TIP3    H148104   4.825   3.248  13.451 -1.2050  3.1579 -1.9520
 8871TIP3    H248105   4.757   3.254  13.586  0.4693  0.4879 -0.9477
 8872TIP3   OH248106   4.059   6.020  11.468  0.4509 -0.2676  0.0921
 8872TIP3    H148107   4.075   5.935  11.427  0.3292  1.0944 -2.8996
 8872TIP3    H248108   3.987   6.058  11.418  0.0234  1.3334  1.8357
 8873TIP3   OH248109   2.550   3.680  11.587  0.1232  0.1602 -0.0727
 8873TIP3    H148110   2.463   3.717  11.601 -0.2299 -1.1410  1.2619
 8873TIP3    H248111   2.575   3.710  11.500 -1.2231  1.3975 -0.0628
 8874TIP3   OH248112   5.886   1.835   4.276 -0.7491 -0.6039 -0.2292
 8874TIP3    H148113   5.967   1.880   4.298 -1.8946  0.9294  1.0483
 8874TIP3    H248114   5.905   1.743   4.289  1.3965 -0.4403 -2.0297
 8875TIP3   OH248115   0.819   2.359  13.820 -0.8075 -0.7850 -0.2378
 8875TIP3    H148116   0.797   2.451  13.809 -0.0272 -0.5569  0.0429
 8875TIP3    H248117   0.754   2.312  13.768 -2.1160 -0.1595  0.7920
 8876TIP3   OH248118   0.789   5.509   3.619  0.0407 -0.4950  0.3691
 8876TIP3    H148119   0.850   5.488   3.548 -1.8831 -0.2173 -1.4371
 8876TIP3    H248120   0.833   5.480   3.699  2.1859 -0.9876 -0.9631
 8877TIP3   OH248121   4.776   1.660   3.708  0.1633 -0.4659 -0.0272
 8877TIP3    H148122   4.711   1.603   3.667 -0.7179  1.4517 -1.4253
 8877TIP3    H248123   4.860   1.631   3.672 -0.1367 -1.6380  0.2068
 8878TIP3   OH248124   1.365   4.375   4.956  0.3201  0.1385 -0.2215
 8878TIP3    H148125   1.447   4.418   4.980 -0.8710  1.8075  0.9090
 8878TIP3    H248126   1.329   4.343   5.039  0.0455 -0.9996 -0.7665
 8879TIP3   OH248127   6.260   4.111   2.942 -0.2373 -0.3416 -0.5569
 8879TIP3    H148128   6.315   4.179   2.904 -0.5176  0.1024 -0.1628
 8879TIP3    H248129   6.185   4.157   2.978  1.1259 -0.4740  2.6450
 8880TIP3   OH248130   2.951   4.429   0.815  0.0832  0.7193  0.0253
 8880TIP3    H148131   2.979   4.418   0.906 -2.7729  1.0057  1.0055
 8880TIP3    H248132   3.003   4.365   0.766  2.4022  1.2619  1.6792
 8881TIP3   OH248133   4.262   1.854   3.193  0.1678 -0.5388  0.2791
 8881TIP3    H148134   4.344   1.818   3.160 -1.8706 -3.7471 -1.6065
 8881TIP3    H248135   4.230   1.908   3.120 -0.5206 -1.2521  0.0421
 8882TIP3   OH248136   6.521   3.155  15.706 -0.5236  0.3298 -0.1205
 8882TIP3    H148137   6.510   3.135  15.613 -0.3907  1.3074 -0.3439
 8882TIP3    H248138   6.432   3.168  15.738 -0.5756 -0.0945 -0.0905
 8883TIP3   OH248139   5.365   0.347   5.179  0.4797  0.1021 -0.0222
 8883TIP3    H148140   5.410   0.424   5.145  0.2081  0.5747  0.6641
 8883TIP3    H248141   5.435   0.289   5.207  0.7349  2.0614  3.7764
 8884TIP3   OH248142   5.513   3.166  12.485 -0.1243  0.4113 -0.2794
 8884TIP3    H148143   5.562   3.171  12.403  0.4245  1.2084  0.0861
 8884TIP3    H248144   5.568   3.212  12.549 -0.3321 -0.5934  0.6470
 8885TIP3   OH248145   3.288   1.454  16.670  0.3641  0.3156  0.2048
 8885TIP3    H148146   3.252   1.507  16.600  0.9107 -0.5912 -0.7739
 8885TIP3    H248147   3.379   1.439  16.645  1.0024  1.2323  1.8526
 8886TIP3   OH248148   4.595   6.546   0.366  0.2082  0.7546  0.1520
 8886TIP3    H148149   4.505   6.518   0.348  0.3644  0.1620  0.2633
 8886TIP3    H248150   4.617   6.503   0.448  0.7304  0.5785 -0.0780
 8887TIP3   OH248151   6.562   0.793   0.756  0.0667  0.8351 -0.0077
 8887TIP3    H148152   6.591   0.708   0.723  0.7936  1.5164 -1.1752
 8887TIP3    H248153   6.638   0.850   0.743 -0.6610  1.8374  0.0849
 8888TIP3   OH248154   6.434   0.928  15.008 -0.2134 -0.4318  0.2884
 8888TIP3    H148155   6.397   0.968  14.929 -0.0064  0.1079  0.4611
 8888TIP3    H248156   6.524   0.907  14.984  0.1593  0.6513  0.6888
 8889TIP3   OH248157   1.413   6.743   0.439  0.2667 -0.1074  0.2081
 8889TIP3    H148158   1.370   6.667   0.478  1.7563 -0.8018  0.5424
 8889TIP3    H248159   1.362   6.818   0.469 -1.2687 -0.9688 -0.1910
 8890TIP3   OH248160   5.511   2.723  12.195 -0.4214  0.0647  0.3878
 8890TIP3    H148161   5.592   2.773  12.204  0.6582 -1.7992  1.4222
 8890TIP3    H248162   5.452   2.762  12.259 -0.2187  1.1646 -0.0762
 8891TIP3   OH248163   2.972   3.633  13.690  0.0996 -0.2402 -0.5196
 8891TIP3    H148164   2.922   3.651  13.770  0.4377 -3.1084  0.3796
 8891TIP3    H248165   2.907   3.639  13.620 -0.4615  1.0618  0.0956
 8892TIP3   OH248166   5.503   6.077   4.272  0.3631  0.7469  0.4168
 8892TIP3    H148167   5.472   6.087   4.362 -0.9607  1.1830 -0.0714
 8892TIP3    H248168   5.533   5.986   4.267  0.4212  0.7151  1.2948
 8893TIP3   OH248169   2.558   4.395  11.379  0.6044  0.7076  0.1691
 8893TIP3    H148170   2.585   4.387  11.287 -0.0148  0.4790  0.0033
 8893TIP3    H248171   2.489   4.330  11.389 -0.8531  2.2482  0.2231
 8894TIP3   OH248172   1.444   2.940  12.321 -0.4051  0.0504  0.0853
 8894TIP3    H148173   1.424   2.942  12.228 -0.3736 -0.3063  0.0669
 8894TIP3    H248174   1.393   3.011  12.359 -0.0217  0.5189 -0.2797
 8895TIP3   OH248175   6.180   6.280   3.132  0.0376  0.5600  0.1339
 8895TIP3    H148176   6.168   6.344   3.201  0.5555  0.1219  0.6338
 8895TIP3    H248177   6.219   6.204   3.175 -0.8819 -0.2252 -0.3836
 8896TIP3   OH248178   0.086   1.445  10.676 -0.6632  0.2841 -0.6175
 8896TIP3    H148179   0.016   1.482  10.622 -1.6629 -1.5855 -0.6296
 8896TIP3    H248180   0.136   1.389  10.617 -1.0692 -0.8568  0.1005
 8897TIP3   OH248181   0.555   3.357  15.234  0.2034  0.0232 -0.1852
 8897TIP3    H148182   0.537   3.279  15.181  1.1592  0.1879 -0.7666
 8897TIP3    H248183   0.647   3.349  15.257  0.2235  0.8333  0.0091
 8898TIP3   OH248184   3.446   6.257   0.386  0.4322 -0.0534 -0.4006
 8898TIP3    H148185   3.501   6.289   0.457  1.9061  0.8184 -1.8896
 8898TIP3    H248186   3.378   6.205   0.429  1.8626 -0.3566  1.5562
 8899TIP3   OH248187   6.270   1.877  11.242 -0.3204 -0.1224 -0.2488
 8899TIP3    H148188   6.193   1.934  11.248 -0.2934 -0.1309  0.1338
 8899TIP3    H248189   6.303   1.892  11.153  0.0506  0.9200  0.0596
 8900TIP3   OH248190   2.884   4.837  12.885 -0.1633 -0.0777  0.0366
 8900TIP3    H148191   2.819   4.780  12.843 -0.9242  1.0485 -0.3569
 8900TIP3    H248192   2.946   4.858  12.816  0.2748 -0.6323  0.2521
 8901TIP3   OH248193   4.596   2.205  17.144  0.0000  0.6699  0.0787
 8901TIP3    H148194   4.545   2.165  17.073 -0.6851  0.8337  0.4677
 8901TIP3    H248195   4.629   2.286  17.106 -0.1941  0.6557 -0.1236
 8902TIP3   OH248196   1.545   4.520  17.258  0.4996 -0.1155  0.1850
 8902TIP3    H148197   1.600   4.466  17.202  0.4870 -0.0836  0.1418
 8902TIP3    H248198   1.599   4.538  17.335  0.0801 -1.1709  0.7350
 8903TIP3   OH248199   1.249   5.275  10.173  0.7457  0.2349  0.4208
 8903TIP3    H148200   1.230   5.195  10.124  0.1922 -0.3298  1.5295
 8903TIP3    H248201   1.167   5.324  10.171  0.8873  0.4687  0.3116
 8904TIP3   OH248202   6.553   3.696  15.700 -0.6065 -0.4461 -0.2221
 8904TIP3    H148203   6.565   3.670  15.791  1.1919 -0.5595 -0.4741
 8904TIP3    H248204   6.461   3.721  15.694 -0.5578  0.2994  1.8179
 8905TIP3   OH248205   1.027   4.910   4.692  0.4897 -0.4262  0.7458
 8905TIP3    H148206   0.967   4.934   4.763 -1.2812 -1.8659 -0.2278
 8905TIP3    H248207   1.085   4.986   4.684 -0.2270  0.3763  2.7169
 8906TIP3   OH248208   4.280   0.241   1.678 -0.0383 -0.1272 -0.1566
 8906TIP3    H148209   4.253   0.151   1.659 -0.9465  0.1307 -0.0966
 8906TIP3    H248210   4.198   0.288   1.692  0.3722  1.0387 -1.5936
 8907TIP3   OH248211   6.723   1.237  12.547  0.1158 -0.2577 -0.1219
 8907TIP3    H148212   6.631   1.231  12.521  0.3870  0.5248 -1.2819
 8907TIP3    H248213   6.723   1.215  12.641 -1.3678  0.6440  0.0977
 8908TIP3   OH248214   3.279   0.501   3.154  0.1079 -0.2785 -0.0559
 8908TIP3    H148215   3.265   0.585   3.197 -0.7644 -0.4739  0.0646
 8908TIP3    H248216   3.191   0.471   3.131  0.6432  0.5680 -3.4699
 8909TIP3   OH248217   1.047   0.343   5.330  0.1583  0.4603 -0.2234
 8909TIP3    H148218   0.981   0.273   5.329  2.4798 -1.8106 -1.1366
 8909TIP3    H248219   1.045   0.376   5.420 -0.5803 -1.2281  0.4126
 8910TIP3   OH248220   4.778   2.186   1.283 -0.5776  0.4661  0.2103
 8910TIP3    H148221   4.846   2.193   1.216  1.1562 -0.6077  1.8075
 8910TIP3    H248222   4.763   2.092   1.292 -1.6280  0.6601  0.5243
 8911TIP3   OH248223   1.055   3.479  11.798 -0.2388  0.3481  0.2542
 8911TIP3    H148224   1.006   3.523  11.868 -0.8439  1.1456 -0.6601
 8911TIP3    H248225   0.988   3.450  11.736  0.3702  0.7412 -0.6074
 8912TIP3   OH248226   1.311   5.508  15.127 -0.2911  0.6898 -0.0546
 8912TIP3    H148227   1.318   5.453  15.205  1.4654 -0.5095 -1.0381
 8912TIP3    H248228   1.394   5.555  15.123 -0.3348  0.6869 -1.2267
 8913TIP3   OH248229   4.878   3.668  15.118  0.1415 -0.0166 -0.2633
 8913TIP3    H148230   4.928   3.594  15.083 -1.2139 -0.0518 -2.2024
 8913TIP3    H248231   4.846   3.637  15.203  3.1421 -0.0880  0.9240
 8914TIP3   OH248232   1.969   4.153   1.071  0.1968  0.4297 -0.7552
 8914TIP3    H148233   1.913   4.101   1.128 -1.5142  2.2573 -0.6766
 8914TIP3    H248234   2.048   4.101   1.060  0.1958 -0.3862  2.5327
 8915TIP3   OH248235   3.709   4.251   2.942  0.0943 -0.4566  0.5742
 8915TIP3    H148236   3.654   4.173   2.953 -0.2948 -0.2061  0.3935
 8915TIP3    H248237   3.652   4.315   2.900  1.1506 -0.9209 -1.5903
 8916TIP3   OH248238   4.044   5.232  16.925  0.1157 -0.1622 -0.2120
 8916TIP3    H148239   4.032   5.191  17.011  0.1543 -1.4610 -0.8098
 8916TIP3    H248240   4.018   5.323  16.938 -1.8772 -0.8294  0.6722
 8917TIP3   OH248241   4.586   3.774   1.261 -0.1032 -0.1608 -0.8458
 8917TIP3    H148242   4.570   3.722   1.339 -1.7369  0.3083 -0.8487
 8917TIP3    H248243   4.622   3.711   1.198  0.4438 -0.7132  0.0027
 8918TIP3   OH248244   4.203   5.222   2.209 -0.9924 -0.2123 -0.2969
 8918TIP3    H148245   4.270   5.263   2.262 -1.1876 -0.5404  0.2145
 8918TIP3    H248246   4.225   5.245   2.119  1.2212 -2.3389 -0.3367
 8919TIP3   OH248247   1.277   5.096  10.645  0.6267 -0.1836 -0.5152
 8919TIP3    H148248   1.184   5.115  10.648  0.5702 -0.4624 -0.4631
 8919TIP3    H248249   1.310   5.146  10.570  0.6565  0.8473  0.1841
 8920TIP3   OH248250   0.311   4.959  16.755 -0.8397 -0.1681  0.0162
 8920TIP3    H148251   0.376   5.008  16.704  0.7647 -1.0152  1.2035
 8920TIP3    H248252   0.230   4.966  16.704  0.6529 -0.7709 -2.5124
 8921TIP3   OH248253   3.965   4.913   0.458 -0.2232 -0.5539 -0.2467
 8921TIP3    H148254   4.038   4.952   0.506  0.7808 -1.8131 -0.7057
 8921TIP3    H248255   3.999   4.901   0.369 -1.7385  0.8799 -1.0516
 8922TIP3   OH248256   4.622   0.500  16.528 -0.1564  0.0665 -0.4157
 8922TIP3    H148257   4.658   0.452  16.453  1.4605  1.7278 -0.7588
 8922TIP3    H248258   4.529   0.509  16.509 -0.3817 -2.3886 -0.6228
 8923TIP3   OH248259   5.148   3.618   3.119  0.2561  0.0965 -0.2268
 8923TIP3    H148260   5.107   3.704   3.108 -2.4464 -1.1496 -0.5148
 8923TIP3    H248261   5.167   3.590   3.030 -0.9517 -0.5277 -0.3020
 8924TIP3   OH248262   0.199   3.048   3.359  0.0643 -0.7666  0.1488
 8924TIP3    H148263   0.257   3.108   3.407 -0.3782  0.7491 -1.1810
 8924TIP3    H248264   0.206   2.965   3.406  0.6974  0.3238  2.0244
 8925TIP3   OH248265   3.971   4.745   5.344  0.0125  0.3981  0.3949
 8925TIP3    H148266   3.912   4.671   5.363  0.0513  0.5868  1.3056
 8925TIP3    H248267   3.914   4.822   5.345 -0.0149  0.3849 -0.4754
 8926TIP3   OH248268   0.259   3.959  16.592  0.7689 -0.1903 -0.7934
 8926TIP3    H148269   0.276   4.022  16.662  0.4513  0.6854 -1.4983
 8926TIP3    H248270   0.319   3.984  16.522  0.0688 -0.1611 -1.3871
 8927TIP3   OH248271   3.623   5.869   0.178  0.0985  1.1391 -0.5535
 8927TIP3    H148272   3.604   5.812   0.103  0.4758 -0.2885  0.4141
 8927TIP3    H248273   3.719   5.871   0.182  0.1417 -1.8288  2.0951
 8928TIP3   OH248274   0.869   4.195   0.525  0.1562  0.2608 -0.4964
 8928TIP3    H148275   0.827   4.211   0.440  2.8749 -1.1246 -2.1902
 8928TIP3    H248276   0.831   4.114   0.557 -0.3894  0.4340 -0.7010
 8929TIP3   OH248277   1.124   6.427  15.909  0.1766  0.7613  0.1923
 8929TIP3    H148278   1.199   6.398  15.960  0.3939 -0.0175 -0.5674
 8929TIP3    H248279   1.093   6.348  15.864  0.5495  1.6198 -1.6021
 8930TIP3   OH248280   0.462   1.021   3.071 -0.1576  0.6598 -0.0731
 8930TIP3    H148281   0.483   1.009   2.978 -0.1072  0.2282 -0.0082
 8930TIP3    H248282   0.519   0.958   3.116 -0.2376  0.8152  0.2442
 8931TIP3   OH248283   6.604   4.316   4.648 -0.8217  0.0236 -0.2783
 8931TIP3    H148284   6.510   4.326   4.660 -0.5888 -0.1684  1.9026
 8931TIP3    H248285   6.618   4.327   4.554 -3.0650 -0.3939 -0.6749
 8932TIP3   OH248286   0.628   4.425  16.891  0.5103  0.0644 -0.2403
 8932TIP3    H148287   0.688   4.447  16.963  0.9227 -1.3174 -0.1456
 8932TIP3    H248288   0.548   4.397  16.935 -0.2204  1.9140 -0.3664
 8933TIP3   OH248289   3.715   6.518  16.813  0.0332 -0.0197  0.1222
 8933TIP3    H148290   3.635   6.484  16.771 -0.2165 -0.2902  0.8111
 8933TIP3    H248291   3.750   6.443  16.861 -0.0959  0.4943  1.0226
 8934TIP3   OH248292   2.488   4.370   3.685  0.4277 -0.0656 -0.9819
 8934TIP3    H148293   2.544   4.346   3.759  0.1236 -0.0728 -0.7522
 8934TIP3    H248294   2.548   4.384   3.612  0.7504  0.2136 -0.6595
 8935TIP3   OH248295   4.742   3.273  11.379 -0.4855  0.1915 -0.3935
 8935TIP3    H148296   4.736   3.255  11.473 -0.6190 -1.2049 -0.6624
 8935TIP3    H248297   4.653   3.262  11.346 -0.3670  0.3056 -0.7604
 8936TIP3   OH248298   3.741   3.547  10.919  0.1301 -0.3134 -0.3880
 8936TIP3    H148299   3.787   3.602  10.855 -1.6138 -1.0141 -2.2977
 8936TIP3    H248300   3.805   3.482  10.945  0.5875 -0.6207 -2.1928
 8937TIP3   OH248301   3.364   4.875  11.256 -0.3743 -0.1029 -0.4434
 8937TIP3    H148302   3.281   4.922  11.258  0.0577  0.7692 -2.5981
 8937TIP3    H248303   3.383   4.864  11.163  1.1694 -1.6415  0.0435
 8938TIP3   OH248304   3.351   4.031   5.532  0.0041  0.1939  0.0772
 8938TIP3    H148305   3.296   3.953   5.540  1.5106 -1.0252 -1.0073
 8938TIP3    H248306   3.356   4.047   5.438 -0.8272  2.0263  0.3275
 8939TIP3   OH248307   3.925   1.521  16.350  0.2331 -0.0692 -0.8274
 8939TIP3    H148308   4.008   1.510  16.304  0.7146 -0.0169  0.0149
 8939TIP3    H248309   3.902   1.613  16.338 -0.1908 -0.3005 -1.8635
 8940TIP3   OH248310   4.682   0.953   3.278 -0.2005 -0.6492  0.0966
 8940TIP3    H148311   4.777   0.949   3.283 -0.0713 -0.4102 -2.0259
 8940TIP3    H248312   4.660   0.909   3.196 -1.8966 -0.2198  0.2997
 8941TIP3   OH248313   5.822   4.310   0.859 -0.2987  0.2335  0.4642
 8941TIP3    H148314   5.783   4.287   0.774  1.0934 -1.6771  0.3164
 8941TIP3    H248315   5.781   4.250   0.921 -0.0273  0.4536  0.8594
 8942TIP3   OH248316   2.917   2.596   5.169  0.0266  0.2177  0.5316
 8942TIP3    H148317   2.954   2.635   5.091 -1.2161 -0.3839 -0.3798
 8942TIP3    H248318   2.846   2.655   5.194 -0.8561 -0.6056  0.0412
 8943TIP3   OH248319   4.740   6.705   1.095 -0.7093  0.8689  0.6433
 8943TIP3    H148320   4.669   6.681   1.036 -0.1007 -0.7843  0.5523
 8943TIP3    H248321   4.773   6.788   1.061  0.2078 -0.4884 -1.8813
 8944TIP3   OH248322   4.671   2.981   3.172  0.0429  0.0469 -0.0497
 8944TIP3    H148323   4.707   3.069   3.160  1.1126 -0.4161 -0.3183
 8944TIP3    H248324   4.645   2.954   3.084 -1.8459  0.7416  0.2804
 8945TIP3   OH248325   2.851   3.855  13.169  0.5882 -0.1292  0.4287
 8945TIP3    H148326   2.885   3.944  13.179  0.7952  0.1546 -2.4045
 8945TIP3    H248327   2.928   3.803  13.144 -0.2473 -0.3052 -1.8569
 8946TIP3   OH248328   3.836   5.517  14.077  0.3346 -0.1807 -0.2191
 8946TIP3    H148329   3.871   5.437  14.115  1.1181  0.5033  0.5287
 8946TIP3    H248330   3.743   5.499  14.063  0.4364 -1.0904  0.2740
 8947TIP3   OH248331   2.580   5.223  15.229 -0.1704 -0.6478 -0.6477
 8947TIP3    H148332   2.608   5.184  15.147  2.1781 -0.8605  0.2435
 8947TIP3    H248333   2.646   5.197  15.293 -1.7412 -0.1381  1.2291
 8948TIP3   OH248334   4.212   1.353  13.009  0.5122  0.6446  0.3488
 8948TIP3    H148335   4.243   1.404  12.934  1.0758  1.0149  0.8320
 8948TIP3    H248336   4.278   1.284  13.021 -0.9428 -1.0738 -1.1668
 8949TIP3   OH248337   6.084   2.971   5.706  0.2337 -0.0702 -0.8536
 8949TIP3    H148338   6.106   3.057   5.668 -0.6042  0.0363 -1.1279
 8949TIP3    H248339   6.037   2.992   5.787  1.6794 -0.2946  0.0500
 8950TIP3   OH248340   5.351   1.987  12.432 -0.4652 -0.6533 -0.4362
 8950TIP3    H148341   5.441   1.958  12.450 -0.1151  0.6144 -0.1097
 8950TIP3    H248342   5.320   2.022  12.515 -0.5498  0.7776 -1.0659
 8951TIP3   OH248343   4.307   0.033   0.923 -0.4424 -0.3320  0.5962
 8951TIP3    H148344   4.284   0.072   0.839  0.6650 -0.5916  0.1631
 8951TIP3    H248345   4.240   0.065   0.984 -1.2727 -0.1753 -0.3896
 8952TIP3   OH248346   5.976   0.138  14.919  0.2021 -0.1238  0.6939
 8952TIP3    H148347   5.882   0.120  14.914 -0.0036  1.3044 -0.7006
 8952TIP3    H248348   5.998   0.177  14.835  2.3754 -1.8851  0.3927
 8953TIP3   OH248349   1.661   5.258  16.181 -0.8480  0.1032 -0.1099
 8953TIP3    H148350   1.578   5.214  16.161 -2.3175  2.0797  1.5688
 8953TIP3    H248351   1.647   5.349  16.155  0.6698  0.5411  0.5698
 8954TIP3   OH248352   0.642   2.803  12.228 -0.0718  0.6685 -0.6744
 8954TIP3    H148353   0.548   2.795  12.211 -0.6270 -0.4331  2.5330
 8954TIP3    H248354   0.658   2.897  12.227 -2.0037  1.0938  2.4620
 8955TIP3   OH248355   5.026   0.131   3.467  0.3303  0.1044  0.4148
 8955TIP3    H148356   4.964   0.082   3.521  0.6428  0.3823  1.0407
 8955TIP3    H248357   5.108   0.126   3.516  0.8998 -0.5897 -0.5960
 8956TIP3   OH248358   2.763   2.548   4.883  0.1590 -0.6633  0.2886
 8956TIP3    H148359   2.851   2.587   4.883  0.0981 -0.5196 -0.3146
 8956TIP3    H248360   2.710   2.609   4.935  0.6396 -1.2749  1.5158
 8957TIP3   OH248361   6.025   2.415  13.122 -0.1328 -0.0423 -0.1707
 8957TIP3    H148362   6.068   2.468  13.190 -0.7230  0.1710  0.0401
 8957TIP3    H248363   6.068   2.329  13.128 -1.0173 -0.3972  1.3066
 8958TIP3   OH248364   3.150   3.535  14.228  0.0762  0.3712 -0.5026
 8958TIP3    H148365   3.158   3.592  14.304 -2.2057  1.9749 -1.4034
 8958TIP3    H248366   3.113   3.454  14.262  1.8876 -0.0354  0.5423
 8959TIP3   OH248367   3.848   2.850   1.270 -0.4425  0.4450  0.2814
 8959TIP3    H148368   3.876   2.759   1.271  0.6682  0.7723 -0.1423
 8959TIP3    H248369   3.816   2.866   1.358  0.7321  0.0604  0.7885
 8960TIP3   OH248370   2.083   1.266  17.232 -0.1162 -0.0957  0.1882
 8960TIP3    H148371   2.014   1.200  17.229 -0.2723  0.1394 -1.6436
 8960TIP3    H248372   2.040   1.348  17.207  0.3028  0.5395  1.4557
 8961TIP3   OH248373   2.930   5.171   3.746 -0.5257 -0.2922 -0.0726
 8961TIP3    H148374   3.009   5.168   3.800 -1.1580 -1.4348  0.8138
 8961TIP3    H248375   2.959   5.207   3.662  0.8446 -0.2994  0.3959
 8962TIP3   OH248376   5.498   0.881   5.751  0.0556 -0.3135 -0.1602
 8962TIP3    H148377   5.541   0.943   5.810  0.3509  0.5844 -1.2953
 8962TIP3    H248378   5.490   0.800   5.802  0.3942  0.4200  1.0629
 8963TIP3   OH248379   5.869   3.705   3.117 -1.0282 -0.2905 -0.4837
 8963TIP3    H148380   5.783   3.681   3.081 -1.0509 -1.7163  0.5060
 8963TIP3    H248381   5.854   3.719   3.210 -0.3623  0.3740 -0.4700
 8964TIP3   OH248382   2.961   1.257  10.512 -0.6723  0.0738 -0.0748
 8964TIP3    H148383   2.979   1.172  10.472 -0.3437 -0.2551  0.7606
 8964TIP3    H248384   3.046   1.284  10.548 -0.8183  0.6700 -0.1785
 8965TIP3   OH248385   5.433   4.785   4.149 -0.6392  0.1297 -0.1569
 8965TIP3    H148386   5.364   4.845   4.121  0.5982  1.3351 -0.6569
 8965TIP3    H248387   5.483   4.834   4.214  0.1242 -0.5069 -0.2613
 8966TIP3   OH248388   3.333   2.032  17.049 -0.6494 -0.0872  0.3403
 8966TIP3    H148389   3.425   2.045  17.030 -0.8547  2.0693  0.7119
 8966TIP3    H248390   3.312   1.946  17.011  1.7119 -1.0278  1.1307
 8967TIP3   OH248391   0.843   4.052  16.234  0.4883  0.1703  0.8268
 8967TIP3    H148392   0.771   4.107  16.266  0.1543 -0.2139  0.7444
 8967TIP3    H248393   0.816   3.962  16.256 -0.4895 -0.2644 -1.9052
 8968TIP3   OH248394   5.127   5.925   4.110 -0.3997 -0.0767 -0.1628
 8968TIP3    H148395   5.151   5.902   4.200  1.7251  1.4670 -0.2926
 8968TIP3    H248396   5.108   6.019   4.114 -0.5351 -0.0555 -1.2799
 8969TIP3   OH248397   5.312   4.764   1.123 -0.4531  0.6291 -0.5175
 8969TIP3    H148398   5.306   4.842   1.068 -1.1593  0.5321 -0.5825
 8969TIP3    H248399   5.368   4.790   1.196 -1.2839  1.4255 -0.1517
 8970TIP3   OH248400   2.255   3.722   0.654  0.0471  0.9302  0.2977
 8970TIP3    H148401   2.270   3.784   0.725  0.6928  2.6863 -1.3005
 8970TIP3    H248402   2.228   3.641   0.697 -2.2937  2.7467  2.3700
 8971TIP3   OH248403   3.176   5.326  15.429 -0.5621  0.1927  0.2334
 8971TIP3    H148404   3.088   5.360  15.448  0.1922  1.7215  1.0815
 8971TIP3    H248405   3.180   5.243  15.476 -1.4692  0.2088  0.3545
 8972TIP3   OH248406   3.486   4.540  14.714 -0.0716  0.2884  0.3453
 8972TIP3    H148407   3.457   4.486  14.640  1.6394 -2.0339  1.3509
 8972TIP3    H248408   3.417   4.531  14.779  1.1421 -2.3465  1.3075
 8973TIP3   OH248409   3.418   2.949   0.580 -0.0555 -0.1408 -0.5768
 8973TIP3    H148410   3.502   2.964   0.536 -0.5074  1.6801 -0.8956
 8973TIP3    H248411   3.441   2.921   0.668  0.9125  1.1116 -0.4095
 8974TIP3   OH248412   2.686   1.916  14.009 -0.5845 -0.5341 -0.5171
 8974TIP3    H148413   2.709   1.839  13.958  0.1663 -0.5840 -0.1015
 8974TIP3    H248414   2.763   1.973  14.004 -0.5107 -0.5331  0.5395
 8975TIP3   OH248415   6.519   6.623   4.307 -0.0839 -0.0296 -0.0031
 8975TIP3    H148416   6.476   6.541   4.279  1.5851 -0.8426 -0.2457
 8975TIP3    H248417   6.555   6.603   4.393  1.6443 -0.0432 -0.7162
 8976TIP3   OH248418   3.421   5.597  17.016  0.2387  0.4528 -0.0461
 8976TIP3    H148419   3.349   5.541  17.044  0.6431  0.3660  0.8401
 8976TIP3    H248420   3.388   5.643  16.939  0.0199 -1.3027 -1.0384
 8977TIP3   OH248421   5.157   0.346  14.255  0.2415 -0.2232 -0.7987
 8977TIP3    H148422   5.073   0.324  14.294  0.1259  0.3884 -0.7068
 8977TIP3    H248423   5.170   0.438  14.274  0.0203  0.1788 -2.4795
 8978TIP3   OH248424   0.004   1.775  15.062 -0.5917  0.2929  0.3070
 8978TIP3    H148425  -0.052   1.790  15.139  0.4719  0.2409  1.1004
 8978TIP3    H248426   0.054   1.697  15.084  0.5850  0.9705  0.0565
 8979TIP3   OH248427   4.853   0.961   2.752  0.3937  0.2621 -0.0547
 8979TIP3    H148428   4.789   1.028   2.777  0.5553 -0.1562  1.5000
 8979TIP3    H248429   4.818   0.879   2.788  0.8770 -0.2832 -0.7931
 8980TIP3   OH248430   3.674   6.494   3.112 -0.2013  0.8712 -0.0583
 8980TIP3    H148431   3.691   6.470   3.203  1.1295 -2.4567 -1.0906
 8980TIP3    H248432   3.708   6.583   3.104 -0.0336  1.0813  2.6031
 8981TIP3   OH248433   6.229   2.418   4.366  0.0199 -0.1264 -0.2663
 8981TIP3    H148434   6.290   2.345   4.378 -0.7584 -1.1209 -2.1743
 8981TIP3    H248435   6.149   2.390   4.410  0.0267 -0.0034 -0.1735
 8982TIP3   OH248436   2.140   5.785  14.938  0.0677  0.3624  0.1327
 8982TIP3    H148437   2.086   5.806  14.861  0.7117  0.3067 -0.3356
 8982TIP3    H248438   2.161   5.870  14.975  0.0481  0.4055  0.0463
 8983TIP3   OH248439   5.560   5.006   3.110  0.3705  0.4882 -0.0224
 8983TIP3    H148440   5.650   4.992   3.080  1.0262 -1.3576  2.6037
 8983TIP3    H248441   5.512   5.034   3.031  3.2320  1.5444 -1.4303
 8984TIP3   OH248442   3.810   4.426  12.429 -0.0576 -0.0110 -0.3000
 8984TIP3    H148443   3.891   4.385  12.458  0.9726 -1.2115 -4.5692
 8984TIP3    H248444   3.838   4.496  12.370 -2.0806 -1.0739 -2.6112
 8985TIP3   OH248445   3.229   0.864   4.712 -0.3767  0.9089  0.2485
 8985TIP3    H148446   3.254   0.775   4.737 -1.4809  0.9939  1.6542
 8985TIP3    H248447   3.202   0.856   4.620  0.4811 -0.0136  0.0669
 8986TIP3   OH248448   1.760   2.458   2.816  0.1731 -0.2097  0.4272
 8986TIP3    H148449   1.756   2.362   2.825  0.8606 -0.2395  0.4173
 8986TIP3    H248450   1.787   2.488   2.903  0.8290 -0.0860  0.1816
 8987TIP3   OH248451   0.650   3.886  12.289  0.2622  0.0270  1.0460
 8987TIP3    H148452   0.601   3.947  12.344 -0.1073  0.8537 -0.1897
 8987TIP3    H248453   0.696   3.941  12.226  0.9584 -0.8881  0.7500
 8988TIP3   OH248454   1.793   2.481  11.774 -0.4325  0.5845 -0.1037
 8988TIP3    H148455   1.752   2.525  11.700  1.0304  1.7249 -0.2674
 8988TIP3    H248456   1.852   2.547  11.811  0.7484 -0.7881  0.5031
 8989TIP3   OH248457   4.628   2.173   3.773 -0.1275  0.2019  0.2792
 8989TIP3    H148458   4.634   2.201   3.681  0.8170  2.5017  0.9908
 8989TIP3    H248459   4.563   2.232   3.812  0.0098 -0.2796  1.2471
 8990TIP3   OH248460   3.327   1.298  15.111 -0.3152 -0.7073  0.4124
 8990TIP3    H148461   3.279   1.342  15.041 -0.0917  0.6131  1.0771
 8990TIP3    H248462   3.260   1.280  15.178 -0.1804 -0.2222  0.6844
 8991TIP3   OH248463   3.591   5.068  14.283  0.3915 -0.2204  0.0482
 8991TIP3    H148464   3.621   5.158  14.300  0.8338 -0.1164 -1.2226
 8991TIP3    H248465   3.528   5.051  14.352 -0.6974  1.5708 -0.4521
 8992TIP3   OH248466   3.199   1.891  15.153  0.4394 -0.4116 -0.4263
 8992TIP3    H148467   3.149   1.954  15.204 -0.6967 -0.5454 -1.3452
 8992TIP3    H248468   3.291   1.910  15.173  0.0357  0.0182  1.0676
 8993TIP3   OH248469   1.735   6.242   2.657 -0.4414 -0.1942  0.3635
 8993TIP3    H148470   1.755   6.202   2.572  2.3694  0.4311  0.6511
 8993TIP3    H248471   1.755   6.174   2.721 -1.8006 -0.4020  0.5804
 8994TIP3   OH248472   1.656   4.588  11.895 -0.2763 -0.0756 -0.0518
 8994TIP3    H148473   1.725   4.635  11.846 -0.6844  0.1137 -0.4546
 8994TIP3    H248474   1.577   4.602  11.842 -0.4913 -0.8337  0.0755
 8995TIP3   OH248475   5.194   6.545  10.515 -0.1829 -0.3214 -0.1220
 8995TIP3    H148476   5.273   6.491  10.510 -0.6150 -0.9072 -0.6726
 8995TIP3    H248477   5.219   6.629  10.476 -0.5199 -1.3087 -2.5458
 8996TIP3   OH248478   2.751   0.753  14.935 -0.1232 -0.5769 -0.0487
 8996TIP3    H148479   2.841   0.725  14.923 -0.1780 -0.5234 -0.6368
 8996TIP3    H248480   2.718   0.700  15.008 -0.1475 -1.8691 -0.9742
 8997TIP3   OH248481   3.129   1.358   0.934  0.0988  0.0051  0.0305
 8997TIP3    H148482   3.129   1.439   0.884  1.6301  0.7810  1.2372
 8997TIP3    H248483   3.083   1.295   0.879 -0.3771  1.4693 -1.2730
 8998TIP3   OH248484   3.724   6.802  12.146  0.0929  0.1003  0.1822
 8998TIP3    H148485   3.775   6.721  12.139  0.1077  0.1932 -0.8638
 8998TIP3    H248486   3.642   6.783  12.101  0.9138  1.3189 -1.8530
 8999TIP3   OH248487   0.084   6.398   4.283  0.0824 -0.4623  0.5952
 8999TIP3    H148488   0.146   6.333   4.249  3.7293  2.9831  0.2449
 8999TIP3    H248489   0.011   6.396   4.222  1.7757 -1.7321 -1.4750
 9000TIP3   OH248490   3.797   1.079   5.354  0.1719  0.6654 -0.7259
 9000TIP3    H148491   3.726   1.143   5.363 -0.5652 -0.2545 -0.0167
 9000TIP3    H248492   3.753   0.994   5.352  1.1336  0.1809 -1.8980
 9001TIP3   OH248493   1.196   5.656  13.164  0.0737  0.3301  0.4454
 9001TIP3    H148494   1.131   5.664  13.093  0.8729  2.0738 -0.1206
 9001TIP3    H248495   1.143   5.647  13.243 -0.8952  2.0777  0.0403
 9002TIP3   OH248496   3.193   3.055   2.023 -0.2159 -0.0066  0.6215
 9002TIP3    H148497   3.138   3.133   2.024  1.0655  0.9283 -0.6298
 9002TIP3    H248498   3.163   3.006   1.947  1.3516  1.0219 -0.6941
 9003TIP3   OH248499   5.898   2.217   0.879  0.0756  0.4602 -0.2769
 9003TIP3    H148500   5.866   2.295   0.924  0.2574 -0.2711  1.1335
 9003TIP3    H248501   5.992   2.234   0.867 -0.0300  0.7873 -0.6671
 9004TIP3   OH248502   2.998   2.244   4.878  0.3269  0.5898  0.2172
 9004TIP3    H148503   2.989   2.250   4.783 -1.3607  1.3592  0.4155
 9004TIP3    H248504   2.919   2.284   4.912 -0.4955 -2.3445  1.9055
 9005TIP3   OH248505   1.976   3.382  16.852 -0.3459 -0.0144 -0.0148
 9005TIP3    H148506   1.883   3.403  16.846 -0.2152  0.8668  0.9041
 9005TIP3    H248507   2.009   3.439  16.922  0.4901 -1.6562  0.9693
 9006TIP3   OH248508   5.333   0.506  16.778 -0.0975 -0.5092 -0.1213
 9006TIP3    H148509   5.276   0.562  16.831 -0.8987 -1.2724 -0.1592
 9006TIP3    H248510   5.421   0.523  16.812 -0.4995 -0.3125  0.8552
 9007TIP3   OH248511   2.009   4.924   4.384 -0.6496  0.0339 -0.0672
 9007TIP3    H148512   1.937   4.910   4.323 -0.8657  0.8931 -0.0072
 9007TIP3    H248513   2.081   4.956   4.330 -0.4214 -0.4660 -0.0678
 9008TIP3   OH248514   2.321   6.805   0.199  0.4556  0.2112  0.1954
 9008TIP3    H148515   2.309   6.792   0.105 -0.4823 -0.1720  0.3542
 9008TIP3    H248516   2.389   6.742   0.224  1.5412  1.1316 -0.4233
 9009TIP3   OH248517   0.866   4.064   3.187  0.1285 -0.0765 -0.4489
 9009TIP3    H148518   0.849   4.065   3.282  0.7874 -1.7084 -0.2935
 9009TIP3    H248519   0.955   4.096   3.179  0.8237 -1.9454 -0.3267
 9010TIP3   OH248520   6.444   5.836  15.083 -0.2276 -0.1893 -0.0341
 9010TIP3    H148521   6.378   5.887  15.036 -0.2978  0.0002  0.2663
 9010TIP3    H248522   6.393   5.778  15.140 -0.1369  0.0678  0.3145
 9011TIP3   OH248523   1.294   3.627  14.723 -0.2390 -0.5306  0.1282
 9011TIP3    H148524   1.351   3.551  14.734 -0.0741 -0.3868  0.2695
 9011TIP3    H248525   1.215   3.606  14.774 -0.0237 -0.4302  0.5018
 9012TIP3   OH248526   2.019   2.791  13.298 -0.1407  0.2814 -0.3234
 9012TIP3    H148527   1.934   2.769  13.260  0.6426 -0.6472 -1.5932
 9012TIP3    H248528   2.073   2.713  13.282  1.3548  1.3815 -0.7870
 9013TIP3   OH248529   5.915   1.727   2.558 -0.1126 -0.3449 -0.3642
 9013TIP3    H148530   5.951   1.769   2.480 -0.8563  0.5135 -0.2598
 9013TIP3    H248531   5.822   1.749   2.556 -0.0162  0.2889  1.1378
 9014TIP3   OH248532   2.292   2.957  15.507 -0.4711 -0.0595 -0.4732
 9014TIP3    H148533   2.328   2.895  15.443 -0.7454 -1.2621  0.5229
 9014TIP3    H248534   2.233   2.905  15.561 -1.0078  1.1594  0.1416
 9015TIP3   OH248535   1.369   0.908  16.440 -0.1929 -0.6369 -0.0927
 9015TIP3    H148536   1.327   0.824  16.456 -1.2579 -0.0387  0.2442
 9015TIP3    H248537   1.382   0.946  16.527  0.6119 -0.6001 -0.2222
 9016TIP3   OH248538   1.475   1.959   6.133  0.4264 -0.4500 -0.1573
 9016TIP3    H148539   1.538   2.030   6.133  1.3936 -1.2776  1.4066
 9016TIP3    H248540   1.428   1.969   6.216 -0.8686 -0.4056 -0.8728
 9017TIP3   OH248541   3.919   2.244   4.941  0.0084 -0.4947  0.0196
 9017TIP3    H148542   3.996   2.262   4.995 -0.1377 -2.0445  0.7508
 9017TIP3    H248543   3.844   2.261   4.998 -0.1738 -0.3127 -0.2713
 9018TIP3   OH248544   6.748   4.715  13.533 -0.2933  0.6219 -0.8066
 9018TIP3    H148545   6.729   4.767  13.611 -1.1704  0.5439 -0.9636
 9018TIP3    H248546   6.684   4.746  13.468 -0.5579 -0.3765 -1.0219
 9019TIP3   OH248547   3.673   6.580  15.600 -0.2068 -0.6381  0.1923
 9019TIP3    H148548   3.745   6.517  15.607 -0.3628 -0.8649 -0.1813
 9019TIP3    H248549   3.613   6.539  15.537 -0.0380  0.1405 -0.4766
 9020TIP3   OH248550   1.114   4.066  15.398 -0.5028 -0.1626 -0.3763
 9020TIP3    H148551   1.171   4.104  15.465  0.0947  0.8239 -1.4360
 9020TIP3    H248552   1.134   3.972  15.400 -1.2703 -0.3209  1.5669
 9021TIP3   OH248553   4.100   6.258  17.252 -0.7819 -0.5060 -0.4842
 9021TIP3    H148554   4.096   6.272  17.346 -0.1931  0.1598 -0.5539
 9021TIP3    H248555   4.131   6.168  17.242 -1.9783 -0.9749 -0.0474
 9022TIP3   OH248556   0.999   5.708  16.786  0.3420  0.0204  0.5205
 9022TIP3    H148557   0.975   5.712  16.878  0.1969  0.0778  0.4784
 9022TIP3    H248558   0.939   5.644  16.748  1.2923 -1.0435  0.7495
 9023TIP3   OH248559   1.449   0.769  14.165 -0.1521 -0.1059 -0.2445
 9023TIP3    H148560   1.354   0.777  14.170 -0.0051  1.7163 -0.0188
 9023TIP3    H248561   1.465   0.676  14.148 -1.9512 -0.4917  0.1157
 9024TIP3   OH248562   2.108   0.578  13.896 -0.2460 -0.1819  0.1708
 9024TIP3    H148563   2.072   0.528  13.823  0.7022 -1.6822  0.7180
 9024TIP3    H248564   2.114   0.515  13.968  0.0055  0.9694  1.1796
 9025TIP3   OH248565   1.639   2.588  14.742 -0.4611  0.4979 -0.1850
 9025TIP3    H148566   1.649   2.683  14.733 -0.1133  0.6123  1.1610
 9025TIP3    H248567   1.729   2.555  14.745 -0.5819  0.1281 -0.6082
 9026TIP3   OH248568   3.195   6.419  13.561  0.0897  0.2748  0.2411
 9026TIP3    H148569   3.164   6.369  13.486 -2.7637 -0.1817  1.6355
 9026TIP3    H248570   3.129   6.486  13.574  0.8520  0.7306  1.9595
 9027TIP3   OH248571   4.641   4.792   1.847 -0.2419  0.5895  0.1437
 9027TIP3    H148572   4.568   4.744   1.807  0.5001 -1.1720  0.8246
 9027TIP3    H248573   4.631   4.777   1.941  0.6777  0.7884  0.2773
 9028TIP3   OH248574   3.590   2.773  16.324 -0.5553 -0.5086 -0.6336
 9028TIP3    H148575   3.578   2.797  16.416  2.8641  0.0117 -0.2726
 9028TIP3    H248576   3.576   2.855  16.276 -0.0125 -0.2517 -0.3561
 9029TIP3   OH248577   5.159   6.766   1.299 -0.0196 -0.1716  0.1096
 9029TIP3    H148578   5.247   6.774   1.336  0.4621  0.2211 -1.0922
 9029TIP3    H248579   5.163   6.687   1.245 -0.8967 -1.0985  1.3607
 9030TIP3   OH248580   5.386   4.932  13.046 -0.6363  0.7174 -0.3498
 9030TIP3    H148581   5.369   4.999  12.980  1.0869  0.3030 -1.2339
 9030TIP3    H248582   5.463   4.964  13.093 -0.3316 -0.2174 -0.2007
 9031TIP3   OH248583   3.016   0.168   4.049  0.1669 -0.2637 -0.0768
 9031TIP3    H148584   2.928   0.161   4.013 -0.0005  2.0233 -0.2325
 9031TIP3    H248585   3.003   0.194   4.140  0.6469  0.8597 -0.3074
 9032TIP3   OH248586   1.749   4.580   3.504 -0.2890 -0.3321  0.2039
 9032TIP3    H148587   1.815   4.538   3.559 -0.2493 -0.6420 -0.0822
 9032TIP3    H248588   1.795   4.655   3.465 -0.0329 -0.6997 -0.2009
 9033TIP3   OH248589   2.009   3.109  16.248 -0.0853  0.2964  0.6448
 9033TIP3    H148590   2.061   3.036  16.282  0.0210  0.4529  0.8172
 9033TIP3    H248591   2.073   3.177  16.229 -0.1941  0.3775  0.5658
 9034TIP3   OH248592   3.939   2.084  11.907  0.8046  1.0803  0.0159
 9034TIP3    H148593   3.980   2.033  11.977  0.2178 -0.3031 -0.6131
 9034TIP3    H248594   3.866   2.129  11.948  1.7902  2.0132  0.7447
 9035TIP3   OH248595   3.120   2.993  16.572 -0.3328 -0.7016  0.0701
 9035TIP3    H148596   3.109   2.928  16.641 -0.1153 -1.0097 -0.1861
 9035TIP3    H248597   3.044   3.051  16.582  1.4180  1.2484  2.7004
 9036TIP3   OH248598   6.413   2.982   1.133 -0.0592  0.1630 -0.6123
 9036TIP3    H148599   6.339   2.950   1.081  2.0661 -2.0970 -2.3861
 9036TIP3    H248600   6.440   2.907   1.186  0.7537  1.0505  0.2570
 9037TIP3   OH248601   0.346   4.933  11.165 -0.5493  0.0850  0.3079
 9037TIP3    H148602   0.302   5.017  11.178  1.2092  1.1234 -0.3235
 9037TIP3    H248603   0.339   4.889  11.250 -0.4767  1.3462  0.9778
 9038TIP3   OH248604   0.405   2.939  15.845  0.8302 -0.1404 -0.1852
 9038TIP3    H148605   0.494   2.904  15.845  1.4061  1.3079 -0.9352
 9038TIP3    H248606   0.392   2.974  15.757  0.7363  2.6396  0.8907
 9039TIP3   OH248607   3.690   4.962  16.507 -0.4326 -0.2530  0.2386
 9039TIP3    H148608   3.601   4.928  16.516 -0.8036  0.0711 -1.8245
 9039TIP3    H248609   3.716   4.938  16.418  0.5023  2.0459 -0.1458
 9040TIP3   OH248610   1.425   0.210   4.699 -0.4696  0.0045 -0.5417
 9040TIP3    H148611   1.461   0.142   4.642  1.1144  0.4879 -0.1279
 9040TIP3    H248612   1.407   0.165   4.782 -1.4655 -0.3855 -0.9638
 9041TIP3   OH248613   4.051   5.356  12.749  0.1291 -0.0522 -0.0453
 9041TIP3    H148614   4.117   5.412  12.709 -0.1441  0.3999  0.1352
 9041TIP3    H248615   4.101   5.293  12.801  0.3200  2.9934  3.6614
 9042TIP3   OH248616   1.441   4.879  11.334  0.6453 -0.2577  0.1685
 9042TIP3    H148617   1.509   4.943  11.312 -0.1861  0.9036  0.9297
 9042TIP3    H248618   1.398   4.860  11.250 -0.1755  1.4346  0.2011
 9043TIP3   OH248619   1.765   2.713  13.589 -0.0322 -0.7373  0.5255
 9043TIP3    H148620   1.754   2.681  13.678  0.1982  0.8433  1.1362
 9043TIP3    H248621   1.829   2.784  13.596 -0.2550 -0.3763 -0.8396
 9044TIP3   OH248622   4.237   4.898   2.727  0.3560 -0.5894  0.4844
 9044TIP3    H148623   4.150   4.906   2.767  0.1951 -0.6456  0.1491
 9044TIP3    H248624   4.248   4.980   2.679 -0.5955 -1.6300 -1.5883
 9045TIP3   OH248625   1.067   5.044  14.670  0.4401  0.0999 -0.2641
 9045TIP3    H148626   1.153   5.018  14.703  0.8189 -0.7841 -1.8925
 9045TIP3    H248627   1.006   4.985  14.715  0.8277 -0.2901 -0.2489
 9046TIP3   OH248628   1.515   4.754  13.497 -0.5680  0.2598 -0.3311
 9046TIP3    H148629   1.528   4.828  13.437 -1.1799  0.4168 -0.2745
 9046TIP3    H248630   1.603   4.722  13.515 -0.4355 -0.3358 -1.9963
 9047TIP3   OH248631   0.892   1.173  16.053  0.4848 -0.5207  0.1848
 9047TIP3    H148632   0.949   1.118  16.000  0.7010  1.9617 -2.2966
 9047TIP3    H248633   0.896   1.259  16.010 -0.3623  1.2537  3.4912
 9048TIP3   OH248634   2.582   0.291  14.379  0.0937 -0.0107  0.0035
 9048TIP3    H148635   2.544   0.312  14.464  0.0520  0.8181 -0.2209
 9048TIP3    H248636   2.601   0.197  14.384 -1.0340 -0.2168  0.4849
 9049TIP3   OH248637   6.064   6.577   1.123 -0.1636 -0.1613 -0.2564
 9049TIP3    H148638   5.986   6.607   1.077  1.0039  1.2241 -1.3950
 9049TIP3    H248639   6.072   6.485   1.098 -2.0353 -0.6299  0.7763
 9050TIP3   OH248640   2.040   0.107   1.975 -0.4968  0.0456  0.4172
 9050TIP3    H148641   1.994   0.069   1.900  0.3638  1.3406 -0.7783
 9050TIP3    H248642   2.078   0.032   2.020 -1.6154 -0.8045 -0.0217
 9051TIP3   OH248643   2.388   6.129   0.441  0.1108  0.5643  1.1558
 9051TIP3    H148644   2.382   6.219   0.473 -1.2135  0.8577  0.1198
 9051TIP3    H248645   2.366   6.135   0.348 -1.8128 -1.0641  1.4642
 9052TIP3   OH248646   4.626   5.554  15.859  0.3207  0.0598 -0.2431
 9052TIP3    H148647   4.574   5.475  15.843  0.4800  0.0456 -0.7213
 9052TIP3    H248648   4.620   5.603  15.776  0.8439  0.1834 -0.2086
 9053TIP3   OH248649   3.810   2.101   2.739  0.1410  0.1902  0.3025
 9053TIP3    H148650   3.805   2.120   2.646 -2.2748  3.4951  1.0146
 9053TIP3    H248651   3.734   2.046   2.757 -0.5267  1.2162  0.6556
 9054TIP3   OH248652   4.460   5.032  17.140  0.2713  0.2588 -0.2732
 9054TIP3    H148653   4.421   4.945  17.153 -0.4816  0.3185 -2.0711
 9054TIP3    H248654   4.542   5.015  17.095  0.5653  0.4145  0.2032
 9055TIP3   OH248655   5.731   5.459   5.834 -0.0949 -0.1006 -0.1423
 9055TIP3    H148656   5.752   5.449   5.927  0.1660 -1.0461 -0.3037
 9055TIP3    H248657   5.804   5.417   5.788  0.4652  1.5381 -0.8058
 9056TIP3   OH248658   5.085   2.462   6.083  0.2485 -0.5066  0.3781
 9056TIP3    H148659   5.014   2.403   6.108  0.0944 -0.7053 -0.4948
 9056TIP3    H248660   5.121   2.424   6.003  0.2449  0.4995 -0.1180
 9057TIP3   OH248661   0.920   1.307   5.223 -0.0478 -0.6213  0.2644
 9057TIP3    H148662   0.838   1.307   5.174 -0.0104  1.4464  0.1466
 9057TIP3    H248663   0.988   1.292   5.158 -0.2083 -0.8115  0.1396
 9058TIP3   OH248664   0.956   1.809  14.338 -0.0723 -0.2744  0.0362
 9058TIP3    H148665   0.955   1.791  14.431  1.0597 -3.1455 -0.4681
 9058TIP3    H248666   0.863   1.812  14.313 -0.3740  0.4149  1.2014
 9059TIP3   OH248667   4.722   6.469  15.125  0.0776 -0.1504  0.1494
 9059TIP3    H148668   4.662   6.394  15.133  0.4449 -0.4947 -0.2684
 9059TIP3    H248669   4.702   6.507  15.040 -1.1443  1.1444  1.0095
 9060TIP3   OH248670   4.458   3.063  11.557  0.2125 -0.0187  0.3512
 9060TIP3    H148671   4.523   3.009  11.511 -0.8003  0.1659 -1.3178
 9060TIP3    H248672   4.446   3.018  11.640  3.7013  0.8350  1.4182
 9061TIP3   OH248673   3.346   0.214   4.276 -0.0352  0.4658  0.3104
 9061TIP3    H148674   3.334   0.121   4.259 -0.1530  0.2229  1.6425
 9061TIP3    H248675   3.437   0.222   4.304  0.1591  0.8513 -0.4129
 9062TIP3   OH248676   0.489   3.739  16.358  0.8658  0.2978  0.4592
 9062TIP3    H148677   0.465   3.667  16.299  0.2164  1.0809 -0.2327
 9062TIP3    H248678   0.443   3.719  16.440  0.2409  0.2193  0.0890
 9063TIP3   OH248679   5.669   2.489   1.432 -0.1571  0.1036 -0.0058
 9063TIP3    H148680   5.610   2.514   1.503 -0.1576  0.2088 -0.0434
 9063TIP3    H248681   5.633   2.407   1.399 -1.9387  1.5857 -1.8770
 9064TIP3   OH248682   3.826   4.589  11.226 -0.0834 -0.0267  0.3232
 9064TIP3    H148683   3.798   4.520  11.166  2.2051  0.0637 -0.9330
 9064TIP3    H248684   3.781   4.570  11.308 -1.9527 -1.1484 -0.9272
 9065TIP3   OH248685   1.545   1.903  14.319  0.0852  0.9436  0.4577
 9065TIP3    H148686   1.538   1.984  14.268  1.5584 -0.2640 -1.7725
 9065TIP3    H248687   1.511   1.835  14.260  0.6295 -0.3160  1.5708
 9066TIP3   OH248688   0.193   5.861  14.016 -0.3855 -0.6295  0.7840
 9066TIP3    H148689   0.143   5.941  13.999 -0.7650 -1.1148 -0.4478
 9066TIP3    H248690   0.180   5.844  14.110 -1.7135 -0.1930  0.6971
 9067TIP3   OH248691   2.503   0.766   1.854  0.1997 -0.2918  0.1211
 9067TIP3    H148692   2.508   0.861   1.843 -0.3931 -0.3450 -0.5753
 9067TIP3    H248693   2.595   0.737   1.852  0.3241  0.1552 -0.5809
 9068TIP3   OH248694   4.742   5.507  11.977 -0.0181  0.3308 -0.3230
 9068TIP3    H148695   4.827   5.475  12.007 -1.5887 -1.1240  2.8504
 9068TIP3    H248696   4.751   5.602  11.976  3.1507  0.1120 -5.0045
 9069TIP3   OH248697   2.549   1.351  13.893 -0.7844  0.0062 -0.6577
 9069TIP3    H148698   2.589   1.298  13.824 -1.0995 -0.5145 -0.4440
 9069TIP3    H248699   2.608   1.341  13.968  0.0519  1.3125 -1.1215
 9070TIP3   OH248700   1.348   0.949   2.205 -0.3184  0.3401  0.5334
 9070TIP3    H148701   1.366   0.991   2.121  1.7351  1.8030  1.6553
 9070TIP3    H248702   1.411   0.878   2.211 -0.9033 -0.1849  0.5547
 9071TIP3   OH248703   6.352   2.758   3.601  0.2916 -0.5062  0.3879
 9071TIP3    H148704   6.391   2.674   3.625 -0.8954 -1.1765  0.0628
 9071TIP3    H248705   6.403   2.788   3.526  0.5877 -1.0559  0.3652
 9072TIP3   OH248706   1.151   2.304  12.569 -0.1687 -0.4599  0.0367
 9072TIP3    H148707   1.089   2.376  12.582 -1.0576 -1.2347  0.1383
 9072TIP3    H248708   1.119   2.259  12.491  1.0622 -0.0536 -0.7177
 9073TIP3   OH248709   5.664   0.602   2.701  0.1759 -0.6889  0.4268
 9073TIP3    H148710   5.659   0.676   2.640  1.7333 -2.2616 -1.6744
 9073TIP3    H248711   5.583   0.554   2.687 -1.0719  0.8367  2.1552
 9074TIP3   OH248712   3.854   0.006   4.763  0.0824  0.1697 -0.5081
 9074TIP3    H148713   3.899   0.025   4.845 -0.9082  0.8155 -0.0966
 9074TIP3    H248714   3.863   0.087   4.712 -1.3504  0.6150 -0.0686
 9075TIP3   OH248715   2.832   5.363  12.795 -0.1510 -0.0035 -0.0429
 9075TIP3    H148716   2.868   5.289  12.844 -1.5425  0.5121  1.8429
 9075TIP3    H248717   2.739   5.361  12.815 -0.5681  0.9071 -1.8219
 9076TIP3   OH248718   1.036   6.224  14.242 -0.3715 -0.0868  0.5169
 9076TIP3    H148719   1.058   6.131  14.244  1.6984  0.3775  0.0900
 9076TIP3    H248720   1.039   6.248  14.150 -0.2302  0.5687  0.6897
 9077TIP3   OH248721   4.223   4.990   3.857 -0.7185 -0.0052 -0.2609
 9077TIP3    H148722   4.253   5.032   3.777  0.8085  1.8355  1.2537
 9077TIP3    H248723   4.165   5.054   3.898 -2.1939 -1.2764 -0.3020
 9078TIP3   OH248724   4.625   5.892  14.753  0.8943 -0.4208 -0.4162
 9078TIP3    H148725   4.548   5.842  14.724  0.3054 -0.7520  1.6332
 9078TIP3    H248726   4.684   5.892  14.678  0.5086 -3.4689 -0.7778
 9079TIP3   OH248727   5.925   5.020  14.182 -0.4400  0.2065 -0.4906
 9079TIP3    H148728   6.020   5.018  14.172 -0.3929  0.4682 -0.1009
 9079TIP3    H248729   5.907   5.102  14.229 -0.9889  0.9292 -1.9162
 9080TIP3   OH248730   3.261   0.343  10.691  0.4691  0.0887  0.1349
 9080TIP3    H148731   3.334   0.305  10.641  0.7805  0.1462  0.5502
 9080TIP3    H248732   3.269   0.305  10.778 -1.3825 -1.7580 -0.4429
 9081TIP3   OH248733   5.493   1.034   2.269  0.5144  0.2119  0.0327
 9081TIP3    H148734   5.439   1.043   2.347 -2.2017  0.0484 -1.7388
 9081TIP3    H248735   5.460   1.100   2.209 -0.0155 -2.1105 -2.3319
 9082TIP3   OH248736   2.265   3.011   4.177 -0.2261  0.2615 -0.3455
 9082TIP3    H148737   2.215   2.979   4.102 -1.4047  0.0003  0.5390
 9082TIP3    H248738   2.223   2.971   4.253  0.5830  0.9914  0.5045
 9083TIP3   OH248739   4.193   5.666   4.942 -0.0816  0.0974 -0.4693
 9083TIP3    H148740   4.107   5.692   4.908  0.3020 -0.1388 -1.6386
 9083TIP3    H248741   4.241   5.748   4.951 -0.9628  0.3988  1.7153
 9084TIP3   OH248742   0.609   3.297   0.667 -0.1485 -0.5134  0.2445
 9084TIP3    H148743   0.652   3.311   0.583 -1.7097 -1.0599 -0.6746
 9084TIP3    H248744   0.612   3.382   0.710  0.6336 -0.2184 -0.3831
 9085TIP3   OH248745   0.629   1.762  16.650 -0.3247  0.4936 -0.5011
 9085TIP3    H148746   0.588   1.682  16.682 -1.1625  0.8325 -0.7239
 9085TIP3    H248747   0.565   1.800  16.590  0.2248  1.1351 -0.6914
 9086TIP3   OH248748   6.706   3.239  12.905 -0.2029  0.2728  0.5424
 9086TIP3    H148749   6.680   3.267  12.818 -1.8802 -0.7604  0.7015
 9086TIP3    H248750   6.802   3.239  12.902 -0.2311 -0.3438 -1.4983
 9087TIP3   OH248751   0.679   2.605  11.751 -0.1537 -0.9696  0.4404
 9087TIP3    H148752   0.679   2.562  11.836  1.0125 -0.6968  0.5940
 9087TIP3    H248753   0.689   2.698  11.772 -0.6676 -0.8214  0.0375
 9088TIP3   OH248754   3.474   3.085  16.367  0.1488  0.1794  0.1498
 9088TIP3    H148755   3.473   3.125  16.455  1.0257 -0.5592  0.4999
 9088TIP3    H248756   3.449   2.994  16.382 -0.5941  0.2692 -0.4999
 9089TIP3   OH248757   1.780   6.090   2.440 -0.5154 -0.0884 -0.0058
 9089TIP3    H148758   1.701   6.084   2.386  0.0529 -1.0102 -0.7597
 9089TIP3    H248759   1.786   6.005   2.483  0.1851 -0.1054 -0.1318
 9090TIP3   OH248760   5.655   0.465   1.081 -0.0368 -0.0802  0.0804
 9090TIP3    H148761   5.668   0.427   0.994 -2.3334 -1.8608  0.4929
 9090TIP3    H248762   5.734   0.440   1.129  0.5079 -0.4741 -0.9862
 9091TIP3   OH248763   2.979   0.259   0.808  0.3518  0.2338 -0.2206
 9091TIP3    H148764   3.019   0.308   0.880 -0.3595 -2.1794  1.8636
 9091TIP3    H248765   2.887   0.287   0.808  0.3626  0.2706 -0.2525
 9092TIP3   OH248766   5.758   4.247  12.020  0.0529  0.0629  0.5546
 9092TIP3    H148767   5.747   4.325  12.074  2.6348  0.1119  1.0834
 9092TIP3    H248768   5.739   4.276  11.931 -0.3946  0.9398  0.9355
 9093TIP3   OH248769   5.235   3.975   1.559 -0.4187  0.1542  0.4685
 9093TIP3    H148770   5.330   3.989   1.556 -0.0873 -1.3790  2.9192
 9093TIP3    H248771   5.217   3.917   1.486  0.4671  0.8145 -0.2854
 9094TIP3   OH248772   1.891   3.358  13.145  0.0411 -0.0577 -0.3617
 9094TIP3    H148773   1.907   3.364  13.051  0.6379 -0.6873 -0.3052
 9094TIP3    H248774   1.908   3.446  13.178  1.3658 -0.2102 -0.6115
 9095TIP3   OH248775   2.369   4.099  15.784  0.6224  0.6885  0.3322
 9095TIP3    H148776   2.309   4.066  15.852 -1.6921  1.4737 -1.2877
 9095TIP3    H248777   2.319   4.093  15.703  2.7326  1.4728 -1.0631
 9096TIP3   OH248778   4.763   0.618  12.777 -0.3905  0.4891 -0.6174
 9096TIP3    H148779   4.807   0.552  12.831 -1.9548 -1.9039 -2.1847
 9096TIP3    H248780   4.686   0.643  12.828  1.3683  2.8811  1.0135
 9097TIP3   OH248781   5.749   6.715  15.206 -0.6229 -0.0826  0.6926
 9097TIP3    H148782   5.836   6.679  15.190 -0.6645  0.6338 -1.2589
 9097TIP3    H248783   5.730   6.692  15.297  0.7724 -1.9733  0.5327
 9098TIP3   OH248784   2.196   4.916  12.629  0.0120 -0.2517  0.2413
 9098TIP3    H148785   2.102   4.928  12.641  0.1641 -0.4477  1.7487
 9098TIP3    H248786   2.236   4.988  12.677  0.6144  0.6182 -1.5298
 9099TIP3   OH248787   0.817   0.204  12.751 -0.3977 -0.1230  0.7315
 9099TIP3    H148788   0.912   0.210  12.744 -0.2434 -1.7220  1.1497
 9099TIP3    H248789   0.797   0.242  12.837 -0.4173  2.4877 -0.3773
 9100TIP3   OH248790   3.148   0.068   5.687 -0.3191  0.8431 -0.5313
 9100TIP3    H148791   3.239   0.041   5.672  0.0448  2.5790 -1.4954
 9100TIP3    H248792   3.154   0.135   5.755 -1.1585 -0.9306  1.3515
 9101TIP3   OH248793   1.344   0.178  12.239  0.1716 -0.5331  0.2318
 9101TIP3    H148794   1.340   0.267  12.203 -2.1990 -0.5177  0.4390
 9101TIP3    H248795   1.253   0.156  12.257  0.6257 -3.4153 -0.7706
 9102TIP3   OH248796   4.328   0.220   5.810  0.1627  0.1716  0.2963
 9102TIP3    H148797   4.370   0.136   5.828 -0.9735 -0.2953  0.8684
 9102TIP3    H248798   4.328   0.266   5.894 -0.1222  0.3147  0.2208
 9103TIP3   OH248799   5.444   6.480  11.676  0.1974 -0.7401 -0.3971
 9103TIP3    H148800   5.525   6.484  11.625  1.0143  0.7644  0.9788
 9103TIP3    H248801   5.403   6.565  11.662  2.0494  0.9979  3.9891
 9104TIP3   OH248802   5.552   0.881  12.037  0.3781  0.0757  0.2600
 9104TIP3    H148803   5.607   0.850  11.965 -0.6732 -1.5554  0.1360
 9104TIP3    H248804   5.511   0.960  12.003 -0.4111 -0.8879 -1.1146
 9105TIP3   OH248805   6.159   2.443  16.139  0.0131  0.5568 -0.5868
 9105TIP3    H148806   6.086   2.414  16.084 -0.6637 -0.7754  0.9805
 9105TIP3    H248807   6.131   2.529  16.173 -0.7560  0.1296 -0.1322
 9106TIP3   OH248808   5.660   5.410   2.174 -0.0094  0.0393  0.5403
 9106TIP3    H148809   5.575   5.369   2.161  0.1829 -0.4929  0.9433
 9106TIP3    H248810   5.696   5.367   2.251 -0.1373  1.5102  1.4607
 9107TIP3   OH248811   5.942   3.681  16.107  0.0034  0.6896 -0.5830
 9107TIP3    H148812   5.890   3.762  16.101  1.1589  1.4188 -0.8353
 9107TIP3    H248813   5.928   3.650  16.196 -1.5319  0.4365 -0.9004
 9108TIP3   OH248814   6.050   4.552   4.239  0.7531 -0.6174  0.5871
 9108TIP3    H148815   6.034   4.568   4.332  2.1356 -1.4275  0.9885
 9108TIP3    H248816   6.144   4.536   4.234  0.5927 -1.1649 -0.8723
 9109TIP3   OH248817   5.520   2.842  16.952 -0.3545  0.2768 -0.0408
 9109TIP3    H148818   5.597   2.879  16.908  0.6482  1.7289  2.8003
 9109TIP3    H248819   5.485   2.914  17.003 -0.9666 -1.5671  2.2106
 9110TIP3   OH248820   0.891   0.759  15.126  0.5657 -0.3524  0.3966
 9110TIP3    H148821   0.814   0.804  15.162  1.0219  1.6645 -1.0771
 9110TIP3    H248822   0.964   0.790  15.181  0.7357 -0.0564  0.0042
 9111TIP3   OH248823   0.352   5.962   3.130 -0.1608  0.3505  0.1272
 9111TIP3    H148824   0.419   5.895   3.142 -1.0035 -0.1439  2.4686
 9111TIP3    H248825   0.281   5.917   3.086  0.4303  0.4741 -0.9623
 9112TIP3   OH248826   2.143   3.851   6.302  0.2087  0.4444  0.8291
 9112TIP3    H148827   2.080   3.790   6.263 -1.1188  1.3957  1.4610
 9112TIP3    H248828   2.173   3.904   6.228  1.4552 -1.0418  0.2590
 9113TIP3   OH248829   5.541   6.239   5.663  0.2259 -0.0037 -0.3876
 9113TIP3    H148830   5.493   6.216   5.742 -1.4280 -1.3778 -1.7337
 9113TIP3    H248831   5.621   6.187   5.667 -0.9034 -1.8035 -0.6851
 9114TIP3   OH248832   5.734   3.839  10.897 -0.0742  0.7275  0.1690
 9114TIP3    H148833   5.824   3.806  10.902  0.1043  1.2663  0.4620
 9114TIP3    H248834   5.737   3.907  10.831  0.0488  1.7793  1.2482
 9115TIP3   OH248835   1.931   1.132   4.564  0.0324 -0.2272 -0.0975
 9115TIP3    H148836   2.024   1.113   4.556  0.2479  0.0089  1.6999
 9115TIP3    H248837   1.889   1.069   4.505  1.3272 -0.2220 -1.0396
 9116TIP3   OH248838   3.460   6.135   5.728  0.0243  0.1040  0.4554
 9116TIP3    H148839   3.379   6.103   5.688  1.1413 -0.2785 -1.5053
 9116TIP3    H248840   3.506   6.057   5.757  0.8033  0.1846 -0.5660
 9117TIP3   OH248841   5.418   1.083   3.808 -0.3457 -0.3041 -0.8184
 9117TIP3    H148842   5.340   1.111   3.855 -0.1835 -0.5756 -0.3835
 9117TIP3    H248843   5.441   1.157   3.752 -0.4478  0.0800 -0.3493
 9118TIP3   OH248844   0.472   0.518   4.194  0.3691  0.0824 -0.4901
 9118TIP3    H148845   0.437   0.603   4.167 -0.6865 -0.4542 -0.8439
 9118TIP3    H248846   0.425   0.454   4.139  0.1671 -0.8225  0.7198
 9119TIP3   OH248847   1.966   0.225   0.552  0.4940 -0.3513 -0.4599
 9119TIP3    H148848   1.999   0.136   0.558  2.5561  0.4850  0.9544
 9119TIP3    H248849   1.929   0.244   0.638  1.4822  0.6911 -0.2511
 9120TIP3   OH248850   4.989   4.127   4.729  0.7531  0.4062  0.7814
 9120TIP3    H148851   5.056   4.106   4.794  1.7906  0.7775 -0.1499
 9120TIP3    H248852   5.037   4.134   4.646 -0.7577 -1.5140 -0.2897
 9121TIP3   OH248853   4.823   2.520  11.691 -0.0543 -0.5532 -0.9141
 9121TIP3    H148854   4.776   2.505  11.609  2.1213 -2.1715 -1.8868
 9121TIP3    H248855   4.912   2.541  11.665  0.6374 -0.9236  1.0460
 9122TIP3   OH248856   0.998   3.376   5.289 -0.2787 -0.0142  0.1105
 9122TIP3    H148857   1.047   3.409   5.364  0.8401  1.9845 -1.4316
 9122TIP3    H248858   1.056   3.312   5.248 -0.0132  0.4472 -0.2396
 9123TIP3   OH248859   1.490   2.323   2.208 -0.1735  0.3223  0.0347
 9123TIP3    H148860   1.449   2.386   2.267 -1.1940 -2.3052  2.2559
 9123TIP3    H248861   1.570   2.297   2.252 -0.6024 -1.1774 -0.0462
 9124TIP3   OH248862   5.343   3.374  11.877  0.1289  0.6104  0.1615
 9124TIP3    H148863   5.249   3.384  11.868  0.0517 -0.7588 -0.7595
 9124TIP3    H248864   5.362   3.402  11.966 -0.9873  1.9263  0.0053
 9125TIP3   OH248865   6.077   1.070  15.792 -0.1085  0.5750 -0.2990
 9125TIP3    H148866   6.120   1.063  15.877  0.1315  2.3593 -0.2386
 9125TIP3    H248867   6.149   1.073  15.729 -0.2160  1.0323 -0.4049
 9126TIP3   OH248868   5.310   2.193  10.873 -0.3766  0.1652  0.3248
 9126TIP3    H148869   5.252   2.254  10.917  1.1427  1.3835  0.6998
 9126TIP3    H248870   5.398   2.227  10.889  0.6013 -2.6016  1.3117
 9127TIP3   OH248871   1.211   2.605  13.819 -0.4047 -0.4471  0.4629
 9127TIP3    H148872   1.237   2.588  13.728  0.1320 -3.1425  1.0521
 9127TIP3    H248873   1.184   2.519  13.852  2.3803 -0.1659  3.7739
 9128TIP3   OH248874   2.029   1.842  14.570  0.4088 -0.2866 -0.2021
 9128TIP3    H148875   2.051   1.868  14.481 -0.7787 -0.2968 -0.5115
 9128TIP3    H248876   2.008   1.924  14.615  0.1673 -0.3616 -0.1768
 9129TIP3   OH248877   3.696   6.183   2.094  0.0528  0.2502 -0.0453
 9129TIP3    H148878   3.711   6.188   2.188 -0.4631  1.6751 -0.0254
 9129TIP3    H248879   3.631   6.113   2.084  0.3434 -0.1153  0.6261
 9130TIP3   OH248880   1.880   1.854   5.443 -0.2858  0.4355 -0.8088
 9130TIP3    H148881   1.859   1.848   5.536  0.6361  1.2386 -0.5332
 9130TIP3    H248882   1.904   1.764   5.418 -1.0080  0.1253 -0.3939
 9131TIP3   OH248883   5.991   5.702  11.233  0.4117  0.2205 -0.2331
 9131TIP3    H148884   6.010   5.661  11.149 -1.6143 -0.8015 -0.1999
 9131TIP3    H248885   5.985   5.796  11.213 -1.5467 -0.1617 -1.5119
 9132TIP3   OH248886   4.795   3.416  12.054  0.1493 -0.1439  0.0850
 9132TIP3    H148887   4.758   3.328  12.062 -0.8924  0.3754  1.0625
 9132TIP3    H248888   4.719   3.474  12.046  0.8420  0.6147 -1.1530
 9133TIP3   OH248889   3.967   0.930  17.252 -0.7015 -0.3242  0.0391
 9133TIP3    H148890   3.884   0.976  17.264  0.4572  2.4062 -1.8858
 9133TIP3    H248891   4.030   0.979  17.305  0.1275 -1.0454 -0.2569
 9134TIP3   OH248892   4.073   6.410  16.653 -0.5010 -0.7594 -0.5924
 9134TIP3    H148893   4.012   6.450  16.592 -1.3837  2.3515  2.1918
 9134TIP3    H248894   4.025   6.335  16.688 -1.6535 -0.0027 -0.5184
 9135TIP3   OH248895   3.833   0.254   1.048 -0.6239 -0.4190 -0.0628
 9135TIP3    H148896   3.905   0.307   1.014  0.9052 -1.3534  1.6373
 9135TIP3    H248897   3.813   0.192   0.977 -0.8613  0.8934 -1.1574
 9136TIP3   OH248898   4.440   3.426  15.886  0.6328  0.2653 -0.0195
 9136TIP3    H148899   4.510   3.491  15.892  0.4936  0.3401  0.8265
 9136TIP3    H248900   4.362   3.477  15.862  0.5046  0.4240  0.7357
 9137TIP3   OH248901   5.022   6.681  15.355 -0.7121 -0.2063  0.4171
 9137TIP3    H148902   5.068   6.746  15.302 -1.0525  0.2187  0.6459
 9137TIP3    H248903   4.929   6.701  15.343 -0.7829  0.1253  1.4624
 9138TIP3   OH248904   6.657   5.616   2.065  0.2205 -0.1350 -0.5976
 9138TIP3    H148905   6.607   5.697   2.052  1.4687  0.8804  0.8211
 9138TIP3    H248906   6.745   5.638   2.035  1.2785 -0.0652  2.4673
 9139TIP3   OH248907   2.678   5.361   4.551  0.0306 -0.1299 -0.3000
 9139TIP3    H148908   2.617   5.416   4.600 -0.1874 -0.5523 -0.0964
 9139TIP3    H248909   2.698   5.288   4.611  3.2175  1.6537  0.9177
 9140TIP3   OH248910   4.028   5.225  11.375 -0.3477 -0.4735  0.4156
 9140TIP3    H148911   3.988   5.173  11.305  2.3945 -2.4504  0.2271
 9140TIP3    H248912   4.094   5.278  11.330 -0.6421  0.5042  1.1247
 9141TIP3   OH248913   6.819   0.077  16.365 -0.0436 -0.3317 -0.0592
 9141TIP3    H148914   6.837   0.157  16.316 -0.0725  0.7354  1.6506
 9141TIP3    H248915   6.723   0.070  16.365 -0.0646 -0.0429  0.3045
 9142TIP3   OH248916   6.041   2.043  10.970  0.2402  0.5106  0.2666
 9142TIP3    H148917   5.964   2.099  10.958  0.0031 -0.1885 -1.8260
 9142TIP3    H248918   6.055   2.041  11.064 -3.5173 -0.8879  0.9068
 9143TIP3   OH248919   4.105   1.022   0.185  0.2917 -0.2307 -0.3035
 9143TIP3    H148920   4.163   0.947   0.201  0.2289 -0.4567 -1.1187
 9143TIP3    H248921   4.019   0.991   0.212  0.7555  0.5614  2.2105
 9144TIP3   OH248922   3.333   5.450  15.920 -0.4045 -0.1141  0.1787
 9144TIP3    H148923   3.297   5.461  15.832 -1.6185 -0.0517  0.6724
 9144TIP3    H248924   3.363   5.359  15.922  2.1147  0.6489 -1.1814
 9145TIP3   OH248925   5.988   1.491   2.407 -0.5343 -0.3562 -0.4055
 9145TIP3    H148926   5.916   1.552   2.427 -0.0945 -0.0327  0.1829
 9145TIP3    H248927   6.056   1.547   2.370  0.0367 -0.4287  0.5369
 9146TIP3   OH248928   3.657   2.418  16.885  0.4158  0.1075  0.2730
 9146TIP3    H148929   3.740   2.412  16.838  0.6185  0.4285  0.5841
 9146TIP3    H248930   3.597   2.460  16.824  0.5396  0.0670  0.1252
 9147TIP3   OH248931   6.179   4.489  15.456  0.6968 -0.4277 -0.0851
 9147TIP3    H148932   6.113   4.445  15.402 -0.4787 -0.4942  1.3581
 9147TIP3    H248933   6.215   4.419  15.511 -0.5343  0.1996  1.5777
 9148TIP3   OH248934   3.732   0.301   4.066  0.2871 -0.0369  0.4586
 9148TIP3    H148935   3.804   0.240   4.081  0.9161 -0.4754 -3.5990
 9148TIP3    H248936   3.660   0.246   4.036 -0.4926  0.7913  0.8016
 9149TIP3   OH248937   6.539   0.236   0.764 -0.0589  0.5917 -0.3722
 9149TIP3    H148938   6.607   0.190   0.714 -1.6825 -1.6741 -0.5575
 9149TIP3    H248939   6.546   0.200   0.852 -0.8364  0.5431 -0.3307
 9150TIP3   OH248940   4.354   2.599  11.693  0.0187 -0.4382  0.0114
 9150TIP3    H148941   4.389   2.638  11.613  0.3397  0.7832  0.7298
 9150TIP3    H248942   4.430   2.589  11.750 -0.6282  1.3132  1.2145
 9151TIP3   OH248943   3.578   6.371  15.242 -0.2470  0.0253 -0.1691
 9151TIP3    H148944   3.593   6.326  15.325  0.2755  0.2765 -0.1239
 9151TIP3    H248945   3.490   6.345  15.216 -0.4991  0.1102  0.5755
 9152TIP3   OH248946   5.236   3.686  12.424  0.1241 -0.4392 -0.7521
 9152TIP3    H148947   5.183   3.733  12.488  0.8581  0.4977 -0.8076
 9152TIP3    H248948   5.263   3.606  12.469 -0.6861 -0.5457 -0.4541
 9153TIP3   OH248949   5.292   5.553  16.372 -0.7889  0.2177 -0.2403
 9153TIP3    H148950   5.382   5.584  16.385 -1.3113  1.4438  0.5617
 9153TIP3    H248951   5.288   5.529  16.279  0.1827  0.7929 -0.4405
 9154TIP3   OH248952   1.983   4.357   0.102 -0.5005  0.1104  0.0461
 9154TIP3    H148953   1.933   4.430   0.065 -0.5524 -0.0492 -0.2019
 9154TIP3    H248954   1.918   4.306   0.151 -0.1232  1.2303  1.7474
 9155TIP3   OH248955   6.120   1.077   1.685 -0.6848 -0.1253 -0.1649
 9155TIP3    H148956   6.211   1.070   1.659 -0.5296 -0.2162  0.4059
 9155TIP3    H248957   6.079   0.997   1.652 -0.7953  0.4105 -1.3619
 9156TIP3   OH248958   4.536   4.038  12.620  0.1021  0.7518  0.2230
 9156TIP3    H148959   4.528   4.124  12.662 -1.0392  1.0282 -0.5262
 9156TIP3    H248960   4.507   3.976  12.686 -1.9903  1.2110 -0.2028
 9157TIP3   OH248961   4.010   3.325  17.183 -0.3358  0.1527  0.4017
 9157TIP3    H148962   3.999   3.415  17.151  0.8441  0.5108  0.9757
 9157TIP3    H248963   4.017   3.272  17.104  0.8909  0.8213  0.0528
 9158TIP3   OH248964   0.755   1.313  12.343  0.5739 -0.1981 -0.4201
 9158TIP3    H148965   0.677   1.283  12.390  0.4393  0.0314 -0.4977
 9158TIP3    H248966   0.745   1.408  12.337  1.0463 -0.1233 -0.0917
 9159TIP3   OH248967   4.936   2.868  14.900  0.3254 -0.5585 -0.1106
 9159TIP3    H148968   4.915   2.788  14.948  0.2514  0.9108  2.3945
 9159TIP3    H248969   4.903   2.852  14.811 -0.3255 -3.0114  0.5394
 9160TIP3   OH248970   5.188   3.428   2.188 -0.1110  0.2900 -0.5094
 9160TIP3    H148971   5.245   3.438   2.112 -0.0425  1.1188 -0.3564
 9160TIP3    H248972   5.192   3.513   2.232 -1.2400  0.2589 -0.3394
 9161TIP3   OH248973   1.056   5.715   2.277  0.3296  0.6778 -0.4275
 9161TIP3    H148974   1.097   5.798   2.251  2.5177 -0.1141  0.3468
 9161TIP3    H248975   1.020   5.732   2.364  0.7469  0.8358 -0.2850
 9162TIP3   OH248976   1.725   3.934   2.967 -0.0140  0.4741 -0.5639
 9162TIP3    H148977   1.787   3.902   3.032  1.6639  1.6480 -1.5442
 9162TIP3    H248978   1.725   4.029   2.978 -1.3945  0.5136 -0.8099
 9163TIP3   OH248979   0.465   5.092  16.047 -0.4466 -0.4348  0.2855
 9163TIP3    H148980   0.541   5.113  15.993 -1.3554  0.2618 -0.7402
 9163TIP3    H248981   0.470   5.153  16.120  0.3869 -0.8854  0.6063
 9164TIP3   OH248982   1.260   0.347   3.887 -0.5450 -0.6128  0.3150
 9164TIP3    H148983   1.235   0.286   3.817 -0.1759  0.3003 -0.6331
 9164TIP3    H248984   1.334   0.304   3.930  1.0623  0.0744 -1.6657
 9165TIP3   OH248985   4.767   4.462  15.249  0.0772  0.1733  0.3814
 9165TIP3    H148986   4.821   4.520  15.196  2.0235  0.4190  2.5120
 9165TIP3    H248987   4.829   4.399  15.286 -1.6475 -1.7663  0.0634
 9166TIP3   OH248988   1.360   5.189   5.545  0.1016  0.1561 -0.8953
 9166TIP3    H148989   1.277   5.157   5.509 -0.6575 -0.5377  1.3652
 9166TIP3    H248990   1.400   5.112   5.585  0.3166  1.1130  0.7992
 9167TIP3   OH248991   1.209   3.124   4.004  0.4709 -0.0276  0.0173
 9167TIP3    H148992   1.260   3.045   4.025 -0.1394 -0.4299 -0.0030
 9167TIP3    H248993   1.118   3.096   4.013  0.2607  1.1040  1.6470
 9168TIP3   OH248994   0.590   4.637  13.235  0.1376 -0.2415 -0.3208
 9168TIP3    H148995   0.620   4.679  13.316 -0.4815 -0.2153 -0.0980
 9168TIP3    H248996   0.596   4.706  13.169  0.0711 -0.0870 -0.1681
 9169TIP3   OH248997   4.839   2.524   1.668  0.5371  0.0045 -0.3283
 9169TIP3    H148998   4.779   2.465   1.715 -1.1767  0.2884 -2.0996
 9169TIP3    H248999   4.863   2.590   1.734  1.0687 -1.6372  1.1672
 9170TIP3   OH249000   6.079   6.573   6.104  0.8310 -0.0482 -0.6340
 9170TIP3    H149001   6.120   6.488   6.122  1.9136 -0.3130 -4.0361
 9170TIP3    H249002   6.076   6.579   6.009 -0.1417  3.3202 -0.4602
 9171TIP3   OH249003   0.631   3.313   4.847 -0.5760 -0.2306  0.3932
 9171TIP3    H149004   0.710   3.292   4.897  0.6144  2.6844 -0.1573
 9171TIP3    H249005   0.575   3.360   4.909  0.2405  2.0176 -0.5256
 9172TIP3   OH249006   3.662   0.332  12.531 -0.3578  0.2246  0.1182
 9172TIP3    H149007   3.746   0.300  12.499  0.2458  1.1573  0.7512
 9172TIP3    H249008   3.661   0.425  12.507 -1.7037 -0.0389 -0.9043
 9173TIP3   OH249009   1.457   4.594  13.963 -0.2467 -0.2036 -0.0840
 9173TIP3    H149010   1.445   4.612  14.056  1.5547  3.4771 -0.4543
 9173TIP3    H249011   1.397   4.654  13.919  0.7968 -0.0245 -1.3056
 9174TIP3   OH249012   0.434   3.988  12.816 -0.1226  0.4250  0.1114
 9174TIP3    H149013   0.395   3.933  12.883  0.6152 -0.1103  0.1003
 9174TIP3    H249014   0.527   3.969  12.820 -0.0792  0.3409 -1.1067
 9175TIP3   OH249015   6.817   1.691  11.897 -0.0399  0.4013  0.3835
 9175TIP3    H149016   6.895   1.638  11.915 -0.7345 -0.3641  1.1599
 9175TIP3    H249017   6.845   1.752  11.828  0.2512 -2.2102 -1.9255
 9176TIP3   OH249018   2.166   6.483   3.555  0.4935 -0.1122 -0.8769
 9176TIP3    H149019   2.220   6.403   3.552  1.4148  0.5288 -1.6608
 9176TIP3    H249020   2.115   6.474   3.635  1.7872 -0.7396 -0.0969
 9177TIP3   OH249021   1.002   3.574   4.318 -0.2858 -0.6714 -0.2776
 9177TIP3    H149022   0.907   3.568   4.324 -0.4396 -0.0268 -1.7582
 9177TIP3    H249023   1.019   3.597   4.227  1.2325  0.4129  0.2458
 9178TIP3   OH249024   5.120   5.006   5.550  0.0582 -0.4470 -0.0112
 9178TIP3    H149025   5.191   5.044   5.601  0.8687  0.2532 -1.6386
 9178TIP3    H249026   5.072   5.082   5.516  2.1179 -0.7425 -3.8938
 9179TIP3   OH249027   0.987   5.876   4.733  0.0838  0.0082 -0.5536
 9179TIP3    H149028   1.018   5.965   4.718 -0.3707  0.2938  0.1898
 9179TIP3    H249029   1.026   5.825   4.662  0.2569  0.8153 -1.0440
 9180TIP3   OH249030   0.953   5.030   4.418  0.1547 -0.2769 -0.1997
 9180TIP3    H149031   0.948   5.041   4.513 -0.7816  1.8576 -0.4610
 9180TIP3    H249032   0.886   5.089   4.384  1.3816 -0.0238 -2.2538
 9181TIP3   OH249033   3.260   6.544   3.453  0.2554  0.2513  0.7361
 9181TIP3    H149034   3.319   6.566   3.526  1.0075  0.8604 -0.0404
 9181TIP3    H249035   3.305   6.578   3.376 -1.4903  1.3794  0.2117
 9182TIP3   OH249036   2.382   2.238   3.963  0.2190 -0.4409 -0.3043
 9182TIP3    H149037   2.419   2.162   4.009  2.2821  0.1314 -0.9798
 9182TIP3    H249038   2.395   2.219   3.870 -0.9670 -0.1031 -0.5473
 9183TIP3   OH249039   5.265   1.800  15.655  0.3235  0.1333 -0.8601
 9183TIP3    H149040   5.324   1.762  15.590 -0.3631  0.9684 -1.9840
 9183TIP3    H249041   5.189   1.830  15.605  0.2650  1.7628  0.1477
 9184TIP3   OH249042   3.034   0.972  10.560  0.2276  0.3826 -0.3277
 9184TIP3    H149043   3.088   0.933  10.629 -2.1354  0.2548  1.5456
 9184TIP3    H249044   3.006   0.899  10.507  2.9654  0.5968 -2.1799
 9185TIP3   OH249045   2.335   0.905   7.010  0.0473  0.5349 -0.0458
 9185TIP3    H149046   2.378   0.917   7.094  1.8791 -1.7709 -0.5900
 9185TIP3    H249047   2.372   0.974   6.954  0.8994  0.3589  0.2951
 9186TIP3   OH249048   0.675   0.660   3.727  0.4500 -0.4689  0.3544
 9186TIP3    H149049   0.766   0.638   3.707  0.1504 -0.5899 -0.8860
 9186TIP3    H249050   0.626   0.580   3.707 -0.2931  0.4651 -1.6421
 9187TIP3   OH249051   3.744   0.575   4.044 -0.1472 -0.1352  0.0897
 9187TIP3    H149052   3.749   0.479   4.052 -1.3951 -0.2433 -0.3854
 9187TIP3    H249053   3.834   0.605   4.062  0.7348 -1.5362 -1.7660
 9188TIP3   OH249054   4.518   0.307   0.440  0.0824  0.1811 -0.1627
 9188TIP3    H149055   4.590   0.275   0.495  0.0832  0.2744 -0.1088
 9188TIP3    H249056   4.487   0.385   0.485  1.8299  1.8073 -1.6903
 9189TIP3   OH249057   4.529   2.592  16.816  0.4330  0.8145  0.2774
 9189TIP3    H149058   4.539   2.622  16.726  0.6041  2.3275  0.7708
 9189TIP3    H249059   4.514   2.673  16.866  1.2008  0.0982  1.7075
 9190TIP3   OH249060   0.977   0.420   3.440  0.1077  0.5824  0.4345
 9190TIP3    H149061   0.894   0.464   3.458 -0.0832  0.2953  0.2530
 9190TIP3    H249062   1.037   0.454   3.508  0.2895  2.0165 -0.4138
 9191TIP3   OH249063   2.110   1.069   5.728  0.0476 -0.6590 -0.4339
 9191TIP3    H149064   2.077   1.035   5.812  3.3357 -1.2563  0.6991
 9191TIP3    H249065   2.062   1.019   5.662 -1.2531 -1.5109  1.1004
 9192TIP3   OH249066   2.652   5.402   0.079  0.0813 -0.4854 -0.1257
 9192TIP3    H149067   2.688   5.328   0.128 -0.0773  0.3344  1.2666
 9192TIP3    H249068   2.561   5.406   0.106  0.4021  0.9972  0.8127
 9193TIP3   OH249069   0.234   0.159   3.540  0.1344 -0.0782  0.3128
 9193TIP3    H149070   0.226   0.224   3.470  0.3405 -0.5468 -0.1505
 9193TIP3    H249071   0.152   0.167   3.589 -0.1943 -0.0458 -0.2375
 9194TIP3   OH249072   3.714   1.821  11.759  0.5111  0.1221  0.0969
 9194TIP3    H149073   3.665   1.886  11.810 -0.2034  0.9766 -1.6517
 9194TIP3    H249074   3.802   1.824  11.797  0.3081  1.6325  0.5036
 9195TIP3   OH249075   0.490   4.960  11.515 -0.1571  0.1859 -0.0672
 9195TIP3    H149076   0.534   4.961  11.600  0.4616  0.1348 -0.3811
 9195TIP3    H249077   0.410   5.010  11.529  0.2847  0.7890  0.3693
 9196TIP3   OH249078   4.532   3.081  14.470  0.5791  1.1824 -0.0364
 9196TIP3    H149079   4.527   3.057  14.378 -2.0042  2.8277 -0.3498
 9196TIP3    H249080   4.474   3.018  14.514  1.5105  0.6398  0.4368
 9197TIP3   OH249081   3.217   2.153   2.883 -0.3367  0.1281 -0.6001
 9197TIP3    H149082   3.270   2.073   2.890 -2.9942 -1.8657 -2.1514
 9197TIP3    H249083   3.144   2.139   2.944  0.9794  2.9637  1.7385
 9198TIP3   OH249084   2.181   0.951  14.598 -0.0514  0.4051  0.0367
 9198TIP3    H149085   2.272   0.958  14.625  0.1446 -0.7035 -0.3021
 9198TIP3    H249086   2.170   1.017  14.530  0.7478 -0.0888 -0.5755
 9199TIP3   OH249087   2.801   3.049   6.196  0.3303 -0.4619  1.2373
 9199TIP3    H149088   2.724   3.044   6.253 -0.3209  1.3002  0.5433
 9199TIP3    H249089   2.871   3.081   6.253 -0.2610  1.0736  1.1246
 9200TIP3   OH249090   4.724   5.328  13.916 -0.3633  0.6379  0.0814
 9200TIP3    H149091   4.688   5.255  13.866 -1.3995  1.1939  0.0014
 9200TIP3    H249092   4.802   5.292  13.959 -1.2136 -0.6729  0.5510
 9201TIP3   OH249093   0.587   2.242   4.485 -0.1761  0.0059 -0.1564
 9201TIP3    H149094   0.638   2.310   4.443 -1.4436 -0.6523 -2.8525
 9201TIP3    H249095   0.497   2.275   4.483 -0.7025 -1.4437 -0.8796
 9202TIP3   OH249096   4.401   6.371  11.829  0.0455  0.0855 -0.0503
 9202TIP3    H149097   4.388   6.372  11.734  0.6055 -0.9052 -0.1548
 9202TIP3    H249098   4.437   6.284  11.846  0.3355  0.4148  1.0192
 9203TIP3   OH249099   4.201   1.247   0.068 -0.3609  0.5083 -0.3919
 9203TIP3    H149100   4.181   1.168   0.118  1.8264  0.1479 -0.0588
 9203TIP3    H249101   4.189   1.221  -0.024  1.5073 -0.5724 -0.3502
 9204TIP3   OH249102   1.436   6.508   4.327 -0.4612 -0.6117 -0.3932
 9204TIP3    H149103   1.522   6.469   4.311 -0.0031  0.0271  0.5073
 9204TIP3    H249104   1.396   6.511   4.240  0.6207 -0.4514 -0.9001
 9205TIP3   OH249105   3.401   0.009   0.403  0.8755 -0.2332  0.0110
 9205TIP3    H149106   3.363  -0.061   0.351  0.1433 -0.8858  1.3984
 9205TIP3    H249107   3.395  -0.022   0.493 -1.3580  2.4792  0.8625
 9206TIP3   OH249108   5.370   4.778   3.789 -0.1856  0.1166  0.1287
 9206TIP3    H149109   5.305   4.708   3.794 -0.8824  0.6498 -1.0362
 9206TIP3    H249110   5.414   4.777   3.874 -0.2778 -1.6303  0.1741
 9207TIP3   OH249111   2.001   5.663   5.690  0.2646  0.4259  0.5193
 9207TIP3    H149112   1.944   5.732   5.725 -0.6687 -0.2388  0.3082
 9207TIP3    H249113   1.944   5.608   5.637  0.9481 -0.6847  0.9141
 9208TIP3   OH249114   2.868   3.576  12.037 -0.2780  0.3978  0.0080
 9208TIP3    H149115   2.905   3.581  11.949  1.9229 -0.0116  0.8896
 9208TIP3    H249116   2.856   3.482  12.053  1.4679  0.3145  0.9860
 9209TIP3   OH249117   3.947   5.100  15.866 -0.1063 -0.1903 -0.0786
 9209TIP3    H149118   3.867   5.048  15.875 -0.6044  0.4024 -1.0089
 9209TIP3    H249119   4.003   5.049  15.809 -0.3330 -0.0184 -0.4591
 9210TIP3   OH249120   5.009   1.236  14.151  0.1254 -0.1588  0.1074
 9210TIP3    H149121   5.016   1.264  14.242 -0.7987 -0.3001  0.2270
 9210TIP3    H249122   4.918   1.251  14.128 -0.1162 -1.9265 -0.1881
 9211TIP3   OH249123   1.199   1.689   6.160 -0.3890  0.3268  0.0318
 9211TIP3    H149124   1.147   1.754   6.208 -0.3642 -0.2974  0.9104
 9211TIP3    H249125   1.230   1.736   6.083 -2.3971  0.6613 -0.5936
 9212TIP3   OH249126   5.502   1.114   0.466 -0.4135 -0.7262  0.1118
 9212TIP3    H149127   5.499   1.098   0.372 -0.2978 -0.4529  0.0601
 9212TIP3    H249128   5.584   1.162   0.480 -1.1413  0.5121  0.1510
 9213TIP3   OH249129   2.173   2.531   4.620  0.2941 -0.9922  0.0669
 9213TIP3    H149130   2.195   2.601   4.559  0.5249 -1.3683 -0.2893
 9213TIP3    H249131   2.122   2.469   4.567 -0.3155 -0.8648  0.4960
 9214TIP3   OH249132   6.375   5.694   1.611  0.0439 -0.0662 -0.1241
 9214TIP3    H149133   6.335   5.777   1.583 -0.2076 -0.1885 -0.1266
 9214TIP3    H249134   6.303   5.631   1.611  0.7030 -0.8635 -2.3964
 9215TIP3   OH249135   3.611   6.166   1.452  0.0621  0.0641 -0.3800
 9215TIP3    H149136   3.679   6.144   1.389 -0.8694 -1.3453 -0.9316
 9215TIP3    H249137   3.646   6.241   1.500  0.8338  1.0619 -2.4609
 9216TIP3   OH249138   4.996   3.385   5.337  0.1121 -0.7416 -0.5420
 9216TIP3    H149139   4.934   3.410   5.405  1.9374 -0.7845  1.1817
 9216TIP3    H249140   5.014   3.293   5.353 -0.0245 -0.9598 -1.5746
 9217TIP3   OH249141   4.573   2.129  14.919  0.1555  0.2082  0.3287
 9217TIP3    H149142   4.662   2.113  14.948  0.2947 -1.0861 -0.7625
 9217TIP3    H249143   4.582   2.172  14.834 -0.2616 -0.4488 -0.0511
 9218TIP3   OH249144   1.434   1.762  15.775  0.0711  0.2089  0.4132
 9218TIP3    H149145   1.364   1.825  15.790  0.0570 -0.1738  1.9870
 9218TIP3    H249146   1.457   1.774  15.683 -0.4157  2.0128  0.5073
 9219TIP3   OH249147   2.384   3.544  16.205 -0.0766 -0.0800  0.5386
 9219TIP3    H149148   2.451   3.494  16.159 -2.1458 -1.3512 -1.1830
 9219TIP3    H249149   2.399   3.634  16.179  0.3992 -0.4671 -0.5416
 9220TIP3   OH249150   2.406   3.181  17.125 -0.0131 -0.2474  0.5982
 9220TIP3    H149151   2.483   3.129  17.149  0.2100  0.4007  1.3042
 9220TIP3    H249152   2.383   3.229  17.205 -0.8537 -0.0669  0.2533
 9221TIP3   OH249153   5.798   1.048  11.984 -0.5750  0.0434  0.2730
 9221TIP3    H149154   5.735   1.106  12.026 -0.2463  0.5367  0.0926
 9221TIP3    H249155   5.868   1.106  11.954 -0.2753 -0.4376  0.0295
 9222TIP3   OH249156   5.887   3.408  12.264  0.0870 -0.1003  0.6498
 9222TIP3    H149157   5.929   3.355  12.197  0.1300  1.0628 -0.2658
 9222TIP3    H249158   5.866   3.490  12.219 -0.1421  0.5784  1.9854
 9223TIP3   OH249159   4.267   4.425  12.489  0.5504 -0.2287  0.0468
 9223TIP3    H149160   4.243   4.517  12.482  0.9649 -0.1149  0.1479
 9223TIP3    H249161   4.355   4.425  12.526  0.4379 -0.6749  0.3197
 9224TIP3   OH249162   0.630   0.702  11.144 -0.1933  0.5806  0.2807
 9224TIP3    H149163   0.628   0.772  11.078  0.1199  2.1098  1.8585
 9224TIP3    H249164   0.709   0.720  11.195 -1.3999  0.5082  2.2169
 9225TIP3   OH249165   2.611   1.608   2.581 -0.4129  0.1890 -0.6195
 9225TIP3    H149166   2.698   1.639   2.604 -0.1156  0.0589 -1.5566
 9225TIP3    H249167   2.618   1.582   2.489 -1.1748 -0.7800 -0.4096
 9226TIP3   OH249168   6.060   0.847  14.543 -0.4867 -0.4232 -0.0480
 9226TIP3    H149169   6.078   0.858  14.450  1.0383 -0.6928  0.2089
 9226TIP3    H249170   6.145   0.834  14.583 -1.2198 -1.3111  1.2655
 9227TIP3   OH249171   5.236   1.611   2.081  0.9281  0.1952 -0.7076
 9227TIP3    H149172   5.192   1.550   2.022 -0.7424  0.4739  0.2262
 9227TIP3    H249173   5.228   1.696   2.037  0.7727  0.2001 -0.6700
 9228TIP3   OH249174   2.202   4.449  15.134 -0.3158 -0.1002  0.5363
 9228TIP3    H149175   2.216   4.528  15.186 -0.4111  0.4488 -0.2617
 9228TIP3    H249176   2.289   4.409  15.127  0.3502  1.6071 -1.7068
 9229TIP3   OH249177   5.195   4.138   4.914 -0.2598  0.2467 -0.2931
 9229TIP3    H149178   5.195   4.207   4.980  1.5952 -0.7858  0.8316
 9229TIP3    H249179   5.286   4.132   4.886 -0.8292 -0.1186 -2.1294
 9230TIP3   OH249180   5.343   3.044   4.941 -0.3364 -0.3361  0.3822
 9230TIP3    H149181   5.370   3.092   4.863 -1.9495 -0.9287 -0.5619
 9230TIP3    H249182   5.368   3.101   5.014  1.2641  0.1784 -0.5388
 9231TIP3   OH249183   4.641   1.894  11.527 -0.4252 -0.6643 -0.2610
 9231TIP3    H149184   4.581   1.863  11.459 -0.8880  0.3486 -0.3286
 9231TIP3    H249185   4.708   1.826  11.533  0.0850 -0.3628 -2.3378
 9232TIP3   OH249186   1.814   5.349  14.109 -0.0589  0.1654  0.2645
 9232TIP3    H149187   1.791   5.275  14.166 -1.4866  1.0520  0.8761
 9232TIP3    H249188   1.746   5.348  14.041  0.6030  0.1953 -0.3989
 9233TIP3   OH249189   3.126   4.109  15.321 -0.3733  0.1553 -0.4814
 9233TIP3    H149190   3.070   4.172  15.275  0.0849  1.2884  0.4898
 9233TIP3    H249191   3.214   4.126  15.286 -0.5867 -1.5454 -1.9220
 9234TIP3   OH249192   1.284   2.876   0.274  0.6495 -0.4402 -0.3673
 9234TIP3    H149193   1.204   2.927   0.285  1.1273 -0.0488  1.4520
 9234TIP3    H249194   1.321   2.908   0.191 -2.1297 -2.1540 -2.3737
 9235TIP3   OH249195   2.175   4.595   5.352  0.3143 -0.5916 -0.4469
 9235TIP3    H149196   2.121   4.591   5.431 -0.7806  2.4121 -0.9521
 9235TIP3    H249197   2.117   4.568   5.281 -0.2975  1.7279 -0.8665
 9236TIP3   OH249198   6.358   3.999  14.645 -0.3733  0.0029  0.0363
 9236TIP3    H149199   6.297   3.987  14.718 -0.9512  2.2598 -0.0553
 9236TIP3    H249200   6.306   3.981  14.567  0.1383 -1.9928  0.1103
 9237TIP3   OH249201   3.364   4.637  12.665 -0.4732  0.3371 -0.1612
 9237TIP3    H149202   3.434   4.668  12.608  0.7942 -0.8663  0.7370
 9237TIP3    H249203   3.378   4.682  12.748 -1.0466  0.4291 -0.1072
 9238TIP3   OH249204   1.885   2.725  16.613  0.2398 -0.1169 -0.0538
 9238TIP3    H149205   1.832   2.801  16.589 -0.3452 -0.4786  0.0805
 9238TIP3    H249206   1.944   2.712  16.539 -0.0754  0.0960 -0.3407
 9239TIP3   OH249207   4.303   0.384  17.229  0.0325 -0.4855 -0.0220
 9239TIP3    H149208   4.227   0.356  17.281 -0.9450  0.0925 -1.1157
 9239TIP3    H249209   4.273   0.463  17.184  0.5269 -1.4896 -2.1872
 9240TIP3   OH249210   5.038   2.905   5.245 -0.2219 -0.1596  0.0508
 9240TIP3    H149211   4.957   2.867   5.210  1.1292 -1.8505 -1.3905
 9240TIP3    H249212   5.107   2.870   5.188  1.4789  1.6315  0.9428
 9241TIP3   OH249213   3.909   6.715  16.809  0.1625  0.1255 -0.1300
 9241TIP3    H149214   3.924   6.711  16.715 -1.0004 -0.3497 -0.2979
 9241TIP3    H249215   3.863   6.634  16.830 -2.4169  1.6726  0.3155
 9242TIP3   OH249216   2.297   1.724   0.892  0.1475  0.0086 -0.0777
 9242TIP3    H149217   2.215   1.716   0.940 -0.7626  2.8201 -1.0167
 9242TIP3    H249218   2.345   1.644   0.911 -2.9935 -1.8789  0.1385
 9243TIP3   OH249219   5.703   2.690   5.544 -0.5778 -0.3078  0.2381
 9243TIP3    H149220   5.738   2.779   5.549 -0.8104 -0.0980 -1.5431
 9243TIP3    H249221   5.682   2.678   5.451  0.1912 -2.4975  0.3340
 9244TIP3   OH249222   2.543   5.737  15.814 -0.1560 -0.4227  0.6231
 9244TIP3    H149223   2.635   5.740  15.785 -0.8228  0.9809 -1.5240
 9244TIP3    H249224   2.527   5.645  15.834  0.8693 -1.2486 -2.0488
 9245TIP3   OH249225   0.860   4.644   0.651  0.4108 -0.1366  0.3075
 9245TIP3    H149226   0.806   4.601   0.586  0.2818  0.4218  0.0373
 9245TIP3    H249227   0.940   4.591   0.656  0.5511 -0.0082 -0.5284
 9246TIP3   OH249228   1.074   4.235   2.254 -0.3772 -0.5779 -0.1181
 9246TIP3    H149229   1.075   4.322   2.294 -1.6704 -0.8266  0.4760
 9246TIP3    H249230   1.072   4.252   2.160 -1.0349  0.0554  0.0032
 9247TIP3   OH249231   0.884   3.092   5.828 -0.2107  0.8710  0.2366
 9247TIP3    H149232   0.893   3.040   5.748  1.1158  2.6171 -0.7788
 9247TIP3    H249233   0.789   3.105   5.837 -0.4723 -0.5955 -0.1916
 9248TIP3   OH249234   5.596   5.389   2.919 -0.1414 -0.2613  0.8271
 9248TIP3    H149235   5.519   5.333   2.908  0.4962 -1.3514  1.8769
 9248TIP3    H249236   5.618   5.382   3.011  0.6419  0.8258  0.7315
 9249TIP3   OH249237   0.866   2.326   4.785 -0.4010  0.2137 -0.0822
 9249TIP3    H149238   0.944   2.378   4.765 -0.7382  0.5820 -0.4699
 9249TIP3    H249239   0.894   2.235   4.775 -0.0243  0.3461 -0.2401
 9250TIP3   OH249240   3.446   2.604  17.238  0.0774  0.3606 -1.0931
 9250TIP3    H149241   3.508   2.569  17.175  0.4076  1.5037 -1.4193
 9250TIP3    H249242   3.466   2.558  17.320 -0.0748 -0.8120 -1.7050
 9251TIP3   OH249243   4.503   3.126   6.401  0.4923 -0.4120 -0.3310
 9251TIP3    H149244   4.540   3.063   6.463 -0.7377 -1.7658 -0.9261
 9251TIP3    H249245   4.434   3.077   6.356  0.5971  0.8925 -1.9521
 9252TIP3   OH249246   2.774   5.040  11.837 -0.0119  0.5145 -0.0869
 9252TIP3    H149247   2.773   5.135  11.852  0.7351  0.5260 -0.1216
 9252TIP3    H249248   2.742   5.030  11.748 -0.3756  0.7136  0.0179
 9253TIP3   OH249249   1.208   2.624  15.856  0.9208  0.7213 -0.2673
 9253TIP3    H149250   1.204   2.661  15.944  1.2840  2.7241 -1.0781
 9253TIP3    H249251   1.296   2.644  15.826  1.4530 -1.6516 -0.3835
 9254TIP3   OH249252   4.991   2.230   4.832  0.0125  0.2258 -0.1431
 9254TIP3    H149253   5.079   2.217   4.869 -0.0430 -1.3840 -0.5793
 9254TIP3    H249254   4.947   2.146   4.843 -1.3881  0.9275 -0.2198
 9255TIP3   OH249255   2.776   2.875   3.423 -0.1213  0.0128  0.1755
 9255TIP3    H149256   2.784   2.850   3.515 -0.5417 -0.4504  0.0878
 9255TIP3    H249257   2.731   2.960   3.425 -0.9401 -0.4184  0.3582
 9256TIP3   OH249258   5.899   5.483  15.219 -0.4626  0.0997 -0.0783
 9256TIP3    H149259   5.831   5.526  15.168 -0.2123  0.3705 -0.1851
 9256TIP3    H249260   5.853   5.415  15.269 -0.5379 -0.9522 -1.5382
 9257TIP3   OH249261   6.544   2.883  12.103 -0.2363 -0.2320  0.0888
 9257TIP3    H149262   6.533   2.865  12.010 -2.0506 -0.5726  0.3336
 9257TIP3    H249263   6.582   2.971  12.107  0.5222 -0.5120 -0.9840
 9258TIP3   OH249264   1.592   0.924  11.995  0.3447 -0.2850  0.3558
 9258TIP3    H149265   1.568   0.987  11.927 -2.2537 -1.4824  0.0966
 9258TIP3    H249266   1.675   0.886  11.966  1.3177  2.0865 -0.0950
 9259TIP3   OH249267   1.785   5.596  15.147  0.2234 -0.4160  0.2709
 9259TIP3    H149268   1.763   5.546  15.225  4.1805  0.6390  2.1948
 9259TIP3    H249269   1.838   5.536  15.095 -0.1062 -0.2073 -0.3047
 9260TIP3   OH249270   5.646   5.704   5.355 -0.9670  0.0266  0.3785
 9260TIP3    H149271   5.719   5.699   5.417 -0.9271 -0.7036  0.2825
 9260TIP3    H249272   5.688   5.705   5.269 -1.0744 -0.7210  0.3130
 9261TIP3   OH249273   3.591   0.705   4.753  0.2953  1.0075  0.1679
 9261TIP3    H149274   3.566   0.726   4.663  1.1899  0.4200 -0.2195
 9261TIP3    H249275   3.508   0.703   4.801 -0.1768  1.3615 -0.6345
 9262TIP3   OH249276   3.345   5.423   4.273 -0.1670  0.0396 -0.1257
 9262TIP3    H149277   3.377   5.348   4.222  0.7023  0.4954 -0.2615
 9262TIP3    H249278   3.285   5.468   4.214  1.2272  0.8510 -0.9349
 9263TIP3   OH249279   0.484   6.704  16.745 -0.0300  0.2954 -0.1246
 9263TIP3    H149280   0.389   6.716  16.744 -0.4529 -2.1429  2.5773
 9263TIP3    H249281   0.517   6.776  16.800 -0.6396 -0.4386  1.2295
 9264TIP3   OH249282   5.137   0.298   4.893  0.3384 -0.3895  0.3798
 9264TIP3    H149283   5.066   0.340   4.941  1.3242  0.4884  1.1112
 9264TIP3    H249284   5.094   0.243   4.828 -0.9999  0.1176  0.8277
 9265TIP3   OH249285   3.546   1.349   3.757 -0.1392 -0.2291  0.5028
 9265TIP3    H149286   3.555   1.286   3.685 -0.1666  0.4602 -0.1165
 9265TIP3    H249287   3.557   1.297   3.836 -0.6466 -1.0909  0.0132
 9266TIP3   OH249288   5.884   5.288   4.786 -0.7357  0.7727 -0.7185
 9266TIP3    H149289   5.937   5.357   4.747 -0.7247  0.0276 -2.0498
 9266TIP3    H249290   5.934   5.259   4.863  0.0671  1.0963 -1.1178
 9267TIP3   OH249291   2.511   4.655   6.067 -0.0790 -0.0041 -0.6245
 9267TIP3    H149292   2.485   4.596   6.138 -0.0015 -0.0168 -0.6053
 9267TIP3    H249293   2.539   4.735   6.112  0.4047 -0.1763 -0.6124
 9268TIP3   OH249294   6.307   0.338   0.650  0.3422  0.0332  0.1010
 9268TIP3    H149295   6.382   0.326   0.708  0.7872  0.4668 -0.3884
 9268TIP3    H249296   6.238   0.283   0.689  0.2921  1.1360  1.6371
 9269TIP3   OH249297   6.671   0.844   2.869  0.6925  0.2295  0.9953
 9269TIP3    H149298   6.739   0.872   2.808 -0.2745  1.1669  0.3315
 9269TIP3    H249299   6.669   0.749   2.860  0.8209  0.3275 -0.1580
 9270TIP3   OH249300   0.057   2.283  16.740  0.2466 -0.3925 -0.1292
 9270TIP3    H149301   0.041   2.204  16.688 -0.2795 -0.4087  0.0513
 9270TIP3    H249302   0.032   2.355  16.683  0.0297 -0.3928 -0.0352
 9271TIP3   OH249303   4.481   2.541   3.717 -0.3161 -0.5874 -0.4277
 9271TIP3    H149304   4.395   2.563   3.751 -0.1629  0.4176 -0.6691
 9271TIP3    H249305   4.537   2.538   3.795 -0.5513 -1.1616 -0.2802
 9272TIP3   OH249306   2.316   1.452  13.731 -0.2662 -0.8547  0.0062
 9272TIP3    H149307   2.299   1.386  13.797  2.6116 -1.2662  0.3752
 9272TIP3    H249308   2.261   1.526  13.757 -2.5137 -2.5747  0.3225
 9273TIP3   OH249309   4.491   4.222   1.321 -0.1082 -0.1757 -0.3068
 9273TIP3    H149310   4.489   4.232   1.416 -0.8940  1.0134 -0.4415
 9273TIP3    H249311   4.415   4.271   1.290 -1.6680 -3.0864 -1.3352
 9274TIP3   OH249312   2.377   2.306  11.459 -0.0180 -0.3857 -0.1772
 9274TIP3    H149313   2.362   2.234  11.398 -0.5911 -0.6853  0.3193
 9274TIP3    H249314   2.472   2.304  11.474  0.3555  0.6655 -2.2467
 9275TIP3   OH249315   1.861   6.236  10.768 -0.3256  0.6014 -0.3728
 9275TIP3    H149316   1.833   6.244  10.860 -0.0245  0.4982 -0.2715
 9275TIP3    H249317   1.854   6.143  10.749  1.0746  0.4057  0.0159
 9276TIP3   OH249318   2.159   4.186  17.279  0.1590 -0.2029 -0.2534
 9276TIP3    H149319   2.226   4.239  17.236  1.2218 -0.6844  0.7923
 9276TIP3    H249320   2.081   4.241  17.276  0.5144  0.2611 -1.7152
 9277TIP3   OH249321   5.133   2.705   4.692  0.1034 -0.4225  0.2826
 9277TIP3    H149322   5.086   2.652   4.756 -1.4177 -2.3170 -2.2804
 9277TIP3    H249323   5.086   2.789   4.690  0.0984 -0.3958  1.5329
 9278TIP3   OH249324   6.424   3.691  16.667  0.1148  0.6497  0.4902
 9278TIP3    H149325   6.477   3.712  16.590 -1.2906  0.4581 -0.5466
 9278TIP3    H249326   6.412   3.596  16.662  0.0195  0.6387  0.9533
 9279TIP3   OH249327   2.078   5.001   4.907 -0.2010 -0.5876 -0.2321
 9279TIP3    H149328   2.094   4.952   4.826 -0.3790 -2.1443  0.6488
 9279TIP3    H249329   2.077   5.092   4.880  1.3667 -0.9825 -1.7392
 9280TIP3   OH249330   6.222   3.512  12.990 -0.5844  0.6686  0.3742
 9280TIP3    H149331   6.214   3.487  13.082  0.8228  0.0673  0.3296
 9280TIP3    H249332   6.178   3.442  12.942 -1.5521  1.1154  0.5906
 9281TIP3   OH249333   1.072   6.030  17.246 -0.1704  0.5081 -0.3741
 9281TIP3    H149334   1.062   6.048  17.339  0.9827 -2.4123  0.3711
 9281TIP3    H249335   1.017   5.954  17.230 -1.3969  1.7833 -2.3840
 9282TIP3   OH249336   1.153   1.016  14.530 -0.1255  0.4070 -0.3658
 9282TIP3    H149337   1.080   1.074  14.511  0.6759  1.9275  1.0488
 9282TIP3    H249338   1.198   1.057  14.604  1.1868 -1.3714 -0.1307
 9283TIP3   OH249339   2.687   1.224   5.773  0.3767 -0.1888  0.3242
 9283TIP3    H149340   2.626   1.151   5.783  0.6238 -0.5752 -0.9677
 9283TIP3    H249341   2.728   1.233   5.859 -0.5937 -0.7220  0.8546
 9284TIP3   OH249342   6.160   5.599  16.987 -0.8342 -0.2232 -0.3098
 9284TIP3    H149343   6.160   5.527  17.050 -0.8457  0.2549  0.2402
 9284TIP3    H249344   6.097   5.661  17.022 -0.3888  0.3257 -0.4760
 9285TIP3   OH249345   2.344   0.429  15.081  0.1215  0.3025 -0.2369
 9285TIP3    H149346   2.274   0.397  15.024  2.3830  0.6942 -3.3798
 9285TIP3    H249347   2.373   0.510  15.040  2.8946 -0.2208  0.5797
 9286TIP3   OH249348   2.990   0.646  11.182  0.4019  0.5006 -0.2213
 9286TIP3    H149349   3.046   0.607  11.250  0.7964  1.1303 -0.1776
 9286TIP3    H249350   2.987   0.739  11.205  1.8669  1.0221 -1.9797
 9287TIP3   OH249351   0.554   4.579  16.675 -0.0944  0.0435 -0.3403
 9287TIP3    H149352   0.614   4.569  16.601 -2.4866 -1.3257 -2.1696
 9287TIP3    H249353   0.576   4.507  16.734  1.3390  0.7162 -0.0134
 9288TIP3   OH249354   2.688   5.193   4.883 -0.3510  0.3661 -0.2450
 9288TIP3    H149355   2.693   5.146   4.966 -0.6485 -0.6289 -0.7842
 9288TIP3    H249356   2.615   5.254   4.894  0.2187  0.9055  0.5573
 9289TIP3   OH249357   0.954   2.081  13.742  0.7472  0.4053  0.0835
 9289TIP3    H149358   0.963   2.024  13.819  0.0879  0.6682  0.3572
 9289TIP3    H249359   0.907   2.158  13.774 -0.3724  0.0978 -0.7801
 9290TIP3   OH249360   0.945   5.770   2.963  0.7138  0.4907  0.1022
 9290TIP3    H149361   1.026   5.787   2.915  1.1697  1.1148  1.0705
 9290TIP3    H249362   0.915   5.856   2.992  0.0649  0.1956  0.3131
 9291TIP3   OH249363   0.739   5.266  14.070  0.0892  0.3654  0.1768
 9291TIP3    H149364   0.820   5.219  14.088  0.3098  1.1179  1.1852
 9291TIP3    H249365   0.765   5.340  14.014  0.0934  0.5834  0.4668
 9292TIP3   OH249366   6.274   0.495  13.284 -0.0659 -0.2375  0.2785
 9292TIP3    H149367   6.295   0.532  13.199 -1.4447 -2.4156 -1.0727
 9292TIP3    H249368   6.348   0.517  13.340  1.5098  0.0206 -1.8844
 9293TIP3   OH249369   4.604   1.628  14.656 -0.2394  0.0161  0.2664
 9293TIP3    H149370   4.639   1.612  14.568 -0.1520  0.7969  0.1548
 9293TIP3    H249371   4.589   1.722  14.659 -1.0076 -0.1173  0.8112
 9294TIP3   OH249372   0.523   5.562   1.915 -0.0067 -0.3339 -0.3697
 9294TIP3    H149373   0.430   5.553   1.896 -0.4172  2.6761  0.0137
 9294TIP3    H249374   0.528   5.573   2.010  0.7275 -0.3853 -0.3973
 9295TIP3   OH249375   0.330   2.524  11.929  0.5720 -0.2613 -0.4590
 9295TIP3    H149376   0.331   2.437  11.969  0.6900 -0.3655 -0.6877
 9295TIP3    H249377   0.264   2.572  11.978  1.9850  0.1652  1.0315
 9296TIP3   OH249378   3.725   2.194  13.380  0.0296  0.5307  0.0922
 9296TIP3    H149379   3.756   2.284  13.384 -0.8148  0.7929  0.9595
 9296TIP3    H249380   3.633   2.201  13.355  0.1430 -0.1279 -0.5238
 9297TIP3   OH249381   2.026   4.463   0.372  0.0426 -0.1472 -0.1516
 9297TIP3    H149382   2.048   4.428   0.285  0.3980 -1.1234  0.3242
 9297TIP3    H249383   2.104   4.511   0.399 -0.4870  1.1175 -0.8545
 9298TIP3   OH249384   6.404   6.420   4.769  0.0810  0.1705  0.1918
 9298TIP3    H149385   6.421   6.501   4.817  0.8811 -1.0500  2.0483
 9298TIP3    H249386   6.312   6.427   4.743  0.0703  1.5639  0.5322
 9299TIP3   OH249387   2.789   2.473  14.197 -0.1521  0.2821 -0.1419
 9299TIP3    H149388   2.813   2.565  14.214  0.7001  0.6030 -2.8506
 9299TIP3    H249389   2.733   2.449  14.271 -0.2263  2.9218  0.7223
 9300TIP3   OH249390   5.851   6.648   2.522 -0.2321 -0.3425 -0.1635
 9300TIP3    H149391   5.849   6.578   2.587 -2.1814 -0.2604 -0.0865
 9300TIP3    H249392   5.788   6.712   2.555 -0.5103  0.1612 -1.6297
 9301TIP3   OH249393   4.746   1.790  12.147  0.1789  0.7989  0.1099
 9301TIP3    H149394   4.660   1.762  12.115  0.2264  0.9285 -0.1335
 9301TIP3    H249395   4.729   1.872  12.194  0.5006  2.1252 -1.9983
 9302TIP3   OH249396   2.154   5.037   4.175  0.5039 -0.3553  0.2527
 9302TIP3    H149397   2.246   5.022   4.156  1.0856  3.5724 -0.5001
 9302TIP3    H249398   2.154   5.100   4.247 -1.6401 -1.8183  1.6060
 9303TIP3   OH249399   3.081   6.317   5.898 -0.4238  0.5096 -0.4558
 9303TIP3    H149400   3.132   6.272   5.965  0.0382  1.8526  0.1158
 9303TIP3    H249401   3.076   6.407   5.929 -2.4814  0.5691 -0.8988
 9304TIP3   OH249402   6.164   5.040   0.154  0.0426  0.6039 -0.3298
 9304TIP3    H149403   6.113   5.019   0.076 -1.2878 -1.3215  1.0217
 9304TIP3    H249404   6.255   5.019   0.131 -0.4412 -0.6417 -1.1226
 9305TIP3   OH249405   3.047   2.977  15.953  0.0767  0.3646 -0.8550
 9305TIP3    H149406   2.990   2.907  15.921 -1.0250  1.4732 -1.3610
 9305TIP3    H249407   3.105   2.934  16.015 -1.7653 -0.6726  0.2009
 9306TIP3   OH249408   5.289   1.867  15.283  0.1406  0.5163  0.1289
 9306TIP3    H149409   5.235   1.853  15.360 -0.3646  2.7361  0.2013
 9306TIP3    H249410   5.237   1.924  15.227  0.3377 -1.3506 -2.0545
 9307TIP3   OH249411   3.460   0.104   3.664  0.0999  0.0741 -0.2670
 9307TIP3    H149412   3.456   0.157   3.585  1.6108  2.1799  1.0155
 9307TIP3    H249413   3.370   0.102   3.696 -0.1210  1.2160 -0.7768
 9308TIP3   OH249414   1.512   0.449   1.145 -0.8615 -0.2710 -0.0004
 9308TIP3    H149415   1.451   0.505   1.097  0.0085  1.2057  0.6014
 9308TIP3    H249416   1.530   0.377   1.085 -0.6028  1.0147 -1.4847
 9309TIP3   OH249417   5.373   6.332   1.127  0.9787  0.3215  0.0496
 9309TIP3    H149418   5.343   6.248   1.093 -1.5816  0.3836  1.9962
 9309TIP3    H249419   5.389   6.316   1.220  1.3521  1.7648  0.2458
 9310TIP3   OH249420   4.388   4.215  13.899  0.2397  0.1563 -0.1729
 9310TIP3    H149421   4.304   4.174  13.878  0.9421 -1.1496 -0.4968
 9310TIP3    H249422   4.397   4.205  13.994  0.4802 -0.5901 -0.2716
 9311TIP3   OH249423   2.259   5.764  11.902  0.2052 -0.1202  0.3735
 9311TIP3    H149424   2.306   5.748  11.820  1.1341 -0.8005  1.0218
 9311TIP3    H249425   2.180   5.811  11.876  0.9516  0.5087 -0.8106
 9312TIP3   OH249426   3.637   3.705  12.200 -0.1010  0.1374  0.3101
 9312TIP3    H149427   3.593   3.620  12.204 -0.9267  0.5438 -0.0489
 9312TIP3    H249428   3.677   3.708  12.113  1.6000 -0.6927  1.0338
 9313TIP3   OH249429   5.470   5.362  11.401 -0.1577  0.0233 -0.5962
 9313TIP3    H149430   5.425   5.405  11.328 -1.0894  2.1898  1.2048
 9313TIP3    H249431   5.554   5.406  11.407  0.0011 -0.2927 -0.5007
 9314TIP3   OH249432   2.522   2.142  12.720  0.6536 -0.5151 -0.6214
 9314TIP3    H149433   2.529   2.168  12.812  0.9524 -1.3673 -0.3951
 9314TIP3    H249434   2.448   2.192  12.686  0.0160 -0.8252  0.3028
 9315TIP3   OH249435   5.627   5.227  14.422 -0.2222  0.2574  0.0985
 9315TIP3    H149436   5.656   5.228  14.331  0.0270 -1.0435  0.1502
 9315TIP3    H249437   5.674   5.299  14.464  1.0652 -0.3011 -0.3764
 9316TIP3   OH249438   4.114   0.473  12.529  0.2241  0.0343  0.6495
 9316TIP3    H149439   4.085   0.437  12.445  0.4965  0.2292  0.4714
 9316TIP3    H249440   4.193   0.423  12.550  1.6236  1.7374 -0.4781
 9317TIP3   OH249441   2.844   5.407  15.869  0.5009  0.1343 -0.7141
 9317TIP3    H149442   2.779   5.471  15.898 -1.6207 -1.8015 -1.0396
 9317TIP3    H249443   2.897   5.391  15.947 -0.3432  0.6471 -0.0153
 9318TIP3   OH249444   4.141   0.944  11.630  0.2444 -0.2979 -0.0258
 9318TIP3    H149445   4.222   0.949  11.580  0.1383  1.1415 -0.0710
 9318TIP3    H249446   4.087   1.014  11.594 -0.0012  0.4751  1.8296
 9319TIP3   OH249447   2.516   1.891   0.890  0.4965 -0.0852 -0.3980
 9319TIP3    H149448   2.581   1.821   0.892  1.0453  0.4552  1.0906
 9319TIP3    H249449   2.433   1.846   0.909  1.0771 -0.1233  2.3090
 9320TIP3   OH249450   5.134   2.524  12.168  0.4873  0.1647 -0.2315
 9320TIP3    H149451   5.103   2.533  12.078  0.5814  1.2274 -0.1680
 9320TIP3    H249452   5.056   2.502  12.219  0.3743 -0.0968 -0.5196
 9321TIP3   OH249453   3.046   3.786   6.146  0.1334 -0.5585  0.0459
 9321TIP3    H149454   3.055   3.806   6.052  0.1604  0.5071  0.2737
 9321TIP3    H249455   2.956   3.757   6.156 -0.4591  1.2534  0.0378
 9322TIP3   OH249456   6.677   4.579   0.634 -0.1518 -0.4367 -0.5701
 9322TIP3    H149457   6.754   4.636   0.645 -0.3075 -0.1291 -1.0334
 9322TIP3    H249458   6.627   4.590   0.714  0.4785 -0.9246 -0.1069
 9323TIP3   OH249459   1.302   2.030  11.293  0.5288 -0.3573  0.5351
 9323TIP3    H149460   1.281   1.983  11.212 -0.1251 -0.4591  0.7599
 9323TIP3    H249461   1.392   2.060  11.280  0.1146  0.4350 -0.6166
 9324TIP3   OH249462   2.195   0.004   5.567  0.3055 -0.6914 -0.3536
 9324TIP3    H149463   2.143  -0.019   5.644 -1.0078  2.3963 -0.2614
 9324TIP3    H249464   2.276   0.042   5.602 -0.0159  0.1261 -0.4892
 9325TIP3   OH249465   0.229   3.611  13.521 -0.1741  0.3681 -0.1147
 9325TIP3    H149466   0.249   3.642  13.610 -0.9540  0.0996  0.1524
 9325TIP3    H249467   0.148   3.561  13.530  0.1408 -0.2868 -0.8539
 9326TIP3   OH249468   1.338   2.068   4.032  0.5233 -0.0759 -0.0735
 9326TIP3    H149469   1.271   2.050   3.967 -0.2176 -1.1490  0.9775
 9326TIP3    H249470   1.304   2.141   4.083  1.1699  0.8636 -0.9565
 9327TIP3   OH249471   1.581   0.530  14.352 -0.1013  0.0101  0.7277
 9327TIP3    H149472   1.597   0.621  14.378 -0.4293 -0.3765  2.3057
 9327TIP3    H249473   1.562   0.485  14.433 -0.8337 -1.2997 -0.1585
 9328TIP3   OH249474   1.064   5.975   5.808  0.2110  0.0398 -0.4394
 9328TIP3    H149475   1.064   5.931   5.892  1.3247  0.4058 -0.2367
 9328TIP3    H249476   0.972   5.980   5.783 -0.2644  1.3832  1.5213
 9329TIP3   OH249477   3.186   5.920   5.908  0.2079  0.7864 -0.2632
 9329TIP3    H149478   3.249   5.975   5.954 -0.0692  0.4097  0.5866
 9329TIP3    H249479   3.106   5.926   5.960  0.5047 -1.3234  0.5086
 9330TIP3   OH249480   5.151   1.850   1.949  0.2766 -0.6907  0.1261
 9330TIP3    H149481   5.080   1.892   1.998  0.7893  0.5875 -0.2098
 9330TIP3    H249482   5.225   1.911   1.956  1.0021 -1.4837 -0.4658
 9331TIP3   OH249483   3.975   5.783   3.804 -0.0983  0.0447 -0.0147
 9331TIP3    H149484   4.058   5.818   3.837 -0.4149 -0.6970  1.6313
 9331TIP3    H249485   3.914   5.857   3.810  0.2989  0.4196 -0.6393
 9332TIP3   OH249486   4.575   2.698  12.962 -0.6315 -0.2978 -0.1654
 9332TIP3    H149487   4.624   2.615  12.962 -1.8561 -1.0297 -0.6411
 9332TIP3    H249488   4.486   2.673  12.987 -0.9271  0.9382  0.0508
 9333TIP3   OH249489   5.087   3.269  15.477  0.3228  0.0627  0.0090
 9333TIP3    H149490   5.072   3.328  15.552  0.4346 -0.7283  0.6601
 9333TIP3    H249491   5.072   3.324  15.400  0.4363  0.9495  0.6117
 9334TIP3   OH249492   2.164   4.288  11.828 -0.0762  0.3414 -0.2589
 9334TIP3    H149493   2.111   4.361  11.796  0.3956  1.5294  1.5976
 9334TIP3    H249494   2.230   4.329  11.884 -0.4505 -1.5827  1.6762
 9335TIP3   OH249495   5.096   4.405   5.897  0.1402 -0.5756  0.0319
 9335TIP3    H149496   5.058   4.380   5.981  0.7949  0.5386  0.6568
 9335TIP3    H249497   5.028   4.458   5.855  0.5669  0.5068  0.6904
 9336TIP3   OH249498   3.684   0.479   6.732  1.1345  0.3692  0.4377
 9336TIP3    H149499   3.702   0.502   6.823 -1.3596  1.2485  0.7484
 9336TIP3    H249500   3.613   0.415   6.737  2.2780 -1.0264 -0.8155
 9337TIP3   OH249501   6.291   0.286  13.005  0.2219 -0.4959  0.2102
 9337TIP3    H149502   6.275   0.373  13.042  3.1468 -0.3410  1.2908
 9337TIP3    H249503   6.205   0.254  12.979 -1.2028  1.7593  1.9666
 9338TIP3   OH249504   0.646   1.562   2.596  0.2471 -0.8076 -0.5398
 9338TIP3    H149505   0.687   1.644   2.624  2.0667 -1.6476 -0.6671
 9338TIP3    H249506   0.564   1.589   2.555  0.4164  0.8789  0.1953
 9339TIP3   OH249507   3.672   6.451   4.751 -0.1040  0.0579  0.2795
 9339TIP3    H149508   3.703   6.396   4.679 -1.6168 -0.0094 -0.3311
 9339TIP3    H249509   3.612   6.396   4.801  2.0057 -0.3586  2.4531
 9340TIP3   OH249510   2.004   5.676  11.968 -0.5510  0.0766  0.1374
 9340TIP3    H149511   1.935   5.740  11.950 -0.9718 -0.1963  0.7350
 9340TIP3    H249512   2.085   5.725  11.963 -0.8104  0.4571 -0.3259
 9341TIP3   OH249513   3.470   4.171   2.275 -0.1566  0.0441  0.6651
 9341TIP3    H149514   3.473   4.092   2.220 -0.5167  0.9231 -0.6246
 9341TIP3    H249515   3.554   4.214   2.259 -0.6743  0.8207  0.0274
 9342TIP3   OH249516   1.689   4.843   3.729  0.2321 -0.9274  0.2719
 9342TIP3    H149517   1.626   4.775   3.704 -1.0764  0.2882  0.2677
 9342TIP3    H249518   1.656   4.878   3.811  2.1511 -1.8521  1.4906
 9343TIP3   OH249519   2.606   1.327  11.991  0.5150  0.4144  0.2930
 9343TIP3    H149520   2.528   1.333  12.046  0.3197  0.5338 -0.0030
 9343TIP3    H249521   2.585   1.376  11.912  0.1564 -1.2564 -0.6526
 9344TIP3   OH249522   2.658   4.956  17.031 -0.2350 -0.5245  0.1030
 9344TIP3    H149523   2.649   5.042  17.072 -0.8202 -1.3826  1.8367
 9344TIP3    H249524   2.734   4.916  17.074 -0.2569 -1.0698 -0.3450
 9345TIP3   OH249525   6.182   2.230   4.708  0.1290 -0.1524 -0.5224
 9345TIP3    H149526   6.209   2.245   4.799 -1.3678  0.4141 -0.1718
 9345TIP3    H249527   6.263   2.242   4.657  0.8073  0.3085  0.6391
 9346TIP3   OH249528   4.663   5.707   2.714  0.4017 -0.2879 -0.1998
 9346TIP3    H149529   4.740   5.730   2.662 -0.3180 -1.1639 -1.6853
 9346TIP3    H249530   4.611   5.787   2.717  1.4314  0.3674  0.9758
 9347TIP3   OH249531   6.585   2.706  14.844 -0.3368  0.4384  0.3285
 9347TIP3    H149532   6.549   2.743  14.924  0.0100  1.4562  0.0201
 9347TIP3    H249533   6.510   2.703  14.784 -0.5482 -0.1268  0.6142
 9348TIP3   OH249534   3.405   4.019  13.524  0.2114  0.3307  0.0411
 9348TIP3    H149535   3.445   3.978  13.447  2.0947 -1.4080  1.9065
 9348TIP3    H249536   3.342   3.954  13.556  0.6858  0.3316  0.9879
 9349TIP3   OH249537   0.984   4.991   6.066 -0.2179  0.1606 -0.2928
 9349TIP3    H149538   0.946   4.965   6.150  0.6732 -0.3788 -0.0511
 9349TIP3    H249539   0.910   4.995   6.006 -0.8006  0.1443  0.4260
 9350TIP3   OH249540   5.239   0.098  15.531  0.5924 -0.4026 -0.2834
 9350TIP3    H149541   5.189   0.118  15.452 -1.1546 -1.1549  0.6048
 9350TIP3    H249542   5.255   0.004  15.527 -2.0895 -1.0087  1.6644
 9351TIP3   OH249543   2.756   6.679   5.898 -0.0786  0.6236 -0.0513
 9351TIP3    H149544   2.815   6.749   5.927  0.3521 -0.1738  1.0242
 9351TIP3    H249545   2.746   6.693   5.804  0.8974  1.4621 -0.0320
 9352TIP3   OH249546   5.386   0.825  15.064  0.4256  0.0414 -0.1333
 9352TIP3    H149547   5.293   0.839  15.079  0.1406 -1.0466 -0.8514
 9352TIP3    H249548   5.412   0.896  15.006 -0.2571 -0.4220 -1.0170
 9353TIP3   OH249549   5.288   3.864  12.228  0.1917  0.2617 -0.1107
 9353TIP3    H149550   5.279   3.807  12.304 -0.7166 -0.1149 -0.4880
 9353TIP3    H249551   5.297   3.804  12.154 -2.5632  0.5479 -0.7317
 9354TIP3   OH249552   4.257   5.931  10.630  0.1995 -0.5374  0.1460
 9354TIP3    H149553   4.316   5.934  10.555 -2.2234 -0.7340 -1.8137
 9354TIP3    H249554   4.234   6.023  10.646  0.0732 -0.5689  0.1425
 9355TIP3   OH249555   1.106   2.514   4.323 -0.2519 -0.3531  0.6181
 9355TIP3    H149556   1.200   2.527   4.333  0.2159 -2.9161  0.0699
 9355TIP3    H249557   1.098   2.435   4.269 -2.7190  1.2878 -1.5742
 9356TIP3   OH249558   1.934   4.438   2.275  0.6265 -0.0549 -0.3854
 9356TIP3    H149559   1.952   4.381   2.201  1.3973 -1.3749  0.8036
 9356TIP3    H249560   1.966   4.524   2.248 -1.4083  0.0834 -2.5628
 9357TIP3   OH249561   3.615   0.839  13.991 -0.1075 -0.2469  0.2556
 9357TIP3    H149562   3.568   0.757  14.003 -0.3954 -0.2802 -1.0886
 9357TIP3    H249563   3.708   0.815  14.001 -0.2683 -0.4638  1.3036
 9358TIP3   OH249564   6.635   4.436  16.928  0.1047 -0.5831  0.4100
 9358TIP3    H149565   6.609   4.509  16.873  2.3512  0.8618  1.1788
 9358TIP3    H249566   6.572   4.367  16.909  0.6670 -0.0394 -3.7171
 9359TIP3   OH249567   1.367   3.785   1.170  0.3142 -0.1499 -0.1662
 9359TIP3    H149568   1.298   3.821   1.225 -0.0203  0.3473 -0.9025
 9359TIP3    H249569   1.321   3.749   1.094  0.9277  0.8328 -1.0100
 9360TIP3   OH249570   5.616   5.266   4.112 -0.5302 -0.6551 -0.4559
 9360TIP3    H149571   5.558   5.337   4.139 -2.0059 -1.4555 -1.4243
 9360TIP3    H249572   5.704   5.300   4.128 -1.2482  0.5202  1.2041
 9361TIP3   OH249573   4.504   2.060   5.873  0.2655  0.2073 -0.0246
 9361TIP3    H149574   4.460   1.975   5.884 -0.0196  0.3950  0.2835
 9361TIP3    H249575   4.479   2.088   5.784  0.4688 -0.0941 -0.1772
 9362TIP3   OH249576   2.277   4.373   5.622  0.0435  0.2204  0.0177
 9362TIP3    H149577   2.273   4.381   5.526  0.4136  1.6191  0.1083
 9362TIP3    H249578   2.344   4.435   5.648 -0.4668  0.2602  1.2515
 9363TIP3   OH249579   2.228   2.529  13.631  0.4280 -0.2122 -0.0791
 9363TIP3    H149580   2.229   2.455  13.570 -0.7246  0.3371 -0.7848
 9363TIP3    H249581   2.310   2.521  13.679  0.8929 -1.2360 -1.0058
 9364TIP3   OH249582   1.908   0.192   3.354 -0.6253  0.2225 -0.1272
 9364TIP3    H149583   1.830   0.142   3.330 -1.5763  2.0136 -0.8452
 9364TIP3    H249584   1.873   0.269   3.398  0.8164  0.4011  0.7142
 9365TIP3   OH249585   3.337   0.950   6.090 -0.4438  0.1174  0.3134
 9365TIP3    H149586   3.358   1.026   6.034  0.1314 -0.8701 -0.8414
 9365TIP3    H249587   3.377   0.876   6.045 -1.7245 -1.0024  0.9958
 9366TIP3   OH249588   2.855   0.062  14.614 -0.1279 -0.3279  0.9179
 9366TIP3    H149589   2.936   0.013  14.599  0.5689  0.4723  1.9926
 9366TIP3    H249590   2.884   0.143  14.657 -1.3915  0.4419  0.3403
 9367TIP3   OH249591   2.561   6.081   2.657  0.1668  0.0199  0.1901
 9367TIP3    H149592   2.614   6.028   2.717 -0.0226  0.0529  0.3860
 9367TIP3    H249593   2.582   6.172   2.679  1.0441  0.0316 -0.6336
 9368TIP3   OH249594   4.411   1.132  12.981 -0.0589  0.6648  0.3417
 9368TIP3    H149595   4.494   1.097  12.950 -0.6627  0.0943 -0.6523
 9368TIP3    H249596   4.369   1.060  13.027 -0.3896  0.6892  0.0843
 9369TIP3   OH249597   1.146   5.051   2.884  0.2073 -0.0856  0.1949
 9369TIP3    H149598   1.239   5.042   2.864  0.0688 -1.1535 -0.0137
 9369TIP3    H249599   1.103   5.046   2.798 -0.1610 -1.3796  0.4473
 9370TIP3   OH249600   0.595   4.762   4.027  0.2685 -0.2413  0.5973
 9370TIP3    H149601   0.662   4.695   4.017  0.5766  0.2146 -0.5393
 9370TIP3    H249602   0.523   4.732   3.971  0.2106  0.1140  0.4791
 9371TIP3   OH249603   3.519   6.465  14.734 -0.0621  0.1844 -0.0000
 9371TIP3    H149604   3.525   6.455  14.639 -0.7460 -1.0289  0.0704
 9371TIP3    H249605   3.599   6.512  14.759 -0.1128  0.9309 -1.2273
 9372TIP3   OH249606   5.642   6.486  12.557  0.7771 -0.0256 -0.1226
 9372TIP3    H149607   5.616   6.534  12.636  1.5534  0.0691  0.0736
 9372TIP3    H249608   5.738   6.487  12.558  0.8184  1.7088 -2.1092
 9373TIP3   OH249609   0.113   2.531   2.776 -0.7559  0.1503 -0.0656
 9373TIP3    H149610   0.055   2.580   2.835 -1.4033  0.3747 -0.8805
 9373TIP3    H249611   0.103   2.439   2.803 -1.0344  0.2537  0.1818
 9374TIP3   OH249612   5.363   1.138   1.190 -0.2903  0.2765 -0.0386
 9374TIP3    H149613   5.364   1.110   1.282 -0.5510  1.0419  0.2036
 9374TIP3    H249614   5.403   1.225   1.191  0.5025 -0.0695 -0.7808
 9375TIP3   OH249615   6.052   3.808   1.190 -0.1292 -0.4003 -0.3163
 9375TIP3    H149616   6.088   3.751   1.257 -0.5791 -2.1039 -1.4982
 9375TIP3    H249617   5.957   3.792   1.192 -0.1188 -0.6901 -1.5455
 9376TIP3   OH249618   2.365   3.152   1.411 -0.2850 -0.8486 -0.0191
 9376TIP3    H149619   2.286   3.183   1.366  0.1941 -2.7128 -2.2272
 9376TIP3    H249620   2.434   3.212   1.381 -0.3623 -0.8227 -0.1470
 9377TIP3   OH249621   5.971   4.180  10.729  0.0374  0.0954  0.1845
 9377TIP3    H149622   6.052   4.191  10.778 -1.1254  2.3752  1.6907
 9377TIP3    H249623   5.950   4.268  10.698 -2.7200 -0.1373  1.2567
 9378TIP3   OH249624   0.550   5.277   4.617 -0.6322 -0.5908 -1.0331
 9378TIP3    H149625   0.542   5.355   4.671  0.0041 -0.6319 -0.8678
 9378TIP3    H249626   0.463   5.236   4.620 -1.1831  0.5164 -1.7639
 9379TIP3   OH249627   1.540   3.976  12.000  0.3700  0.1484 -0.0043
 9379TIP3    H149628   1.568   3.960  11.910  0.5159 -0.9457  0.2326
 9379TIP3    H249629   1.621   4.000  12.046  0.5037 -0.5047  0.1070
 9380TIP3   OH249630   1.312   2.700   0.514 -0.2603  0.5697 -0.1251
 9380TIP3    H149631   1.223   2.732   0.496  0.0524  0.6714 -1.5952
 9380TIP3    H249632   1.317   2.697   0.609 -2.8511 -2.2861  0.0020
 9381TIP3   OH249633   1.582   0.085  15.081  0.8264 -0.2582 -0.4182
 9381TIP3    H149634   1.675   0.076  15.104  0.8647  0.7068 -0.1791
 9381TIP3    H249635   1.546  -0.003  15.092  1.5491 -0.4772  0.2220
 9382TIP3   OH249636   5.384   6.570  17.205  0.2911  0.3325  0.1246
 9382TIP3    H149637   5.403   6.661  17.184 -0.4346 -0.1633 -2.8474
 9382TIP3    H249638   5.291   6.559  17.185  0.4714 -1.1836  0.0650
 9383TIP3   OH249639   4.866   6.326  10.904  0.3168  0.3744  0.2158
 9383TIP3    H149640   4.796   6.277  10.947 -2.9620  2.0504 -2.8999
 9383TIP3    H249641   4.927   6.259  10.873 -0.2702 -1.1955  2.3628
 9384TIP3   OH249642   0.215   0.256  16.570 -0.2806  0.0164  0.1957
 9384TIP3    H149643   0.258   0.335  16.539  0.6053 -0.7508 -0.5780
 9384TIP3    H249644   0.122   0.272  16.557 -0.0401  0.4813 -1.0254
 9385TIP3   OH249645   0.290   1.696   2.787  0.4238  0.0245  0.0502
 9385TIP3    H149646   0.229   1.651   2.729  1.5722 -1.0827 -0.3296
 9385TIP3    H249647   0.292   1.786   2.755 -0.9998  0.0838  0.0740
 9386TIP3   OH249648   1.996   5.058  12.030 -0.1116  0.1734  0.0591
 9386TIP3    H149649   2.014   5.089  11.941  0.6745  0.0847  0.1844
 9386TIP3    H249650   2.009   4.964  12.026 -1.3789 -0.0137 -0.0414
 9387TIP3   OH249651   6.551   5.682  15.595 -0.3243 -0.0801  0.1567
 9387TIP3    H149652   6.627   5.658  15.540 -0.1786  0.3032  0.1874
 9387TIP3    H249653   6.581   5.758  15.645 -0.5370 -0.2894  0.6028
 9388TIP3   OH249654   6.226   0.189  11.500 -0.0234  0.2693 -0.3847
 9388TIP3    H149655   6.284   0.247  11.550 -2.0124  0.5519  1.7041
 9388TIP3    H249656   6.193   0.244  11.429  0.4997  0.7712 -0.2522
 9389TIP3   OH249657   6.058   1.309  13.976 -0.4055 -0.6519 -0.1386
 9389TIP3    H149658   6.039   1.216  13.963  0.2054 -0.9350  0.9624
 9389TIP3    H249659   6.152   1.317  13.959 -0.2077 -0.4759  0.9845
 9390TIP3   OH249660   3.163   6.626  12.445 -0.5750  0.1168  0.5079
 9390TIP3    H149661   3.252   6.632  12.480 -0.3730 -0.4809  0.0975
 9390TIP3    H249662   3.167   6.668  12.359 -0.2145 -1.6980 -0.3845
 9391TIP3   OH249663   3.197   3.836   0.856 -0.5056 -0.0559 -0.7605
 9391TIP3    H149664   3.136   3.763   0.845  0.3851 -0.8925 -0.1157
 9391TIP3    H249665   3.140   3.913   0.860 -1.5033 -0.7997 -0.4913
 9392TIP3   OH249666   1.143   4.177  13.131 -0.1846 -0.2147 -0.3066
 9392TIP3    H149667   1.234   4.157  13.153  0.1234  0.2413 -1.1155
 9392TIP3    H249668   1.097   4.177  13.215  0.6720  0.1074  0.1721
 9393TIP3   OH249669   6.028   0.884   4.184 -0.2946  0.2077 -0.3516
 9393TIP3    H149670   6.011   0.794   4.215  1.5234  0.3675  1.1835
 9393TIP3    H249671   6.086   0.872   4.109  0.0657  0.1007 -0.0590
 9394TIP3   OH249672   2.119   5.635  16.705  0.1689  0.1416  0.2313
 9394TIP3    H149673   2.051   5.639  16.638 -0.3875  0.1700  0.7919
 9394TIP3    H249674   2.100   5.710  16.762  1.0501  0.5216  0.0330
 9395TIP3   OH249675   1.451   4.704  14.832 -0.0173  1.3906  0.2231
 9395TIP3    H149676   1.358   4.688  14.849  0.0653 -0.1176 -0.6970
 9395TIP3    H249677   1.459   4.698  14.737  1.3893 -0.6030  0.4426
 9396TIP3   OH249678   1.217   1.765   0.691 -0.5914  0.1290  0.6039
 9396TIP3    H149679   1.310   1.786   0.684 -0.3335 -0.7650  1.2999
 9396TIP3    H249680   1.185   1.767   0.601  0.3995 -0.9325  0.2255
 9397TIP3   OH249681   0.292   0.698   2.965 -0.0111 -0.4272  0.0951
 9397TIP3    H149682   0.262   0.670   3.052 -1.1632  0.0466 -0.1345
 9397TIP3    H249683   0.363   0.759   2.982  0.6297 -1.3291  0.6736
 9398TIP3   OH249684   2.715   1.109   2.261  0.1830 -0.3354 -0.0869
 9398TIP3    H149685   2.794   1.086   2.310 -0.4947 -1.7104  0.4168
 9398TIP3    H249686   2.677   1.024   2.236 -1.5376  0.2708  0.3579
 9399TIP3   OH249687   1.895   4.840  16.517  0.5276  0.2188 -0.4211
 9399TIP3    H149688   1.857   4.833  16.429  0.1923  3.2652 -0.5967
 9399TIP3    H249689   1.988   4.821  16.505  0.5789  1.1390 -1.5389
 9400TIP3   OH249690   3.543   5.750  12.251 -0.1203 -0.1769 -0.4409
 9400TIP3    H149691   3.505   5.756  12.339  0.5954  0.2076 -0.1457
 9400TIP3    H249692   3.528   5.837  12.212  1.5259  0.4076  0.1474
 9401TIP3   OH249693   5.665   0.217   4.303 -0.0594  0.0964  0.6332
 9401TIP3    H149694   5.573   0.242   4.299  0.2826  1.3188 -0.0969
 9401TIP3    H249695   5.713   0.299   4.288  1.1239 -0.9062 -1.2148
 9402TIP3   OH249696   6.257   1.306  10.938  0.2842 -0.0390  1.2108
 9402TIP3    H149697   6.191   1.273  10.999 -1.7901  3.2966  0.8760
 9402TIP3    H249698   6.286   1.388  10.977  2.6807 -0.4068  0.2356
 9403TIP3   OH249699   0.434   2.320   1.764  0.0880 -0.2487  0.2793
 9403TIP3    H149700   0.435   2.416   1.765  0.4549 -0.2651  1.5613
 9403TIP3    H249701   0.484   2.297   1.685  1.1811  0.5964  0.7096
 9404TIP3   OH249702   3.782   1.092  11.048 -0.0269 -0.0780  0.1314
 9404TIP3    H149703   3.709   1.147  11.078  0.4420  1.5027 -1.5650
 9404TIP3    H249704   3.740   1.018  11.005 -0.6549 -0.2235  0.9919
 9405TIP3   OH249705   4.288   5.830  14.145  0.5463  0.0566  0.1466
 9405TIP3    H149706   4.198   5.854  14.120  0.8977  0.8661 -0.3705
 9405TIP3    H249707   4.316   5.902  14.202  0.3637 -0.9114  1.4785
 9406TIP3   OH249708   0.605   6.506  13.729 -0.5739  0.4117 -0.6419
 9406TIP3    H149709   0.510   6.522  13.728 -0.3165  2.0800 -2.7282
 9406TIP3    H249710   0.643   6.587  13.694  1.6416 -0.2227  0.1975
 9407TIP3   OH249711   1.721   4.166   1.728 -0.0536  0.5866 -0.0043
 9407TIP3    H149712   1.639   4.116   1.721  0.6782 -0.7075  0.5417
 9407TIP3    H249713   1.773   4.118   1.792  0.6482  2.1035  0.5841
 9408TIP3   OH249714   5.979   2.047   0.383  0.3570  0.4708  0.4860
 9408TIP3    H149715   5.884   2.057   0.380  0.2019 -1.0082 -0.2548
 9408TIP3    H249716   6.001   2.049   0.476 -0.3089  1.5157  0.6294
 9409TIP3   OH249717   6.121   3.192  14.667  0.8073  0.1822  0.0447
 9409TIP3    H149718   6.082   3.215  14.751  0.2338 -0.2284 -0.1018
 9409TIP3    H249719   6.068   3.118  14.636  2.9384 -1.7563  0.7963
 9410TIP3   OH249720   1.109   4.085   5.806 -0.1021 -0.0609  0.6976
 9410TIP3    H149721   1.072   4.146   5.742 -0.1740  0.1644  0.9563
 9410TIP3    H249722   1.037   4.064   5.865 -0.2463 -0.8859  0.2426
 9411TIP3   OH249723   1.473   1.025   4.893  0.0861 -0.5337 -0.1137
 9411TIP3    H149724   1.426   1.108   4.889 -0.1102 -0.7032 -1.8344
 9411TIP3    H249725   1.405   0.958   4.884  0.3135 -0.8803  0.6424
 9412TIP3   OH249726   3.689   3.150   1.989  0.2125 -0.3137 -0.2743
 9412TIP3    H149727   3.677   3.059   1.963  2.2636  0.0411 -2.6341
 9412TIP3    H249728   3.631   3.200   1.931 -0.6848 -0.0703  0.8111
 9413TIP3   OH249729   0.530   0.191  16.646 -0.2183 -0.1885 -0.0150
 9413TIP3    H149730   0.534   0.287  16.641 -0.2808 -0.2332 -1.1708
 9413TIP3    H249731   0.456   0.173  16.703 -1.1656  0.4574 -1.0186
 9414TIP3   OH249732   5.851   0.685  12.838 -0.0231 -0.1970  0.0066
 9414TIP3    H149733   5.832   0.775  12.812 -0.9672 -0.6333 -0.8035
 9414TIP3    H249734   5.870   0.639  12.756  0.3433 -0.7636  0.4051
 9415TIP3   OH249735   4.726   5.794   4.318  0.6028 -0.2473  0.1567
 9415TIP3    H149736   4.819   5.798   4.340  0.1503 -0.9049  2.2647
 9415TIP3    H249737   4.681   5.813   4.400 -1.1478 -2.2416 -0.3062
 9416TIP3   OH249738   5.401   6.680   5.412  0.1953 -0.4386 -0.1742
 9416TIP3    H149739   5.388   6.586   5.398 -1.7539 -0.5433  1.9770
 9416TIP3    H249740   5.394   6.691   5.507  0.9300  1.8343 -0.3471
 9417TIP3   OH249741   4.711   3.716  13.278  0.1785 -0.0246 -0.0458
 9417TIP3    H149742   4.700   3.688  13.188 -0.5908 -0.0271  0.0445
 9417TIP3    H249743   4.686   3.640  13.330  0.5577 -0.0024  0.1725
 9418TIP3   OH249744   0.761   1.770   2.396  0.1141 -0.3097  0.1922
 9418TIP3    H149745   0.676   1.795   2.359 -0.1862 -1.1791  0.2667
 9418TIP3    H249746   0.821   1.772   2.323 -0.2092 -0.7709 -0.0908
 9419TIP3   OH249747   3.198   0.979   4.983  0.2923  0.1212 -0.3140
 9419TIP3    H149748   3.242   0.920   5.045 -1.8289 -1.9491 -0.7596
 9419TIP3    H249749   3.233   0.955   4.897  1.6445  1.5656 -0.1974
 9420TIP3   OH249750   1.055   0.769   1.711  0.4144  0.6068 -0.1296
 9420TIP3    H149751   1.133   0.734   1.668  0.3692 -0.5052  0.6666
 9420TIP3    H249752   1.079   0.858   1.735  1.4814  0.2436  0.1856
 9421TIP3   OH249753   6.366   1.286   3.698 -0.7990 -0.0148  0.4250
 9421TIP3    H149754   6.318   1.231   3.760  0.2613 -1.3257  0.1161
 9421TIP3    H249755   6.437   1.324   3.749 -0.2121 -0.7139  0.1489
 9422TIP3   OH249756   4.733   5.608   3.242 -0.8304  0.0988  0.2814
 9422TIP3    H149757   4.801   5.563   3.292  0.2028 -0.9404 -2.0126
 9422TIP3    H249758   4.681   5.538   3.203 -0.9667  0.8758 -0.9588
 9423TIP3   OH249759   3.947   4.112   1.951 -0.4195  0.1207 -0.0048
 9423TIP3    H149760   4.025   4.075   1.994 -0.2974  0.0737 -0.2642
 9423TIP3    H249761   3.901   4.035   1.916 -0.6076  0.1445  0.1871
 9424TIP3   OH249762   1.141   3.424  13.714  0.2956 -0.0717  0.0761
 9424TIP3    H149763   1.052   3.421  13.750 -0.1355  0.9971 -0.8881
 9424TIP3    H249764   1.157   3.334  13.684  0.1629 -0.6596  1.6983
 9425TIP3   OH249765   0.685   1.337   2.017  0.3611  1.1792  0.6985
 9425TIP3    H149766   0.716   1.380   2.097  0.4227  1.1988  0.6642
 9425TIP3    H249767   0.762   1.290   1.984  0.1366  0.5673  1.0527
 9426TIP3   OH249768   4.565   5.042  14.423 -0.3571  0.4080 -0.3530
 9426TIP3    H149769   4.529   5.051  14.511 -0.9338 -0.3361 -0.5106
 9426TIP3    H249770   4.632   5.111  14.417  1.0786 -0.7891  1.3571
 9427TIP3   OH249771   1.066   6.261   2.967 -0.9745 -0.2620  0.4867
 9427TIP3    H149772   1.014   6.303   3.036  0.6515 -0.9284  2.1263
 9427TIP3    H249773   1.101   6.334   2.915 -0.5383  0.3092  1.5828
 9428TIP3   OH249774   3.949   1.638   1.641 -0.4596 -0.5205  0.2508
 9428TIP3    H149775   3.968   1.685   1.560  1.5458  0.2963  1.1662
 9428TIP3    H249776   3.924   1.550   1.612 -1.4989  0.2763 -1.3285
 9429TIP3   OH249777   0.678   5.756  10.605  0.1060  0.3386 -0.1071
 9429TIP3    H149778   0.689   5.662  10.614 -0.9931 -0.0248 -2.1868
 9429TIP3    H249779   0.651   5.769  10.514 -0.1447  2.6210  0.2449
 9430TIP3   OH249780   5.540   3.385   6.437 -0.0077 -0.3558  0.7635
 9430TIP3    H149781   5.458   3.339   6.416  0.3745 -0.8281  0.2962
 9430TIP3    H249782   5.605   3.316   6.448  0.2338 -0.0052  1.5982
 9431TIP3   OH249783   4.118   3.824  17.079 -0.0908 -0.1766 -0.0932
 9431TIP3    H149784   4.037   3.824  17.028 -0.8807  0.4380  1.1494
 9431TIP3    H249785   4.185   3.854  17.018 -0.7734 -0.8064 -1.1652
 9432TIP3   OH249786   3.255   6.104  12.396  0.1853  0.8904 -0.1479
 9432TIP3    H149787   3.344   6.110  12.361 -0.3288  0.0455 -1.6734
 9432TIP3    H249788   3.247   6.178  12.456  1.7647  1.2211 -0.3271
 9433TIP3   OH249789   4.955   5.122  14.316 -0.0882 -0.0197  0.4569
 9433TIP3    H149790   4.922   5.032  14.323 -0.6680  0.1323 -0.3509
 9433TIP3    H249791   4.883   5.176  14.348 -0.5186  0.2913 -1.0235
 9434TIP3   OH249792   6.311   0.139   0.456  0.2790 -0.1875  0.4836
 9434TIP3    H149793   6.362   0.220   0.458  0.3857 -0.2130 -0.7603
 9434TIP3    H249794   6.324   0.100   0.543  1.3291  0.4510  0.6221
 9435TIP3   OH249795   4.393   3.019   1.025 -0.3916 -0.3117  0.0851
 9435TIP3    H149796   4.344   2.986   1.100 -0.4000  0.8874  0.6222
 9435TIP3    H249797   4.472   3.058   1.064  0.1299 -0.6442 -0.6228
 9436TIP3   OH249798   4.870   0.536  14.598  0.6116  0.5595 -0.1466
 9436TIP3    H149799   4.860   0.535  14.503 -0.6064  2.4746 -0.0500
 9436TIP3    H249800   4.901   0.448  14.619  1.2729  0.2369 -2.3465
 9437TIP3   OH249801   2.871   2.659   1.953 -0.4488  0.3508 -0.4613
 9437TIP3    H149802   2.852   2.629   2.042 -0.5232  0.9299 -0.2766
 9437TIP3    H249803   2.868   2.755   1.959 -0.4926  0.3932 -1.0960
 9438TIP3   OH249804   3.768   1.839   2.267  0.3146  0.1540 -0.3313
 9438TIP3    H149805   3.810   1.755   2.250  0.4843 -0.0816  1.1829
 9438TIP3    H249806   3.686   1.836   2.217  0.5353 -0.7135 -0.6432
 9439TIP3   OH249807   4.971   0.538  16.754  0.2523 -0.3209 -0.5135
 9439TIP3    H149808   5.026   0.599  16.804  1.0760 -1.5081  0.0688
 9439TIP3    H249809   5.017   0.454  16.762 -1.3269 -1.1930 -0.5731
 9440TIP3   OH249810   2.019   0.329   5.576 -0.0783  0.0182  0.1396
 9440TIP3    H149811   2.059   0.283   5.503  1.2272 -0.1573  0.9638
 9440TIP3    H249812   2.088   0.336   5.642 -0.7932  1.5142  0.7625
 9441TIP3   OH249813   3.173   3.689  13.348  0.4002 -0.5434  0.2088
 9441TIP3    H149814   3.249   3.688  13.290  0.5645  0.7867  0.3725
 9441TIP3    H249815   3.097   3.687  13.289  0.5523 -1.4358  0.0320
 9442TIP3   OH249816   5.758   5.856  13.826  0.3689  0.0083  0.0202
 9442TIP3    H149817   5.796   5.797  13.890 -0.4125  0.2300  0.6912
 9442TIP3    H249818   5.678   5.889  13.867  0.4558  1.0343 -0.5954
 9443TIP3   OH249819   1.794   3.023   1.584 -0.1051 -0.6313  0.1319
 9443TIP3    H149820   1.773   3.051   1.494  1.2943  0.0619  0.0171
 9443TIP3    H249821   1.727   3.065   1.638 -0.9843 -1.0876 -0.5784
 9444TIP3   OH249822   6.602   0.670  12.637  0.3341 -0.0604 -0.0927
 9444TIP3    H149823   6.606   0.577  12.614 -2.5019 -0.8314  2.1801
 9444TIP3    H249824   6.549   0.709  12.567  0.3190 -0.4410 -0.2978
 9445TIP3   OH249825   6.092   2.105   1.698 -0.1872 -0.1394 -0.0524
 9445TIP3    H149826   6.001   2.136   1.697  1.0741  4.0128  2.1484
 9445TIP3    H249827   6.111   2.089   1.791  2.7746  3.8924  0.1458
 9446TIP3   OH249828   1.629   0.332   5.805  0.5914 -0.1125  0.2387
 9446TIP3    H149829   1.574   0.259   5.832 -1.2476  0.7504 -1.0350
 9446TIP3    H249830   1.567   0.405   5.794  1.7087  0.4080 -2.9965
 9447TIP3   OH249831   1.941   0.097   2.286  0.0843 -0.6037  0.4939
 9447TIP3    H149832   2.027   0.131   2.264 -1.4436  3.0640 -0.1439
 9447TIP3    H249833   1.937   0.102   2.382  1.8369 -4.2464  0.8630
 9448TIP3   OH249834   1.385   1.399   4.393 -0.0589 -0.2236  0.7184
 9448TIP3    H149835   1.441   1.412   4.317 -1.9541  0.6151 -0.5625
 9448TIP3    H249836   1.411   1.468   4.454 -0.1371  0.5433 -0.1160
 9449TIP3   OH249837   1.780   5.548   5.571  0.2123  0.1551  0.4650
 9449TIP3    H149838   1.777   5.498   5.652 -0.1889 -1.4757 -0.5258
 9449TIP3    H249839   1.832   5.493   5.511  0.5096  1.3311 -0.3816
 9450TIP3   OH249840   1.714   0.942  10.921  0.3366 -0.7106  0.0905
 9450TIP3    H149841   1.791   0.998  10.934 -0.8104  0.9280 -0.0462
 9450TIP3    H249842   1.744   0.873  10.863  1.0721  1.3124 -2.0088
 9451TIP3   OH249843   3.923   6.237  13.463 -0.1162  0.0850 -0.5538
 9451TIP3    H149844   3.957   6.301  13.401  0.3294  0.5850  0.2001
 9451TIP3    H249845   3.999   6.186  13.490  0.1869  1.5667  1.5558
 9452TIP3   OH249846   0.214   6.180   5.576  0.0905 -0.0192  0.5342
 9452TIP3    H149847   0.163   6.233   5.515 -1.6381 -0.9041  1.1969
 9452TIP3    H249848   0.297   6.227   5.584  0.2210  0.3315 -2.1928
 9453TIP3   OH249849   6.441   5.673   2.701 -0.5425 -0.3918 -0.3058
 9453TIP3    H149850   6.462   5.765   2.713  0.3108 -0.4962 -0.9203
 9453TIP3    H249851   6.375   5.672   2.633 -2.1477 -0.0988  1.2132
 9454TIP3   OH249852   3.044   2.169  16.362 -0.1522 -0.2999 -0.0542
 9454TIP3    H149853   3.068   2.111  16.290 -0.4631 -0.7398  0.1957
 9454TIP3    H249854   2.953   2.192  16.345 -0.0414  0.0769 -0.1290
 9455TIP3   OH249855   6.508   1.690  16.089 -0.6651  0.1629  0.7972
 9455TIP3    H149856   6.510   1.697  15.994  3.4300  0.7573  0.8096
 9455TIP3    H249857   6.513   1.780  16.120 -0.3038 -0.0994  1.5208
 9456TIP3   OH249858   2.343   5.507  13.691  0.0536 -0.1911 -0.0749
 9456TIP3    H149859   2.436   5.511  13.670  0.1663 -1.4999  0.1058
 9456TIP3    H249860   2.319   5.596  13.714  0.7650  0.5928 -2.2029
 9457TIP3   OH249861   2.342   0.256  13.038 -0.6603  0.4060  0.5251
 9457TIP3    H149862   2.391   0.316  12.982  0.0261 -0.2994  0.3617
 9457TIP3    H249863   2.335   0.176  12.987 -1.3705  0.2706  0.8361
 9458TIP3   OH249864   1.421   4.772  13.209  0.5145 -0.4847 -0.3515
 9458TIP3    H149865   1.369   4.720  13.270  1.3682 -1.1692 -0.1987
 9458TIP3    H249866   1.418   4.861  13.244 -1.1303 -0.3883 -0.7278
 9459TIP3   OH249867   2.996   6.571   5.445  0.4280  0.4585  0.3392
 9459TIP3    H149868   2.946   6.608   5.518 -0.1043 -1.7840  1.1368
 9459TIP3    H249869   2.990   6.637   5.376  0.4039  2.3311  2.0888
 9460TIP3   OH249870   2.317   1.572  12.122  0.0643 -0.0435 -0.0506
 9460TIP3    H149871   2.314   1.482  12.157 -0.9376  0.3787  1.0055
 9460TIP3    H249872   2.319   1.627  12.200  2.9199  0.8292 -0.6934
 9461TIP3   OH249873   0.267   4.287   3.271 -0.7017 -0.0873  0.3143
 9461TIP3    H149874   0.267   4.352   3.201 -2.7053  0.2387  0.5724
 9461TIP3    H249875   0.354   4.293   3.310 -0.5419  1.7710 -0.2926
 9462TIP3   OH249876   1.753   0.944   1.592  0.2059  0.0795  0.3374
 9462TIP3    H149877   1.849   0.946   1.593  0.2031  0.0391  0.6923
 9462TIP3    H249878   1.728   0.953   1.684 -0.1737  2.5739  0.0376
 9463TIP3   OH249879   4.025   2.566  12.838  0.2309  0.1378 -0.0952
 9463TIP3    H149880   4.034   2.510  12.916 -0.1667  0.1606 -0.0331
 9463TIP3    H249881   3.932   2.587  12.834  0.2215  0.0006 -0.6758
 9464TIP3   OH249882   6.065   5.663   3.559  0.0770  0.0817  0.1011
 9464TIP3    H149883   6.025   5.674   3.473 -0.0317  1.4913  0.3297
 9464TIP3    H249884   5.991   5.648   3.618 -0.2455  3.7515  0.7007
 9465TIP3   OH249885   6.260   2.407  13.528  0.4239 -1.1289 -0.2742
 9465TIP3    H149886   6.175   2.391  13.569 -1.1399  0.6330 -2.7386
 9465TIP3    H249887   6.294   2.319  13.509 -0.2873 -1.8743  1.7927
 9466TIP3   OH249888   4.281   4.379   5.504 -0.1927  0.3957 -0.0254
 9466TIP3    H149889   4.198   4.393   5.459 -0.7661  0.9890  1.2263
 9466TIP3    H249890   4.329   4.461   5.492 -0.6792  0.8641  1.1341
 9467TIP3   OH249891   3.524   4.428   5.006  0.1458 -0.0508 -0.1933
 9467TIP3    H149892   3.472   4.456   5.081 -0.9355  0.5219 -1.1423
 9467TIP3    H249893   3.474   4.356   4.968  0.3196  0.1399 -0.7904
 9468TIP3   OH249894   4.750   4.864   0.086  0.0183  0.4709 -0.0388
 9468TIP3    H149895   4.657   4.869   0.064  0.2870  0.6021 -1.1819
 9468TIP3    H249896   4.766   4.943   0.139 -0.8103 -0.2577  1.3072
 9469TIP3   OH249897   3.546   1.298  14.129 -0.1172  0.0011 -0.1721
 9469TIP3    H149898   3.597   1.277  14.051 -0.4341 -1.8267  0.0744
 9469TIP3    H249899   3.455   1.288  14.100 -0.2182 -1.6856  0.6653
 9470TIP3   OH249900   0.568   4.735  13.982 -0.1952  0.1658 -0.1609
 9470TIP3    H149901   0.549   4.669  13.916 -1.9446 -1.6238  2.0337
 9470TIP3    H249902   0.610   4.687  14.053 -1.3242  1.4031  1.3938
 9471TIP3   OH249903   6.800   5.946   5.934  0.9049  0.6707  0.0376
 9471TIP3    H149904   6.805   5.857   5.971  0.8620  1.2216  1.3808
 9471TIP3    H249905   6.890   5.964   5.904  1.0707  0.4364  0.3835
 9472TIP3   OH249906   2.213   5.774   4.157 -0.1793 -0.2339 -0.2765
 9472TIP3    H149907   2.297   5.814   4.176  0.3398 -0.8685 -1.2024
 9472TIP3    H249908   2.188   5.809   4.072 -1.0945  0.3320  0.2109
 9473TIP3   OH249909   6.216   6.017  11.874 -0.5530 -0.6133 -0.2041
 9473TIP3    H149910   6.275   5.955  11.831  1.2782 -0.6064  2.1487
 9473TIP3    H249911   6.273   6.069  11.930 -2.4826  1.1344  0.2031
 9474TIP3   OH249912   4.728   2.721  14.705  0.8416 -0.4282  0.1353
 9474TIP3    H149913   4.736   2.762  14.619  3.1821  1.3869  1.1786
 9474TIP3    H249914   4.642   2.750  14.736  0.5993  0.1045 -0.9810
 9475TIP3   OH249915   0.179   4.614  11.559 -0.4903 -0.3413 -0.4570
 9475TIP3    H149916   0.239   4.542  11.541 -0.2794 -1.4328  4.1391
 9475TIP3    H249917   0.093   4.582  11.531 -0.3138 -2.2436  1.0808
 9476TIP3   OH249918   3.559   5.691   5.278 -0.0270 -0.5940 -0.3799
 9476TIP3    H149919   3.613   5.620   5.245 -0.2641  0.8355 -4.0601
 9476TIP3    H249920   3.490   5.701   5.212 -1.5638  1.2659  1.4438
 9477TIP3   OH249921   5.829   6.770  16.409  0.5522 -0.2337 -0.3477
 9477TIP3    H149922   5.774   6.728  16.342 -1.3754  1.4297  0.1277
 9477TIP3    H249923   5.889   6.826  16.360  0.1267 -0.1472 -0.7777
 9478TIP3   OH249924   6.176   2.315  12.790  0.2049 -0.3381 -0.4788
 9478TIP3    H149925   6.231   2.393  12.799  0.4050 -0.6790  1.5024
 9478TIP3    H249926   6.091   2.343  12.824  0.2320 -0.9438  0.0784
 9479TIP3   OH249927   0.342   2.210   3.294  0.0087  0.0247  0.1427
 9479TIP3    H149928   0.422   2.228   3.342  0.1462 -1.2534  0.4206
 9479TIP3    H249929   0.271   2.238   3.352  0.2576  1.6531 -0.3247
 9480TIP3   OH249930   1.579   2.142  12.194 -0.1026  0.4064 -0.3495
 9480TIP3    H149931   1.655   2.116  12.246  1.4555 -0.3927 -2.9446
 9480TIP3    H249932   1.583   2.238  12.192 -0.7212  0.5150  1.6930
 9481TIP3   OH249933   4.543   0.249  14.046  0.0826 -0.4715  0.3777
 9481TIP3    H149934   4.506   0.337  14.042  1.1876 -0.0185 -0.1536
 9481TIP3    H249935   4.541   0.227  14.139 -0.4973 -0.0159  0.4795
 9482TIP3   OH249936   2.298   3.955   0.814 -0.1512  0.5670  0.0345
 9482TIP3    H149937   2.207   3.978   0.829 -0.5119 -0.7505 -0.1095
 9482TIP3    H249938   2.333   4.028   0.764 -0.5329  2.1417  1.9820
 9483TIP3   OH249939   2.270   4.796   2.244 -0.3718 -0.5273  0.1802
 9483TIP3    H149940   2.335   4.730   2.220  0.5332  0.2784  0.4123
 9483TIP3    H249941   2.264   4.853   2.168  0.3090  0.2874  0.7351
 9484TIP3   OH249942   4.615   1.910   0.351  0.3180  0.2895 -0.0616
 9484TIP3    H149943   4.621   1.952   0.437 -0.6137 -1.3872  0.8381
 9484TIP3    H249944   4.668   1.832   0.359  0.3581  0.2075 -1.0763
 9485TIP3   OH249945   5.799   0.580   1.964  0.8831  0.4227  0.2378
 9485TIP3    H149946   5.738   0.509   1.985  1.9428 -0.9453 -1.2433
 9485TIP3    H249947   5.831   0.611   2.049  0.8429 -1.2414  0.8616
 9486TIP3   OH249948   4.886   1.408  15.608 -0.0517  0.3437 -0.5130
 9486TIP3    H149949   4.824   1.416  15.680 -0.2936 -0.3398 -0.6496
 9486TIP3    H249950   4.937   1.329  15.628 -0.3935 -0.0816 -1.2983
 9487TIP3   OH249951   4.835   2.007  13.476  0.8259 -0.4210 -0.3988
 9487TIP3    H149952   4.809   1.965  13.394 -0.7967 -1.1676  0.4728
 9487TIP3    H249953   4.830   2.101  13.457  0.3941 -0.5879 -1.1267
 9488TIP3   OH249954   0.849   0.833   1.499  0.3623 -0.1968 -0.3599
 9488TIP3    H149955   0.931   0.838   1.548  1.1549 -0.7045 -1.6013
 9488TIP3    H249956   0.823   0.924   1.485  0.7274 -0.0313  0.0240
 9489TIP3   OH249957   4.409   2.128  12.095  0.6450 -0.1611  0.4527
 9489TIP3    H149958   4.336   2.074  12.063 -0.0886  1.7291 -1.1924
 9489TIP3    H249959   4.463   2.143  12.017  1.8742 -0.1103  1.3052
 9490TIP3   OH249960   5.319   3.868   4.994  0.3660  0.0152  0.1547
 9490TIP3    H149961   5.387   3.802   4.979 -0.3469 -0.4232 -1.1894
 9490TIP3    H249962   5.337   3.936   4.929  0.1753  0.4259  0.5297
 9491TIP3   OH249963   1.584   5.006  13.339  0.3816 -0.0876  0.6866
 9491TIP3    H149964   1.630   5.029  13.259  0.1601 -0.3102  0.4920
 9491TIP3    H249965   1.639   5.039  13.410  0.2498  0.7038  0.4249
 9492TIP3   OH249966   6.064   6.363  13.403 -0.3679 -0.6575 -0.1279
 9492TIP3    H149967   6.149   6.409  13.402 -0.0948 -1.1029  1.1102
 9492TIP3    H249968   6.040   6.354  13.311  0.5072  0.2640 -0.4579
 9493TIP3   OH249969   6.007   0.839   0.789 -0.3623 -0.2697  0.2245
 9493TIP3    H149970   5.983   0.758   0.743 -1.1924 -0.6150  1.2432
 9493TIP3    H249971   6.103   0.835   0.796 -0.0379  0.6165 -2.9583
 9494TIP3   OH249972   2.078   2.556  12.732  0.0214  0.9258  0.1896
 9494TIP3    H149973   2.083   2.592  12.643  1.8640  2.9794  1.0839
 9494TIP3    H249974   2.056   2.631  12.787  1.2249  0.1387  1.7723
 9495TIP3   OH249975   5.363   0.510   2.815  0.3791  0.1723  0.3774
 9495TIP3    H149976   5.278   0.473   2.836 -0.0537 -0.5545 -2.4249
 9495TIP3    H249977   5.380   0.573   2.884 -2.0639 -0.2585  1.4042
 9496TIP3   OH249978   0.479   0.685   4.417 -0.1105 -0.2273 -0.3114
 9496TIP3    H149979   0.389   0.694   4.449 -0.0495 -1.1065  0.1237
 9496TIP3    H249980   0.481   0.599   4.375  0.4806 -0.1247 -0.5035
 9497TIP3   OH249981   6.084   5.235  16.310 -0.1154 -0.5797 -0.5428
 9497TIP3    H149982   6.174   5.242  16.341 -0.4119 -0.1754  0.2697
 9497TIP3    H249983   6.061   5.143  16.321  0.2182 -0.6910 -0.7964
 9498TIP3   OH249984   0.546   0.172   4.920  0.3714 -0.0637  0.1220
 9498TIP3    H149985   0.493   0.191   4.998  0.7106 -0.0486  0.3507
 9498TIP3    H249986   0.587   0.256   4.898  1.9626 -0.5430  1.2006
 9499TIP3   OH249987   0.113   5.365  11.462 -0.1216 -0.2068  0.3249
 9499TIP3    H149988   0.029   5.336  11.499 -1.0872  1.7511 -0.2676
 9499TIP3    H249989   0.092   5.395  11.374  0.6664  2.8981  1.1235
 9500TIP3   OH249990   3.029   4.935   4.365 -0.3373 -0.0919 -0.3627
 9500TIP3    H149991   2.974   4.981   4.428 -0.3465 -0.9134  0.2333
 9500TIP3    H249992   3.092   5.001   4.335 -1.3379  0.7138 -0.6945
 9501TIP3   OH249993   5.153   2.015   6.049  0.3372 -0.5554  0.5486
 9501TIP3    H149994   5.235   2.064   6.057  1.1633 -1.2577 -2.9997
 9501TIP3    H249995   5.179   1.923   6.046 -0.5764 -0.7743 -0.7631
 9502TIP3   OH249996   4.206   4.749   2.497 -0.3541  0.4237  0.0210
 9502TIP3    H149997   4.168   4.661   2.503  0.8659 -0.1980 -1.2614
 9502TIP3    H249998   4.217   4.777   2.588  0.6701 -1.3634  0.4595
 9503TIP3   OH249999   6.295   5.320   1.774 -0.2817  0.7335 -0.6234
 9503TIP3    H150000   6.330   5.401   1.813  0.9269  0.2369 -0.6359
 9503TIP3    H250001   6.294   5.257   1.846  2.5068 -0.3522 -1.4674
 9504TIP3   OH250002   5.749   4.624  13.771 -0.3041 -0.2175  0.1469
 9504TIP3    H150003   5.655   4.636  13.765 -0.2608  0.2385  0.3515
 9504TIP3    H250004   5.778   4.616  13.680 -0.5921 -0.7896  0.1034
 9505TIP3   OH250005   6.221   4.698  13.248  0.6364  0.1059  0.6531
 9505TIP3    H150006   6.269   4.622  13.281  0.6155 -0.3864 -0.4280
 9505TIP3    H250007   6.236   4.697  13.154 -0.3374  0.7668  0.4824
 9506TIP3   OH250008   5.673   0.722   0.970  0.0001 -0.3295  0.3231
 9506TIP3    H150009   5.662   0.640   1.019  1.2431  0.4742  2.0099
 9506TIP3    H250010   5.711   0.695   0.886 -0.3117 -1.5620  0.5707
 9507TIP3   OH250011   0.890   5.210  10.902  0.9056  0.4536  0.2050
 9507TIP3    H150012   0.822   5.174  10.845  0.2096 -1.8181  2.3996
 9507TIP3    H250013   0.857   5.297  10.926 -0.9841 -0.3872  0.7707
 9508TIP3   OH250014   4.359   6.355  16.931  0.2250 -0.2126 -0.1061
 9508TIP3    H150015   4.300   6.420  16.968 -0.0351 -0.1002 -0.7158
 9508TIP3    H250016   4.438   6.403  16.908  0.0619 -0.1212 -0.4848
 9509TIP3   OH250017   5.066   2.211  11.842  0.3080  0.3715  0.0435
 9509TIP3    H150018   5.084   2.154  11.916  4.0151  0.1038 -0.9606
 9509TIP3    H250019   5.057   2.299  11.880 -2.0226 -0.3398  1.2050
 9510TIP3   OH250020   1.809   3.622   0.651 -0.0125 -0.3263 -0.6819
 9510TIP3    H150021   1.773   3.540   0.618  1.4987 -0.9855 -0.7211
 9510TIP3    H250022   1.736   3.683   0.647 -1.2054 -1.7180 -0.4697
 9511TIP3   OH250023   3.957   1.940   4.956 -0.1522 -0.1445 -0.1799
 9511TIP3    H150024   3.869   1.939   4.919  0.9880  0.2567 -3.0779
 9511TIP3    H250025   3.984   2.031   4.952  0.4340 -0.2736  0.6203
 9512TIP3   OH250026   1.387   0.509  14.116  0.3092 -0.1602 -0.2848
 9512TIP3    H150027   1.382   0.476  14.026 -1.3129 -0.0968 -0.2325
 9512TIP3    H250028   1.435   0.441  14.163 -0.3963 -1.0432 -0.8236
 9513TIP3   OH250029   6.440   1.801  12.713  0.5560  0.3660  0.1437
 9513TIP3    H150030   6.509   1.779  12.650  0.8720 -0.6252  0.8305
 9513TIP3    H250031   6.407   1.886  12.684  1.6236  0.5390 -0.5737
 9514TIP3   OH250032   3.001   4.984  13.102  0.7548  0.1587 -0.1985
 9514TIP3    H150033   2.971   4.922  13.036 -0.2123  1.3390 -0.8815
 9514TIP3    H250034   2.986   4.940  13.185  0.3106 -0.6248 -0.6881
 9515TIP3   OH250035   3.676   2.330  15.434 -0.3847 -0.0187 -0.0815
 9515TIP3    H150036   3.621   2.400  15.398  0.4182  1.8185  2.1335
 9515TIP3    H250037   3.766   2.359  15.416 -0.0409 -0.2594  1.1732
 9516TIP3   OH250038   2.652   0.102  12.966  0.1678  0.0783 -0.1094
 9516TIP3    H150039   2.734   0.150  12.979  0.3821 -0.4444  0.5101
 9516TIP3    H250040   2.584   0.170  12.970  0.5312  0.4452 -0.0993
 9517TIP3   OH250041   5.926   3.670  15.047 -1.2278  0.1999  0.4244
 9517TIP3    H150042   5.880   3.750  15.021 -0.4534  0.9311  1.2430
 9517TIP3    H250043   5.868   3.599  15.022 -1.6851  0.9965 -0.8313
 9518TIP3   OH250044   3.417   2.762  13.531  0.1531 -0.3846 -0.4537
 9518TIP3    H150045   3.407   2.734  13.441 -1.1496  0.0014 -0.4342
 9518TIP3    H250046   3.336   2.736  13.574  0.0831  0.8986  0.2196
 9519TIP3   OH250047   1.859   5.951  10.725 -0.1479 -0.4329 -0.6950
 9519TIP3    H150048   1.875   5.871  10.774  1.7929 -0.0912 -0.7296
 9519TIP3    H250049   1.903   5.936  10.640 -0.8110  0.1862 -1.1518
 9520TIP3   OH250050   1.321   0.815  16.739 -0.1999 -0.7104  0.2567
 9520TIP3    H150051   1.359   0.765  16.666 -1.2291 -0.3840 -0.5227
 9520TIP3    H250052   1.238   0.771  16.757 -0.9516  0.4992 -0.2036
 9521TIP3   OH250053   0.353   2.287  16.700  0.1023  0.3231 -0.7080
 9521TIP3    H150054   0.258   2.285  16.708  0.1342 -1.5993 -0.5906
 9521TIP3    H250055   0.369   2.342  16.623 -0.9453  3.1486  1.0053
 9522TIP3   OH250056   1.252   3.182  14.581  0.4371  0.3605 -0.0723
 9522TIP3    H150057   1.209   3.099  14.601 -0.6633  1.6621  3.4053
 9522TIP3    H250058   1.330   3.182  14.636  1.3702  0.9176 -1.3632
 9523TIP3   OH250059   6.596   1.099   2.189 -1.1005  0.0840  0.4270
 9523TIP3    H150060   6.627   1.099   2.098 -0.4023 -0.3428  0.6614
 9523TIP3    H250061   6.513   1.147   2.186 -2.0083 -1.4959 -0.7601
 9524TIP3   OH250062   4.257   5.266   1.695  0.5399  0.5726 -0.5000
 9524TIP3    H150063   4.168   5.242   1.669 -0.2050  1.6992  0.9043
 9524TIP3    H250064   4.305   5.274   1.613 -0.5855 -0.3288 -1.2651
 9525TIP3   OH250065   1.331   0.057   5.166 -0.6536  0.6487  0.0151
 9525TIP3    H150066   1.355   0.045   5.258 -0.7044 -0.7537 -0.1412
 9525TIP3    H250067   1.372  -0.017   5.121  0.1002  1.8050 -1.2250
 9526TIP3   OH250068   2.221   4.534  16.567  0.5253 -0.2457 -0.1477
 9526TIP3    H150069   2.211   4.446  16.530  2.4571 -0.0272 -1.2294
 9526TIP3    H250070   2.301   4.529  16.618 -0.9630  0.0716  2.2915
 9527TIP3   OH250071   1.559   2.301   3.086  0.2045  0.2043 -0.1383
 9527TIP3    H150072   1.621   2.229   3.094  0.2643  0.0395 -1.8827
 9527TIP3    H250073   1.481   2.271   3.134  0.8601 -0.2563  0.6615
 9528TIP3   OH250074   0.922   3.956   2.934 -0.8072  0.1606 -0.0389
 9528TIP3    H150075   0.933   3.863   2.914  0.3006  0.3923 -0.5604
 9528TIP3    H250076   0.877   3.958   3.019 -0.4312 -0.8458  0.1819
 9529TIP3   OH250077   2.294   5.101  14.675 -0.2066 -0.2538 -0.2835
 9529TIP3    H150078   2.295   5.020  14.725  0.9586 -0.1827 -0.1694
 9529TIP3    H250079   2.322   5.168  14.738  0.1188  0.0199 -0.7145
 9530TIP3   OH250080   0.005   1.587   0.010  0.1846 -0.1386 -0.3353
 9530TIP3    H150081   0.086   1.607   0.058 -0.4956 -1.5885  1.5135
 9530TIP3    H250082   0.034   1.532  -0.063  1.0871  0.9406 -0.8011
 9531TIP3   OH250083   3.559   0.800  13.402 -0.2511 -0.1515  0.2877
 9531TIP3    H150084   3.510   0.720  13.421 -1.2630  0.1407 -0.9475
 9531TIP3    H250085   3.560   0.848  13.484  0.7878 -1.6629  1.1583
 9532TIP3   OH250086   4.980   6.262  12.745  0.0850  0.1493  0.1032
 9532TIP3    H150087   5.044   6.191  12.736 -0.4596 -0.2719 -0.4948
 9532TIP3    H250088   4.957   6.284  12.655  0.1593  1.0091  0.2904
 9533TIP3   OH250089   4.602   3.968   4.746  0.3309 -0.4692  0.0603
 9533TIP3    H150090   4.622   4.031   4.677 -1.8038 -0.9656 -1.0401
 9533TIP3    H250091   4.638   4.008   4.826  2.5765  0.2336 -1.2663
 9534TIP3   OH250092   3.974   5.664  11.178  0.6600  0.0205  0.2522
 9534TIP3    H150093   3.963   5.580  11.133  1.3083 -0.0337  0.1902
 9534TIP3    H250094   4.067   5.683  11.172  0.2339  1.7311 -1.4627
 9535TIP3   OH250095   1.449   3.430   3.161 -0.1487 -0.1544 -0.1417
 9535TIP3    H150096   1.356   3.448   3.148  0.0474 -0.5277 -2.2309
 9535TIP3    H250097   1.492   3.515   3.149 -0.1983  0.0291  0.8771
 9536TIP3   OH250098   3.096   4.154  14.386  0.1461  0.2530  0.6832
 9536TIP3    H150099   3.010   4.174  14.347 -0.5303  1.2551  2.6532
 9536TIP3    H250100   3.083   4.071  14.431 -0.3415  1.3433  2.6003
 9537TIP3   OH250101   3.494   0.211   3.974  0.0817 -0.5395  0.5252
 9537TIP3    H150102   3.404   0.225   4.004 -0.3893 -1.1986 -0.5504
 9537TIP3    H250103   3.486   0.151   3.901  1.2723  0.5072 -0.4903
 9538TIP3   OH250104   6.277   2.000   4.154 -0.5700  0.3208  0.5860
 9538TIP3    H150105   6.240   2.079   4.114  3.6552  1.2409 -1.7409
 9538TIP3    H250106   6.330   2.033   4.227  1.4281 -0.3458 -0.5682
 9539TIP3   OH250107   6.769   2.985   4.715  0.2507 -0.0443  0.4129
 9539TIP3    H150108   6.714   2.907   4.716 -0.6985  0.6139 -0.1392
 9539TIP3    H250109   6.741   3.035   4.792  0.4513  0.0419  0.4316
 9540TIP3   OH250110   5.472   1.382   0.922  0.2956  0.3632 -0.2756
 9540TIP3    H150111   5.487   1.320   0.851 -1.3008 -0.5752  0.1858
 9540TIP3    H250112   5.382   1.414   0.908  0.5293  1.3552  0.4101
 9541TIP3   OH250113   0.937   4.113  10.657 -0.3624  0.1725  0.2284
 9541TIP3    H150114   0.941   4.085  10.566  1.1810  0.3752  0.2158
 9541TIP3    H250115   0.947   4.208  10.653  2.2266 -0.0323  0.7291
 9542TIP3   OH250116   6.384   6.042   2.481  0.1913  1.0320  0.2496
 9542TIP3    H150117   6.316   6.109   2.493 -0.6328  0.1510  0.5881
 9542TIP3    H250118   6.389   6.030   2.386  1.4949  2.7190  0.0749
 9543TIP3   OH250119   5.285   2.566   2.782 -0.5931 -0.7473  0.4269
 9543TIP3    H150120   5.307   2.491   2.837 -0.4834 -0.5112  0.7117
 9543TIP3    H250121   5.215   2.535   2.725  0.2966 -1.4395 -0.3152
 9544TIP3   OH250122   6.174   1.740  10.611 -0.2281 -0.2280 -0.0874
 9544TIP3    H150123   6.179   1.686  10.690  2.1895  1.5405  1.0173
 9544TIP3    H250124   6.106   1.805  10.630 -0.2026 -0.2924  0.2166
 9545TIP3   OH250125   3.457   1.596  12.995  0.0346 -0.2248 -0.8271
 9545TIP3    H150126   3.481   1.678  12.952 -1.5939 -0.1928 -1.7449
 9545TIP3    H250127   3.363   1.587  12.977  0.1812 -2.2563 -0.6899
 9546TIP3   OH250128   5.544   2.541   0.737 -0.2467 -0.2391  0.0980
 9546TIP3    H150129   5.568   2.599   0.665 -1.0985 -2.0934 -1.7128
 9546TIP3    H250130   5.449   2.551   0.745 -0.4647 -1.7281 -0.5368
 9547TIP3   OH250131   3.679   0.245   1.278 -0.8243 -0.0060 -0.2918
 9547TIP3    H150132   3.733   0.266   1.202 -0.7609 -0.4983 -0.3887
 9547TIP3    H250133   3.716   0.163   1.312 -2.2537 -1.0117 -1.0998
 9548TIP3   OH250134   5.588   4.814   2.385  0.0305 -0.2500  0.2581
 9548TIP3    H150135   5.550   4.767   2.311  1.4681  0.3258 -0.8771
 9548TIP3    H250136   5.537   4.896   2.390  2.0477  1.2089 -2.2219
 9549TIP3   OH250137   5.234   0.823   3.975  0.0494  0.1998 -0.0283
 9549TIP3    H150138   5.201   0.756   3.915  1.4139  0.2801 -0.9108
 9549TIP3    H250139   5.329   0.823   3.959  0.2222  1.3585  0.9774
 9550TIP3   OH250140   1.286   0.652   4.439  0.4576 -0.2890 -0.1279
 9550TIP3    H150141   1.221   0.685   4.501  0.2654  1.1241 -1.0519
 9550TIP3    H250142   1.369   0.657   4.485  0.2939  0.5930  0.0653
 9551TIP3   OH250143   0.228   2.168   3.057 -0.9276 -0.8975  0.6079
 9551TIP3    H150144   0.225   2.076   3.030  0.2567 -1.3889  2.1037
 9551TIP3    H250145   0.285   2.169   3.134  0.6283  1.3765 -0.5286
 9552TIP3   OH250146   0.386   1.388   0.508 -0.5882 -0.0146  0.5926
 9552TIP3    H150147   0.464   1.367   0.560  1.8634 -1.1826 -3.3207
 9552TIP3    H250148   0.328   1.313   0.520 -0.7335  0.4207  2.7927
 9553TIP3   OH250149   3.428   5.692   2.079 -0.2507  0.7329  0.1120
 9553TIP3    H150150   3.458   5.602   2.071  1.1870  1.1169  1.1628
 9553TIP3    H250151   3.482   5.730   2.147 -0.6351  2.4941 -0.5368
 9554TIP3   OH250152   0.135   5.436  12.664 -0.1427 -0.2153  0.4371
 9554TIP3    H150153   0.086   5.478  12.736  0.4607 -3.2818  2.7422
 9554TIP3    H250154   0.080   5.361  12.639  1.7461 -1.7233  0.7389
 9555TIP3   OH250155   3.750   4.563   5.318 -0.4754 -0.8034  0.1328
 9555TIP3    H150156   3.760   4.481   5.270 -1.8941 -1.4508  0.9389
 9555TIP3    H250157   3.658   4.586   5.308  0.4457  2.1776 -2.4523
 9556TIP3   OH250158   0.572   4.303   0.548  0.3842 -0.2468 -0.5673
 9556TIP3    H150159   0.664   4.321   0.566  0.3702 -0.7817  0.0705
 9556TIP3    H250160   0.554   4.348   0.466  0.9929  0.5537 -0.2626
 9557TIP3   OH250161   5.762   6.252  16.673 -0.1991 -0.2280 -0.0167
 9557TIP3    H150162   5.785   6.167  16.637 -0.5432  0.3348 -1.6499
 9557TIP3    H250163   5.672   6.267  16.642  0.0052  0.8950 -0.0852
 9558TIP3   OH250164   2.309   3.901   3.063  0.2641 -0.6925  0.1041
 9558TIP3    H150165   2.245   3.938   3.002  1.3257 -0.4411 -0.8746
 9558TIP3    H250166   2.273   3.816   3.087 -1.1888  0.1051  0.7751
 9559TIP3   OH250167   5.712   0.045   1.110  0.1893 -0.2276 -0.0008
 9559TIP3    H150168   5.652   0.093   1.166  0.4499 -0.0640  0.1369
 9559TIP3    H250169   5.757  -0.016   1.168 -2.3319 -2.7967 -0.6677
 9560TIP3   OH250170   3.098   5.785   5.408 -0.6671 -0.4932 -0.0019
 9560TIP3    H150171   3.076   5.878   5.405 -0.0197 -0.3759 -1.9170
 9560TIP3    H250172   3.098   5.763   5.501 -2.8445  0.9316  0.3728
 9561TIP3   OH250173   0.180   3.188  11.775 -0.4160 -0.1745  0.1877
 9561TIP3    H150174   0.206   3.203  11.866 -2.5171 -0.4098  0.8667
 9561TIP3    H250175   0.128   3.265  11.752 -0.9056 -0.6691 -0.4011
 9562TIP3   OH250176   5.279   1.360   4.196 -0.2504  0.5133  0.7707
 9562TIP3    H150177   5.324   1.308   4.129 -1.5158  0.5604 -0.1241
 9562TIP3    H250178   5.331   1.441   4.202 -0.4987  0.7837 -0.6153
 9563TIP3   OH250179   2.645   6.742   2.699  0.0419 -0.1661 -0.0068
 9563TIP3    H150180   2.600   6.719   2.780  3.3091 -1.7216  1.4271
 9563TIP3    H250181   2.622   6.672   2.638 -0.3085 -0.3871  0.3767
 9564TIP3   OH250182   3.609   5.812   1.496  0.0950  0.2853  0.0944
 9564TIP3    H150183   3.641   5.889   1.544 -0.4807  1.1833 -0.9334
 9564TIP3    H250184   3.684   5.783   1.444  0.5862 -0.4180  1.1842
 9565TIP3   OH250185   0.344   6.649   1.375 -0.2618  0.1536 -0.0495
 9565TIP3    H150186   0.341   6.673   1.468  2.3789 -1.0149  0.3633
 9565TIP3    H250187   0.360   6.732   1.330  1.0684  0.3582  0.7652
 9566TIP3   OH250188   3.133   0.702   3.543 -0.2413 -0.0365 -0.2262
 9566TIP3    H150189   3.070   0.772   3.529 -1.8472 -0.8274  2.5971
 9566TIP3    H250190   3.093   0.625   3.502  0.6261  0.2493 -1.6385
 9567TIP3   OH250191   2.971   2.838   3.618 -0.3806  0.2931  0.4797
 9567TIP3    H150192   3.044   2.782   3.595 -0.9359  0.5893 -2.2048
 9567TIP3    H250193   3.004   2.927   3.606 -0.3425  0.5064  2.0273
 9568TIP3   OH250194   3.583   1.663  14.270 -0.0265  0.4678 -0.2937
 9568TIP3    H150195   3.658   1.606  14.252 -0.6926 -0.9137  1.1373
 9568TIP3    H250196   3.515   1.633  14.209  0.4964  1.5711 -1.4343
 9569TIP3   OH250197   1.311   4.293   5.746  0.5253 -0.2227  0.2872
 9569TIP3    H150198   1.284   4.208   5.781  1.1698 -0.3730  0.4186
 9569TIP3    H250199   1.297   4.354   5.819  0.5339 -0.2985  0.3520
 9570TIP3   OH250200   4.276   6.084   4.362  0.1422 -0.2922  0.1194
 9570TIP3    H150201   4.194   6.079   4.411 -0.4640 -0.3462 -0.8752
 9570TIP3    H250202   4.261   6.152   4.297  1.1179  0.1431  0.3394
 9571TIP3   OH250203   3.785   6.421   2.527 -0.1909 -0.0043 -0.5406
 9571TIP3    H150204   3.737   6.402   2.447 -1.0479 -0.8020  0.1601
 9571TIP3    H250205   3.719   6.420   2.596  0.7922 -0.8843  0.4066
 9572TIP3   OH250206   0.760   0.794   0.017  0.4335 -0.2778  0.0948
 9572TIP3    H150207   0.801   0.791   0.104 -0.3436 -1.2457  0.4257
 9572TIP3    H250208   0.674   0.756   0.029 -0.4463  1.4022 -0.6954
 9573TIP3   OH250209   5.491   3.231  16.289 -0.4104  0.2283  0.0969
 9573TIP3    H150210   5.409   3.194  16.321 -0.7273  1.9324  1.3717
 9573TIP3    H250211   5.473   3.255  16.198 -1.0767 -0.1208  0.1346
 9574TIP3   OH250212   0.304   6.473   0.042  0.0578 -0.3155  0.0538
 9574TIP3    H150213   0.308   6.443  -0.049 -0.8839 -0.7780  0.1682
 9574TIP3    H250214   0.309   6.569   0.035  1.0995 -0.3883 -0.4111
 9575TIP3   OH250215   1.354   1.669  15.456 -0.1091 -0.2413 -0.5122
 9575TIP3    H150216   1.418   1.624  15.401  1.0643  2.2388 -1.2491
 9575TIP3    H250217   1.277   1.678  15.400 -0.8564 -2.4224  0.0797
 9576TIP3   OH250218   0.520   4.437   2.376 -0.2134 -0.2881  0.1981
 9576TIP3    H150219   0.541   4.343   2.380 -0.5646 -0.3075  1.8026
 9576TIP3    H250220   0.453   4.443   2.307  1.4488 -0.8840 -1.5171
 9577TIP3   OH250221   1.816   0.023  10.576 -0.1169 -0.3671  0.3122
 9577TIP3    H150222   1.829  -0.065  10.612 -0.3420  0.2515  1.9375
 9577TIP3    H250223   1.890   0.073  10.607 -1.0699  0.5525  1.1319
 9578TIP3   OH250224   4.739   4.037  14.089  0.2432 -0.0445 -0.0845
 9578TIP3    H150225   4.776   3.964  14.040  2.5796  0.7416  0.4509
 9578TIP3    H250226   4.734   4.109  14.025  0.8984  0.2285  0.1620
 9579TIP3   OH250227   0.647   2.384   0.110 -0.0827  0.3846 -0.1372
 9579TIP3    H150228   0.684   2.365   0.024  1.0383  0.5877  0.2949
 9579TIP3    H250229   0.569   2.329   0.116 -0.7759  1.1585 -1.7147
 9580TIP3   OH250230   5.396   3.748  16.318  0.3912 -0.5787  0.0252
 9580TIP3    H150231   5.405   3.785  16.230 -1.9420 -0.2066 -0.0884
 9580TIP3    H250232   5.428   3.816  16.377  0.9835 -0.4205 -0.4751
 9581TIP3   OH250233   0.878   4.485   4.333 -0.0857 -0.0811 -0.0566
 9581TIP3    H150234   0.926   4.505   4.413 -0.1968 -0.1540  0.0289
 9581TIP3    H250235   0.833   4.566   4.311  0.8682  0.2831 -0.6871
 9582TIP3   OH250236   2.588   4.642  16.872  0.1959 -0.0439  0.6254
 9582TIP3    H150237   2.623   4.594  16.797 -0.1316 -0.0415  0.4730
 9582TIP3    H250238   2.653   4.630  16.941  1.2236  1.1604 -0.1004
 9583TIP3   OH250239   2.056   4.713  15.466  0.1977  0.0735  0.5142
 9583TIP3    H150240   1.974   4.763  15.462  0.9040  1.1077 -1.8709
 9583TIP3    H250241   2.031   4.624  15.443 -0.1823  0.5005 -0.7546
 9584TIP3   OH250242   4.694   0.237   1.931 -0.6913 -0.2804  0.7433
 9584TIP3    H150243   4.696   0.149   1.970  0.6869  0.1730  1.6914
 9584TIP3    H250244   4.678   0.296   2.005 -1.3233  0.3055  0.1476
 9585TIP3   OH250245   2.985   6.756   4.865  0.4189  0.2283 -0.3254
 9585TIP3    H150246   2.947   6.702   4.934  2.6328 -1.0042 -0.0406
 9585TIP3    H250247   2.942   6.841   4.875  2.2786  0.7692  4.0559
 9586TIP3   OH250248   1.990   5.019   0.724  0.0422 -0.7403  0.9933
 9586TIP3    H150249   1.962   5.055   0.640  1.6340  0.6672  1.0351
 9586TIP3    H250250   2.086   5.018   0.720  0.1079 -2.5543  2.0258
 9587TIP3   OH250251   1.447   3.217  10.598  0.9010  0.2370 -0.4758
 9587TIP3    H150252   1.494   3.299  10.606  1.6450  0.1946 -3.8312
 9587TIP3    H250253   1.360   3.242  10.566 -0.0947 -0.0377  1.8657
 9588TIP3   OH250254   4.769   1.474  16.552 -0.0066  0.5418  0.1164
 9588TIP3    H150255   4.693   1.479  16.611  0.3204  2.2441  0.4171
 9588TIP3    H250256   4.834   1.424  16.601 -1.3351 -2.0131 -0.6265
 9589TIP3   OH250257   1.307   3.037   5.731  0.0855 -0.0801 -0.5801
 9589TIP3    H150258   1.389   2.996   5.701  1.0106 -0.5085  2.4285
 9589TIP3    H250259   1.272   2.976   5.796 -0.9347  1.6716  0.5471
 9590TIP3   OH250260   5.834   4.016  12.683  0.6530 -0.7008  0.5830
 9590TIP3    H150261   5.897   4.001  12.754  0.5311 -0.6254  0.7083
 9590TIP3    H250262   5.763   4.065  12.725  1.4151  0.9216 -0.0102
 9591TIP3   OH250263   0.945   5.731   0.932  0.6963 -0.2902  0.3680
 9591TIP3    H150264   0.986   5.660   0.884  0.3277  0.2506 -0.7491
 9591TIP3    H250265   0.851   5.720   0.917  0.6184  0.2749  0.4096
 9592TIP3   OH250266   5.448   6.694  14.699  0.2344  0.0328  0.0042
 9592TIP3    H150267   5.391   6.636  14.749  1.0197 -0.5836  0.2002
 9592TIP3    H250268   5.413   6.693  14.610 -0.8225  0.6784  0.4053
 9593TIP3   OH250269   5.899   6.735   3.247  0.0183  0.3118 -0.3190
 9593TIP3    H150270   5.882   6.669   3.314 -1.4312  0.9625 -0.0313
 9593TIP3    H250271   5.994   6.731   3.233  0.2089 -0.4607  1.0973
 9594TIP3   OH250272   2.448   4.489  13.385  0.0126 -0.3627 -0.4480
 9594TIP3    H150273   2.497   4.503  13.304 -0.5267 -4.4006 -1.5806
 9594TIP3    H250274   2.365   4.449  13.356 -1.0118 -0.0467  1.9541
 9595TIP3   OH250275   6.442   6.477   3.213  0.0818 -0.3303  0.0446
 9595TIP3    H150276   6.496   6.398   3.203  0.2235 -0.4098  1.2811
 9595TIP3    H250277   6.425   6.482   3.307 -0.9419  0.4503 -0.1779
 9596TIP3   OH250278   3.021   1.575  13.917 -0.2427 -0.5410 -0.0810
 9596TIP3    H150279   3.018   1.635  13.991  0.6943 -0.6817  0.0794
 9596TIP3    H250280   3.002   1.489  13.955  0.0481 -0.5844 -0.0291
 9597TIP3   OH250281   2.735   1.790  15.632 -0.1292 -0.4684  0.0512
 9597TIP3    H150282   2.710   1.697  15.635  0.9658 -0.7294  1.5871
 9597TIP3    H250283   2.791   1.796  15.554  0.5896 -1.3205  0.4814
 9598TIP3   OH250284   3.985   5.360   4.454 -0.3579 -0.1668  0.1227
 9598TIP3    H150285   4.062   5.383   4.403 -0.5174 -1.0548 -0.5370
 9598TIP3    H250286   4.009   5.280   4.500 -1.2483 -1.0456 -0.9280
 9599TIP3   OH250287   0.672   1.021  13.548 -0.0408  0.0404 -0.4242
 9599TIP3    H150288   0.725   1.078  13.492  2.1419 -2.5603 -1.1010
 9599TIP3    H250289   0.633   0.959  13.487  2.3254 -2.8074  0.8589
 9600TIP3   OH250290   0.091   4.092  12.848  0.2076  0.1215  0.1965
 9600TIP3    H150291   0.092   4.020  12.911 -0.9891 -0.4413 -0.4157
 9600TIP3    H250292   0.015   4.145  12.873 -0.1418  0.0205 -0.6208
 9601TIP3   OH250293   1.145   5.620   2.722  0.0481  0.5325 -0.5579
 9601TIP3    H150294   1.203   5.650   2.792 -1.3641  1.4261  0.2546
 9601TIP3    H250295   1.140   5.525   2.735 -0.8011  0.7758  1.0438
 9602TIP3   OH250296   0.773   4.871   6.207 -0.5388 -1.1233 -0.9176
 9602TIP3    H150297   0.810   4.786   6.231  0.5768 -0.6849 -1.0495
 9602TIP3    H250298   0.731   4.856   6.123 -1.2300 -1.7767 -0.4671
 9603TIP3   OH250299   3.817   3.970  17.263  0.1760  0.0099  0.6194
 9603TIP3    H150300   3.735   3.930  17.233  0.6077 -1.4961  1.4105
 9603TIP3    H250301   3.830   4.044  17.204 -1.9863  0.5354  0.7733
 9604TIP3   OH250302   1.323   2.689  12.400  0.1929 -0.1076 -0.2264
 9604TIP3    H150303   1.388   2.754  12.374 -1.1614  0.8919 -1.2405
 9604TIP3    H250304   1.239   2.736  12.395 -0.9942 -2.3597 -2.5842
 9605TIP3   OH250305   4.515   0.210   0.049 -0.2420  0.3860  0.2171
 9605TIP3    H150306   4.573   0.169  -0.016  0.8290  0.7502  0.9206
 9605TIP3    H250307   4.442   0.245  -0.002  0.0495 -0.2746 -0.6672
 9606TIP3   OH250308   4.906   5.976   1.388  0.1306 -0.1518  0.0994
 9606TIP3    H150309   4.941   6.066   1.388  1.5211 -0.6742  0.5772
 9606TIP3    H250310   4.887   5.957   1.296  1.2598  0.1021 -0.1971
 9607TIP3   OH250311   2.409   1.971  12.421  0.1013 -0.5154  0.2592
 9607TIP3    H150312   2.492   1.981  12.375 -0.0507 -0.5221 -0.0192
 9607TIP3    H250313   2.380   2.061  12.439  1.2266 -0.5331  2.2868
 9608TIP3   OH250314   6.637   4.043  14.637 -0.5924 -0.0776 -0.4653
 9608TIP3    H150315   6.663   4.051  14.728  0.0953  2.0957 -0.8027
 9608TIP3    H250316   6.549   4.007  14.639  0.1036 -1.7467  0.9654
 9609TIP3   OH250317   0.013   5.201  12.548 -0.3872 -0.5088  0.5739
 9609TIP3    H150318   0.083   5.142  12.577  0.9759  1.5879  1.6321
 9609TIP3    H250319  -0.067   5.153  12.567  0.6619 -1.6408  2.3619
 9610TIP3   OH250320   5.376   6.324  13.928 -0.0378  0.6317 -0.4162
 9610TIP3    H150321   5.445   6.263  13.956 -1.8359 -0.8911  0.7668
 9610TIP3    H250322   5.344   6.363  14.009 -1.3769  0.4559 -0.8491
 9611TIP3   OH250323   0.808   0.874   2.870 -0.6816  0.1075 -0.1415
 9611TIP3    H150324   0.728   0.904   2.828 -1.0563 -0.0511  0.4524
 9611TIP3    H250325   0.823   0.787   2.834 -0.9750 -0.0095  0.0195
 9612TIP3   OH250326   6.126   6.052   2.216 -0.1484  0.0322 -0.0570
 9612TIP3    H150327   6.076   5.981   2.256  0.9342  0.4787  2.1680
 9612TIP3    H250328   6.180   6.009   2.149 -2.1152 -0.7005 -1.1948
 9613TIP3   OH250329   3.208   1.828   4.602 -0.2285 -0.0410 -0.6453
 9613TIP3    H150330   3.170   1.761   4.659  3.5905 -0.8803  1.0354
 9613TIP3    H250331   3.230   1.781   4.522  2.9970 -1.0721  0.7479
 9614TIP3   OH250332   5.180   0.953  12.921  0.3277 -0.3856  0.1015
 9614TIP3    H150333   5.235   0.882  12.887 -0.2709 -1.2247  0.8763
 9614TIP3    H250334   5.107   0.909  12.963 -1.1442  0.7306 -1.2212
 9615TIP3   OH250335   6.088   0.046   2.465  0.0522  0.5107 -0.2618
 9615TIP3    H150336   6.076   0.072   2.556 -2.1487  1.8149 -0.8960
 9615TIP3    H250337   6.030  -0.029   2.454  0.7300  0.0090 -0.4582
 9616TIP3   OH250338   6.588   3.815   5.962  0.3496 -0.1941  0.0518
 9616TIP3    H150339   6.540   3.805   6.044 -1.8431  0.5282 -1.0853
 9616TIP3    H250340   6.584   3.728   5.922  0.0717 -0.1600  0.0051
 9617TIP3   OH250341   4.798   0.089   1.627 -0.0047 -0.1295  0.7207
 9617TIP3    H150342   4.809   0.051   1.714 -0.0925  1.6004  1.5207
 9617TIP3    H250343   4.706   0.114   1.622 -0.1648 -0.8437 -0.1516
 9618TIP3   OH250344   2.515   1.380   4.974 -0.3668 -0.6689  0.3761
 9618TIP3    H150345   2.481   1.469   4.969 -0.6318 -0.8465 -1.1108
 9618TIP3    H250346   2.605   1.390   5.006  0.0036  0.2268 -0.9072
 9619TIP3   OH250347   4.959   5.992   0.718 -0.5724 -0.1277  1.0091
 9619TIP3    H150348   4.869   6.003   0.686  0.6159  1.7499 -1.9333
 9619TIP3    H250349   4.978   5.900   0.704 -1.0792  0.0618 -1.1870
 9620TIP3   OH250350   3.345   6.065  11.313 -0.5634 -0.0323 -0.4201
 9620TIP3    H150351   3.439   6.077  11.329 -0.7859  0.2503  0.7591
 9620TIP3    H250352   3.340   6.004  11.240  0.5397 -0.1163 -0.4288
 9621TIP3   OH250353   6.700   6.328   4.132  0.6386  0.3455  0.1333
 9621TIP3    H150354   6.639   6.344   4.204  2.8612  0.3438  2.0427
 9621TIP3    H250355   6.709   6.232   4.129  1.5860  0.4197  0.7194
 9622TIP3   OH250356   0.737   6.622  15.272  0.3833  0.4819 -0.8802
 9622TIP3    H150357   0.789   6.571  15.333  1.4083  0.5306 -1.6891
 9622TIP3    H250358   0.723   6.564  15.197  1.8535  1.4596 -1.9583
 9623TIP3   OH250359   4.466   5.909  14.971  0.1487  0.5140  0.3247
 9623TIP3    H150360   4.402   5.967  14.929  0.4184  0.4225 -0.2178
 9623TIP3    H250361   4.525   5.882  14.900  1.8846  2.0330  1.1594
 9624TIP3   OH250362   1.767   5.805   2.044 -0.3238 -0.0428  0.3169
 9624TIP3    H150363   1.844   5.823   2.098  0.9518 -1.3832 -1.0210
 9624TIP3    H250364   1.698   5.784   2.107  1.3075 -2.1973  1.4408
 9625TIP3   OH250365   6.747   0.577   2.818  0.2423  0.0628 -0.3857
 9625TIP3    H150366   6.756   0.489   2.783 -0.3327 -0.4074  0.6096
 9625TIP3    H250367   6.834   0.616   2.809  0.9051 -1.1577  0.6140
 9626TIP3   OH250368   1.909   5.599  15.490  0.3356 -0.2060  0.2950
 9626TIP3    H150369   1.949   5.635  15.569 -1.1138  0.7003  0.6273
 9626TIP3    H250370   1.923   5.667  15.424 -1.2506  0.4119  0.5893
 9627TIP3   OH250371   0.360   1.869   3.108  0.1378  0.6578  0.3305
 9627TIP3    H150372   0.335   1.862   3.200 -0.0161  1.2665  0.3402
 9627TIP3    H250373   0.327   1.789   3.068  0.1959  0.3978  0.8061
 9628TIP3   OH250374   3.994   4.150  14.843  0.3535  0.0730 -0.4798
 9628TIP3    H150375   3.990   4.158  14.748  1.7256  0.0267 -0.5562
 9628TIP3    H250376   4.085   4.128  14.861 -0.0841 -0.7529  0.7957
 9629TIP3   OH250377   2.762   4.284   2.607 -1.4630  0.2143  0.2914
 9629TIP3    H150378   2.775   4.244   2.522  0.9101  0.2493  0.5966
 9629TIP3    H250379   2.715   4.218   2.658 -1.5181 -0.4224 -0.5740
 9630TIP3   OH250380   5.836   0.380   6.346 -0.1725 -0.1904  0.0524
 9630TIP3    H150381   5.902   0.394   6.414 -0.7725  1.2085  0.3680
 9630TIP3    H250382   5.820   0.285   6.347  0.8773 -0.3665  0.8555
 9631TIP3   OH250383   6.727   4.446  13.518 -0.3665  0.3504  0.2807
 9631TIP3    H150384   6.653   4.424  13.576  0.4105  1.8153  1.8728
 9631TIP3    H250385   6.731   4.542  13.521  1.8214  0.2598  0.4832
 9632TIP3   OH250386   3.272   2.472  15.752 -0.6816 -0.3601 -0.4247
 9632TIP3    H150387   3.338   2.482  15.683  0.2797  0.3594  0.5945
 9632TIP3    H250388   3.320   2.485  15.833 -2.4756  2.3142  0.2590
 9633TIP3   OH250389   0.922   3.204  17.289  0.3180  0.3519 -0.1712
 9633TIP3    H150390   0.904   3.111  17.307 -2.4372  0.7048 -0.8704
 9633TIP3    H250391   0.849   3.232  17.234  0.6749  3.1497  0.7096
 9634TIP3   OH250392   3.952   3.757  12.644  0.7641 -0.4137  0.6691
 9634TIP3    H150393   4.041   3.749  12.679  0.5054  2.0637  1.9417
 9634TIP3    H250394   3.895   3.737  12.718  0.2444 -0.8377  0.1571
 9635TIP3   OH250395   1.800   0.132   4.042  0.5727  0.1364  0.6361
 9635TIP3    H150396   1.716   0.088   4.028  1.0981 -0.6162 -0.2462
 9635TIP3    H250397   1.816   0.182   3.962  0.4614  1.1285  1.2324
 9636TIP3   OH250398   1.301   6.143   3.983  0.0187  0.6932  0.7783
 9636TIP3    H150399   1.348   6.096   3.914  0.2893  1.5317  0.3770
 9636TIP3    H250400   1.324   6.097   4.064 -2.3553 -1.9292  0.0477
 9637TIP3   OH250401   4.110   4.022   1.608  0.3045  0.0235  0.1895
 9637TIP3    H150402   4.061   4.104   1.605 -1.7446 -1.1930 -1.2284
 9637TIP3    H250403   4.133   4.005   1.517  2.9173  0.2616  0.7638
 9638TIP3   OH250404   5.881   6.758   4.615 -0.4862 -1.2262 -0.2654
 9638TIP3    H150405   5.841   6.721   4.694 -1.8255  1.2131  0.2683
 9638TIP3    H250406   5.975   6.743   4.626 -0.7188 -1.5378  1.4636
 9639TIP3   OH250407   1.685   2.065  13.904 -0.5936  0.5099  0.3525
 9639TIP3    H150408   1.591   2.047  13.907 -0.2893 -1.3137 -0.3952
 9639TIP3    H250409   1.725   1.992  13.950  0.4876  1.2233  0.5708
 9640TIP3   OH250410   5.872   6.573  13.492 -0.4229  0.2058 -0.9092
 9640TIP3    H150411   5.915   6.489  13.511  0.5582  0.8916 -0.0567
 9640TIP3    H250412   5.934   6.620  13.437 -0.0165  1.2340  0.3958
 9641TIP3   OH250413   1.278   4.998  12.277  0.3514 -0.3159  0.5870
 9641TIP3    H150414   1.253   4.923  12.222  0.3099  0.2688 -0.1922
 9641TIP3    H250415   1.372   5.008  12.263  0.4542 -0.5249  1.0826
 9642TIP3   OH250416   2.070   4.143   5.443 -0.4253 -0.4241  0.2739
 9642TIP3    H150417   2.078   4.107   5.531  1.0684 -1.5600 -0.3080
 9642TIP3    H250418   2.149   4.115   5.398 -1.3994 -0.2901 -1.5835
 9643TIP3   OH250419   2.406   5.547   4.058 -0.1093 -0.3826 -0.0819
 9643TIP3    H150420   2.358   5.618   4.015  1.4239  0.8846  0.2548
 9643TIP3    H250421   2.437   5.585   4.141 -0.1389 -1.7537  0.5746
 9644TIP3   OH250422   0.847   6.014  16.013 -0.0377  0.7512 -0.7664
 9644TIP3    H150423   0.856   6.109  15.999  2.3642  0.4603 -1.4559
 9644TIP3    H250424   0.870   6.002  16.105  0.7884  0.7245 -0.9702
 9645TIP3   OH250425   2.341   6.739  16.688  0.7421  0.1943 -0.4415
 9645TIP3    H150426   2.424   6.736  16.641  0.5137 -1.6050 -0.7736
 9645TIP3    H250427   2.287   6.673  16.645  0.0907 -0.6046  1.5264
 9646TIP3   OH250428   0.832   4.261   5.868 -0.2673  0.0898  0.0424
 9646TIP3    H150429   0.754   4.313   5.848  0.1794  0.2289 -1.3978
 9646TIP3    H250430   0.798   4.178   5.902 -1.0158  0.6150  0.5847
 9647TIP3   OH250431   2.066   3.654   4.141  0.0122  0.3301  0.4356
 9647TIP3    H150432   2.024   3.584   4.092  0.0019  1.3824 -1.0862
 9647TIP3    H250433   2.029   3.647   4.229  0.3633 -1.8519  0.4313
 9648TIP3   OH250434   2.584   1.016   1.586  0.0194 -0.0092  0.3113
 9648TIP3    H150435   2.530   1.058   1.653 -0.9629 -1.0599  0.1916
 9648TIP3    H250436   2.522   0.973   1.528  0.9517 -0.7718 -0.1437
 9649TIP3   OH250437   1.110   2.682  13.180 -0.3330 -0.2762  0.1789
 9649TIP3    H150438   1.020   2.704  13.203 -0.8597 -1.3669 -0.7746
 9649TIP3    H250439   1.137   2.751  13.119 -0.5830 -0.0486  0.3252
 9650TIP3   OH250440   3.780   0.251   2.612  0.1916  0.0197  0.0537
 9650TIP3    H150441   3.765   0.310   2.538  2.8580 -0.2830 -0.7884
 9650TIP3    H250442   3.767   0.164   2.575  1.1968 -0.1168  0.0145
 9651TIP3   OH250443   5.484   6.744  11.946 -0.3814  0.4275 -0.1600
 9651TIP3    H150444   5.466   6.736  12.039  1.2865 -2.4779 -0.0302
 9651TIP3    H250445   5.546   6.817  11.939 -2.5941  2.4310  0.6616
 9652TIP3   OH250446   2.433   4.041   2.138 -0.0310  0.3018  0.1821
 9652TIP3    H150447   2.427   4.004   2.226 -0.1302 -0.6596 -0.2255
 9652TIP3    H250448   2.453   3.966   2.082 -0.9507  0.7481 -0.7490
 9653TIP3   OH250449   1.739   4.599  13.844 -0.0033 -0.1016  0.2864
 9653TIP3    H150450   1.805   4.540  13.880 -0.8162 -1.7524 -0.8136
 9653TIP3    H250451   1.655   4.564  13.876 -0.5212  0.1926 -0.7186
 9654TIP3   OH250452   0.466   1.166   2.027  0.7359  0.7633 -0.3300
 9654TIP3    H150453   0.533   1.214   1.979  2.3630 -0.4530  0.6652
 9654TIP3    H250454   0.478   1.075   1.999  0.5075  0.3206  1.0070
 9655TIP3   OH250455   6.571   4.459   3.042  0.1562 -0.0633 -0.2577
 9655TIP3    H150456   6.558   4.460   3.137 -0.2762  2.4155 -0.3166
 9655TIP3    H250457   6.595   4.549   3.020 -0.1122 -0.5318 -2.5537
 9656TIP3   OH250458   2.577   1.662  11.262  0.1110 -0.6787 -0.4093
 9656TIP3    H150459   2.551   1.584  11.213 -0.8149  0.4668 -1.7647
 9656TIP3    H250460   2.662   1.686  11.225  0.2878 -0.9054 -0.1518
 9657TIP3   OH250461   4.755   5.621  14.844 -0.1305  0.6410  0.2326
 9657TIP3    H150462   4.815   5.696  14.847  0.5036  0.1654 -0.2380
 9657TIP3    H250463   4.679   5.653  14.795 -0.2096  1.2140  0.7264
 9658TIP3   OH250464   0.347   3.880  13.050  0.5612 -0.4546 -0.5846
 9658TIP3    H150465   0.282   3.894  13.119  2.2231  0.8727  0.7555
 9658TIP3    H250466   0.346   3.785  13.036 -0.5176 -0.6360  0.5530
 9659TIP3   OH250467   3.714   2.848  14.528  0.0513 -0.1398 -1.0373
 9659TIP3    H150468   3.787   2.799  14.565 -0.2509  0.3225  0.1989
 9659TIP3    H250469   3.753   2.924  14.487  0.1968  0.5845  0.4228
 9660TIP3   OH250470   6.279   5.914  14.363 -0.0742  0.3223 -0.2978
 9660TIP3    H150471   6.299   5.821  14.369 -0.3588  0.3064  0.5198
 9660TIP3    H250472   6.242   5.925  14.275  1.1720 -0.0922 -0.8770
 9661TIP3   OH250473   3.835   5.805   2.950 -0.5368  0.0045 -0.2437
 9661TIP3    H150474   3.869   5.716   2.939  0.6436  0.5383 -0.9785
 9661TIP3    H250475   3.911   5.856   2.976 -1.0567  0.9390 -0.5613
 9662TIP3   OH250476   2.194   4.449  13.211  0.1286  0.3370 -0.6900
 9662TIP3    H150477   2.186   4.540  13.240  0.6323  0.7343 -1.7760
 9662TIP3    H250478   2.117   4.434  13.156 -1.8571 -1.0208  2.3656
 9663TIP3   OH250479   6.473   6.021  11.411 -0.6558 -1.0731  0.1363
 9663TIP3    H150480   6.543   6.073  11.370  0.3519 -0.8786  2.0224
 9663TIP3    H250481   6.477   5.936  11.366  0.3496 -0.8305 -0.2553
 9664TIP3   OH250482   5.738   2.600  15.365 -0.2780 -0.3783  0.1327
 9664TIP3    H150483   5.719   2.687  15.331 -1.2563 -0.3691  0.6890
 9664TIP3    H250484   5.827   2.607  15.400  0.3565 -0.1130 -1.4704
 9665TIP3   OH250485   3.246   1.028   0.432  0.6410 -0.8076  0.4764
 9665TIP3    H150486   3.259   0.937   0.408 -2.2234 -1.1601  0.0685
 9665TIP3    H250487   3.170   1.027   0.491 -0.2095  1.4213 -0.5020
 9666TIP3   OH250488   3.901   3.314   4.767  0.9351  0.1383  0.4011
 9666TIP3    H150489   3.856   3.332   4.849  1.2640 -1.3712  0.9231
 9666TIP3    H250490   3.889   3.221   4.753  1.7468  0.2009 -0.7515
 9667TIP3   OH250491   2.038   3.751  15.770  0.2139  0.0153  0.6546
 9667TIP3    H150492   1.980   3.676  15.780  1.2362 -0.6769  1.6001
 9667TIP3    H250493   1.999   3.804  15.701 -0.2260 -1.6733 -0.4075
 9668TIP3   OH250494   3.373   5.547  13.108  0.1488  0.6453  0.1233
 9668TIP3    H150495   3.311   5.566  13.179 -1.6929 -0.9560 -1.0144
 9668TIP3    H250496   3.421   5.629  13.096 -0.7482  1.4881  2.0076
 9669TIP3   OH250497   0.085   5.334   4.506  0.2873 -0.0235 -0.5511
 9669TIP3    H150498   0.077   5.322   4.601  0.7972  0.0485 -0.4967
 9669TIP3    H250499   0.136   5.414   4.496  0.1955 -0.0059 -0.8888
 9670TIP3   OH250500   0.702   2.575  12.042 -0.1429  0.3597  0.3305
 9670TIP3    H150501   0.788   2.583  12.084 -0.5474  0.7173  1.0957
 9670TIP3    H250502   0.649   2.644  12.083 -0.2688  1.3381 -1.4416
 9671TIP3   OH250503   1.633   0.312  14.906  0.0173 -0.0587  0.6000
 9671TIP3    H150504   1.622   0.224  14.943  1.6454 -0.5552 -0.0583
 9671TIP3    H250505   1.680   0.297  14.824  1.1279  1.5081  0.9428
 9672TIP3   OH250506   2.776   6.705   5.285  0.1038 -0.5841  0.2468
 9672TIP3    H150507   2.863   6.738   5.261  0.3301 -1.3948 -0.0626
 9672TIP3    H250508   2.727   6.783   5.309  1.0461 -0.1642  0.8276
 9673TIP3   OH250509   2.504   6.318  11.645 -0.2142 -0.1139  0.3826
 9673TIP3    H150510   2.462   6.248  11.595  0.1381 -0.7227  0.9291
 9673TIP3    H250511   2.488   6.294  11.737  1.7176 -0.6003  0.6116
 9674TIP3   OH250512   0.659   2.923   4.965 -0.1993  0.7569  0.4684
 9674TIP3    H150513   0.600   2.993   4.993 -1.6532 -0.1534 -0.2185
 9674TIP3    H250514   0.725   2.967   4.912 -1.5993  1.5198 -0.6813
 9675TIP3   OH250515   0.263   2.334  15.503 -0.2867  0.0706 -0.3302
 9675TIP3    H150516   0.170   2.344  15.521 -0.1061  0.4176  0.4270
 9675TIP3    H250517   0.276   2.377  15.418 -0.5703  1.2118  0.2005
 9676TIP3   OH250518   6.320   1.601   3.905  0.2345 -0.0150 -0.4179
 9676TIP3    H150519   6.354   1.685   3.936 -0.7235  0.2201  0.0322
 9676TIP3    H250520   6.230   1.599   3.938  0.2301 -1.1880 -0.5024
 9677TIP3   OH250521   4.277   1.077  13.939 -0.3203  0.1204  0.0982
 9677TIP3    H150522   4.224   1.127  13.876  1.2657  0.2323 -1.1686
 9677TIP3    H250523   4.350   1.135  13.960  0.6543 -1.0091 -0.1188
 9678TIP3   OH250524   4.586   3.201  10.615 -0.1105 -0.6791 -0.4033
 9678TIP3    H150525   4.563   3.154  10.535  0.5928 -1.5343 -0.1121
 9678TIP3    H250526   4.520   3.175  10.678 -0.5003 -0.2228 -0.6158
 9679TIP3   OH250527   1.076   4.024  14.576 -0.1952  0.2602 -0.5905
 9679TIP3    H150528   0.984   4.002  14.586 -0.9231  1.3186 -4.3217
 9679TIP3    H250529   1.094   4.085  14.647 -2.1557 -0.4535  0.5689
 9680TIP3   OH250530   0.395   4.815   4.732 -0.2715  0.4335 -0.0210
 9680TIP3    H150531   0.342   4.796   4.655 -1.0793 -0.0248  0.6373
 9680TIP3    H250532   0.331   4.839   4.799  0.3780  0.2100  0.6830
 9681TIP3   OH250533   2.478   1.963  16.968  0.2503  0.0830 -0.0773
 9681TIP3    H150534   2.469   1.869  16.980 -2.3547  0.1973 -0.8485
 9681TIP3    H250535   2.507   1.996  17.053 -0.2987 -1.2315  0.6284
 9682TIP3   OH250536   4.359   5.357  12.450 -0.6160 -0.5740 -0.2881
 9682TIP3    H150537   4.446   5.395  12.438 -1.3245  1.1816 -0.0050
 9682TIP3    H250538   4.319   5.410  12.519 -1.7776 -1.5935 -0.1686
 9683TIP3   OH250539   5.690   4.545   0.227  0.7832  0.0148  0.0755
 9683TIP3    H150540   5.645   4.461   0.239  0.5656  0.0104 -0.7146
 9683TIP3    H250541   5.734   4.536   0.142  2.2844  0.0172  0.8298
 9684TIP3   OH250542   2.903   2.418   1.164 -0.1829  0.3051 -0.3370
 9684TIP3    H150543   2.981   2.376   1.201 -0.2671 -0.2065 -0.7229
 9684TIP3    H250544   2.852   2.446   1.240 -0.2981 -0.6294 -0.0580
 9685TIP3   OH250545   3.530   4.065  16.683  0.1507  0.3270  0.0743
 9685TIP3    H150546   3.450   4.014  16.698 -0.3989  0.0982 -3.3774
 9685TIP3    H250547   3.498   4.153  16.665  0.8355  0.7440  0.8635
 9686TIP3   OH250548   1.226   5.651  14.895  0.1842 -0.1988 -0.2300
 9686TIP3    H150549   1.173   5.725  14.922  0.3442  0.3546 -1.3871
 9686TIP3    H250550   1.273   5.624  14.974 -0.8790  0.0833  0.4980
 9687TIP3   OH250551   6.474   0.893  10.782  0.0168 -0.2396  0.3326
 9687TIP3    H150552   6.439   0.808  10.804  0.7068 -0.6364 -0.0709
 9687TIP3    H250553   6.405   0.935  10.731 -0.3363 -0.5411  0.5596
 9688TIP3   OH250554   4.630   6.549   6.378  0.5766  0.5427  0.2247
 9688TIP3    H150555   4.600   6.528   6.466 -0.3629 -2.1412 -0.6782
 9688TIP3    H250556   4.668   6.636   6.386 -1.4461  1.2721  2.8209
 9689TIP3   OH250557   4.943   2.711  17.146  0.5052  0.8235 -0.3231
 9689TIP3    H150558   4.915   2.647  17.211  1.0629  0.2326 -0.6551
 9689TIP3    H250559   5.039   2.703  17.144  0.5440  1.3400 -0.6998
 9690TIP3   OH250560   2.794   3.965   4.167 -0.0033  0.1017  0.4468
 9690TIP3    H150561   2.826   3.894   4.223 -2.4693  0.3886  2.3353
 9690TIP3    H250562   2.715   3.928   4.126  0.2353  0.8526 -0.7181
 9691TIP3   OH250563   4.678   3.473   5.077  0.0811 -0.1002 -0.0445
 9691TIP3    H150564   4.603   3.463   5.018 -0.5795 -0.6960  0.8777
 9691TIP3    H250565   4.724   3.550   5.044 -1.2070  0.5671 -0.3391
 9692TIP3   OH250566   6.401   2.279  12.325 -0.7082  0.0616 -0.3171
 9692TIP3    H150567   6.475   2.335  12.301 -0.3240  0.3375  1.4524
 9692TIP3    H250568   6.324   2.325  12.293 -0.1927  0.2049 -1.3843
 9693TIP3   OH250569   6.469   2.965   1.458 -0.3226 -0.2366  0.2783
 9693TIP3    H150570   6.511   2.882   1.436 -1.6200 -0.0096 -3.4145
 9693TIP3    H250571   6.429   2.949   1.544 -0.8772 -3.6031 -0.5134
 9694TIP3   OH250572   0.531   5.941  11.276 -0.2241  0.1513 -0.3066
 9694TIP3    H150573   0.609   5.989  11.305 -0.4146  0.7133 -0.7079
 9694TIP3    H250574   0.475   5.937  11.353 -1.7463  3.6670 -1.1174
 9695TIP3   OH250575   2.349   5.224   0.459  0.1342 -0.0402 -0.7223
 9695TIP3    H150576   2.437   5.226   0.498 -0.1619  1.5724 -0.1319
 9695TIP3    H250577   2.362   5.184   0.373  0.6629 -4.5513  1.3048
 9696TIP3   OH250578   2.212   5.595  16.410  0.2915  0.3954  0.1327
 9696TIP3    H150579   2.139   5.537  16.432 -0.2481  1.0599  0.1283
 9696TIP3    H250580   2.251   5.617  16.495 -0.7474  1.6121  0.3233
 9697TIP3   OH250581   1.013   4.608  14.449  0.5255 -0.6226 -0.5529
 9697TIP3    H150582   0.972   4.665  14.384  0.8151  0.2382 -0.0013
 9697TIP3    H250583   0.998   4.520  14.417 -1.9966 -0.3411 -0.2085
 9698TIP3   OH250584   5.839   6.169  10.335 -0.3934  0.4674 -0.6057
 9698TIP3    H150585   5.758   6.118  10.330 -0.6883  1.0919 -2.5484
 9698TIP3    H250586   5.836   6.210  10.421 -2.4917  1.0583 -0.9278
 9699TIP3   OH250587   1.519   5.691  15.116  0.4668  0.2784  0.3179
 9699TIP3    H150588   1.530   5.786  15.110  0.2627  0.2773 -0.1813
 9699TIP3    H250589   1.607   5.657  15.129  0.5075  0.5547  0.7831
 9700TIP3   OH250590   4.567   2.226  12.831  0.1105  0.1427  0.0250
 9700TIP3    H150591   4.609   2.162  12.774  0.4297 -0.3329  0.7893
 9700TIP3    H250592   4.508   2.275  12.773  0.1659 -0.5731 -0.6368
 9701TIP3   OH250593   3.924   6.489  14.438  0.2494 -0.2678 -0.2506
 9701TIP3    H150594   3.894   6.580  14.437  1.8286  0.2602 -1.1628
 9701TIP3    H250595   3.848   6.438  14.410 -0.8172  0.7079  0.8101
 9702TIP3   OH250596   3.037   2.763   4.430 -0.3706 -0.2631  0.0089
 9702TIP3    H150597   3.029   2.677   4.473  0.3389  1.1195  3.0548
 9702TIP3    H250598   3.129   2.769   4.405 -0.8330 -1.1661 -2.0181
 9703TIP3   OH250599   3.418   2.048   0.864  0.1523  0.2604 -0.1543
 9703TIP3    H150600   3.376   1.965   0.884 -0.3490  0.6570  0.4701
 9703TIP3    H250601   3.353   2.114   0.889  1.8660  0.9579  2.6862
 9704TIP3   OH250602   3.506   5.048   2.927 -0.1018  0.1969  0.1187
 9704TIP3    H150603   3.511   5.129   2.978 -0.6188  0.9699 -1.0367
 9704TIP3    H250604   3.586   5.000   2.950  0.5725  1.3680  0.2571
 9705TIP3   OH250605   4.119   3.881   0.521 -0.3591 -0.2093  0.1183
 9705TIP3    H150606   4.032   3.862   0.487  0.8626 -2.1853 -2.1285
 9705TIP3    H250607   4.157   3.941   0.456  0.4439 -0.4958  0.3187
 9706TIP3   OH250608   0.199   3.431   1.534 -0.8426  0.3333 -0.3002
 9706TIP3    H150609   0.167   3.409   1.621 -1.7641 -1.0626 -0.9517
 9706TIP3    H250610   0.292   3.412   1.536 -0.9027  0.1053  0.3224
 9707TIP3   OH250611   2.550   3.547  15.198 -0.3097  0.1566 -0.0251
 9707TIP3    H150612   2.524   3.638  15.212  0.1170  0.3977 -0.8004
 9707TIP3    H250613   2.587   3.519  15.282  2.0396  1.5253 -0.5741
 9708TIP3   OH250614   2.697   5.983  11.576  0.8490 -0.3134  0.3884
 9708TIP3    H150615   2.760   6.037  11.624 -1.0186  3.0215 -0.7063
 9708TIP3    H250616   2.616   5.990  11.626  0.0888 -0.4957 -0.7927
 9709TIP3   OH250617   1.385   0.774  12.478 -0.2646  0.0564 -0.4364
 9709TIP3    H150618   1.395   0.855  12.527 -1.2790 -1.3580  2.2364
 9709TIP3    H250619   1.430   0.708  12.531 -0.4283 -1.3383 -1.9682
 9710TIP3   OH250620   6.687   1.282   1.050 -0.2739  0.2562  0.3392
 9710TIP3    H150621   6.754   1.304   0.985 -0.7533  0.1463 -0.2017
 9710TIP3    H250622   6.635   1.362   1.058 -1.1123 -0.1822 -0.5224
 9711TIP3   OH250623   6.731   4.007  16.683 -0.4595  0.3963  1.0534
 9711TIP3    H150624   6.758   3.924  16.722 -0.0570 -0.0648 -0.1754
 9711TIP3    H250625   6.636   4.011  16.697 -0.6305 -0.7332  0.2720
 9712TIP3   OH250626   4.616   3.478  10.711  0.7259 -0.0499  0.2850
 9712TIP3    H150627   4.583   3.405  10.658  0.5308 -0.9941  1.6833
 9712TIP3    H250628   4.710   3.479  10.693  0.4726  0.4413 -1.0426
 9713TIP3   OH250629   1.451   6.528  13.659 -0.3031 -0.3874 -0.0523
 9713TIP3    H150630   1.399   6.585  13.716 -1.2503  0.0469 -1.3051
 9713TIP3    H250631   1.459   6.578  13.577 -0.0523 -1.5103 -0.7240
 9714TIP3   OH250632   3.305   3.849  11.137  0.2177 -0.0212 -0.2093
 9714TIP3    H150633   3.347   3.832  11.052 -0.2064 -0.3563 -0.3497
 9714TIP3    H250634   3.338   3.780  11.194  1.5326  0.9594  0.2643
 9715TIP3   OH250635   4.588   1.388  12.089 -0.6933 -0.0970 -0.7959
 9715TIP3    H150636   4.677   1.354  12.088 -0.3574  0.6600  1.1910
 9715TIP3    H250637   4.582   1.442  12.010  0.8800  0.5602 -0.4772
 9716TIP3   OH250638   2.835   5.372  16.933 -0.4480 -0.1696 -0.4794
 9716TIP3    H150639   2.820   5.423  17.013 -0.9014 -0.7242 -0.2108
 9716TIP3    H250640   2.812   5.432  16.862  0.6847  0.5863 -0.2213
 9717TIP3   OH250641   1.685   3.158   1.075 -0.4674 -0.4327 -0.2902
 9717TIP3    H150642   1.613   3.096   1.092 -1.3419  1.0513  1.7064
 9717TIP3    H250643   1.659   3.203   0.994 -1.1817 -0.8060 -0.2768
 9718TIP3   OH250644   3.715   1.410   4.147 -0.0397 -0.0933  0.0462
 9718TIP3    H150645   3.793   1.355   4.154  1.0290  1.4860  0.8927
 9718TIP3    H250646   3.750   1.497   4.126 -1.6902  0.2688 -1.2582
 9719TIP3   OH250647   5.359   3.448  15.214 -0.4714 -0.0530  0.8535
 9719TIP3    H150648   5.427   3.407  15.268  1.9735  2.9355  0.1958
 9719TIP3    H250649   5.402   3.461  15.129 -1.3476  3.1588  0.8428
 9720TIP3   OH250650   6.067   2.738   3.384 -0.1091 -0.0405  0.2268
 9720TIP3    H150651   6.119   2.796   3.329 -0.0990 -1.6494 -1.5177
 9720TIP3    H250652   6.132   2.691   3.437  0.1673 -1.3337 -1.2396
 9721TIP3   OH250653   0.338   6.558  13.697 -0.2275  0.1836  0.2758
 9721TIP3    H150654   0.266   6.555  13.634  0.0505  1.6277 -0.1354
 9721TIP3    H250655   0.321   6.637  13.749  1.3953  0.9087 -0.2547
 9722TIP3   OH250656   3.127   1.646  12.291  0.4709 -0.1055  0.0504
 9722TIP3    H150657   3.165   1.727  12.325 -0.8702  0.3246  0.5392
 9722TIP3    H250658   3.162   1.577  12.349  0.1471  0.3409  0.7862
 9723TIP3   OH250659   1.226   4.949   1.750 -0.2388 -0.4493 -0.4899
 9723TIP3    H150660   1.214   5.044   1.748 -2.5134 -0.7061 -0.5775
 9723TIP3    H250661   1.167   4.919   1.820  1.5523 -1.6687  0.5525
 9724TIP3   OH250662   4.362   0.625   1.557 -0.7015 -0.4149  0.4153
 9724TIP3    H150663   4.338   0.625   1.650 -2.1451 -1.3686  0.0415
 9724TIP3    H250664   4.344   0.715   1.529  1.6328  0.4510  1.5170
 9725TIP3   OH250665   4.195   0.446   0.217 -0.5538  0.4452  0.0416
 9725TIP3    H150666   4.154   0.405   0.140  0.0688 -1.4255  0.6953
 9725TIP3    H250667   4.248   0.377   0.256  0.5736  1.9021  1.1418
 9726TIP3   OH250668   1.491   0.721   1.765  0.2680 -0.0411 -0.2582
 9726TIP3    H150669   1.427   0.792   1.772  0.6507  0.2425  0.3935
 9726TIP3    H250670   1.512   0.717   1.672  0.9256  1.3117 -0.1729
 9727TIP3   OH250671   1.930   3.049   0.754  0.3202 -0.7435 -0.4971
 9727TIP3    H150672   2.017   3.036   0.793  0.4207 -1.3747 -0.9304
 9727TIP3    H250673   1.949   3.081   0.666  0.1060 -1.0549 -0.6521
 9728TIP3   OH250674   4.652   5.184   1.253 -0.0608  0.0096 -0.3847
 9728TIP3    H150675   4.734   5.204   1.298  0.4314 -0.3160 -1.1237
 9728TIP3    H250676   4.591   5.161   1.323  0.5499  0.0017  0.1487
 9729TIP3   OH250677   5.030   5.757   4.653  0.2062  0.0486 -0.3167
 9729TIP3    H150678   5.105   5.706   4.626 -0.0860 -1.1748  1.0859
 9729TIP3    H250679   4.981   5.699   4.712  0.6543  2.4281  2.5324
 9730TIP3   OH250680   5.386   0.658   3.032 -0.1414 -0.7537  0.1161
 9730TIP3    H150681   5.402   0.752   3.023 -0.4987 -0.9351 -2.9459
 9730TIP3    H250682   5.469   0.622   3.062  0.7959  0.2248 -1.2604
 9731TIP3   OH250683   6.287   6.776   0.660  0.4195 -0.0768 -0.1358
 9731TIP3    H150684   6.255   6.776   0.750 -2.5738  3.4164 -1.0794
 9731TIP3    H250685   6.211   6.749   0.608  1.5565 -0.1923 -1.7782
 9732TIP3   OH250686   4.065   3.613  14.501 -0.3250 -0.1504  0.1214
 9732TIP3    H150687   4.147   3.585  14.542  0.7192  0.2375 -1.6399
 9732TIP3    H250688   4.059   3.706  14.521 -0.8511 -0.3900  1.0941
 9733TIP3   OH250689   3.825   1.199  15.313  0.2588 -0.7709 -0.4005
 9733TIP3    H150690   3.845   1.265  15.247  0.7704 -0.6837 -0.1594
 9733TIP3    H250691   3.787   1.249  15.386 -1.0453 -0.9544 -0.9275
 9734TIP3   OH250692   5.844   6.579   4.148  0.6397  0.3233 -0.4554
 9734TIP3    H150693   5.786   6.504   4.164  0.5101  0.3620 -0.7472
 9734TIP3    H250694   5.802   6.652   4.193  0.2160  0.4572 -1.0712
 9735TIP3   OH250695   4.838   5.202   3.129 -0.2489  0.0419  0.0694
 9735TIP3    H150696   4.876   5.115   3.136 -0.1458  0.0198 -0.6673
 9735TIP3    H250697   4.847   5.240   3.216 -0.2798 -0.6798  0.3843
 9736TIP3   OH250698   3.701   1.429  12.672 -0.0684  0.2394  0.3109
 9736TIP3    H150699   3.770   1.490  12.696  0.0195  0.5242 -0.6441
 9736TIP3    H250700   3.696   1.367  12.745  1.2700  0.1438  0.3200
 9737TIP3   OH250701   6.618   1.805   3.189 -0.2097  0.2610  0.3667
 9737TIP3    H150702   6.617   1.733   3.252 -1.1210 -0.8594 -0.9053
 9737TIP3    H250703   6.577   1.878   3.236  0.3597 -0.1542  1.5293
 9738TIP3   OH250704   0.298   0.669  15.203  0.2422 -0.5930  0.0490
 9738TIP3    H150705   0.318   0.726  15.129 -1.5953  3.2303  2.2861
 9738TIP3    H250706   0.202   0.659  15.200  0.2666 -1.2842  1.2472
 9739TIP3   OH250707   4.541   1.470   3.653 -0.3731  0.2654  0.3855
 9739TIP3    H150708   4.465   1.457   3.596  0.1758  1.1255 -0.5481
 9739TIP3    H250709   4.572   1.382   3.672 -0.7592 -0.0348 -0.3744
 9740TIP3   OH250710   2.160   6.476  12.470 -0.1355  0.2034  0.1570
 9740TIP3    H150711   2.163   6.535  12.395  0.8161 -0.5644 -0.4245
 9740TIP3    H250712   2.067   6.458  12.483 -0.3160  0.5113 -0.7118
 9741TIP3   OH250713   1.720   2.484  17.029 -0.8199  0.1504 -0.6048
 9741TIP3    H150714   1.758   2.507  16.944 -0.0978  1.6509  0.1008
 9741TIP3    H250715   1.627   2.504  17.020 -1.0627 -1.3114 -1.5754
 9742TIP3   OH250716   3.023   0.502  15.915  0.1208  0.0434 -0.1231
 9742TIP3    H150717   3.110   0.519  15.952  1.3912 -3.2209 -1.3564
 9742TIP3    H250718   3.038   0.498  15.820 -0.9845 -2.2161 -0.2472
 9743TIP3   OH250719   0.284   3.985   3.224  0.0199 -0.0422  0.0074
 9743TIP3    H150720   0.261   3.967   3.133  0.1805 -3.1424  0.5259
 9743TIP3    H250721   0.211   4.038   3.257 -1.5900 -1.5120 -1.0879
 9744TIP3   OH250722   3.026   1.042   5.829 -0.4476 -0.5861  0.2770
 9744TIP3    H150723   3.101   1.045   5.769 -2.0202 -2.1601 -1.8239
 9744TIP3    H250724   3.006   1.134   5.846  1.1226 -0.1329 -0.1884
 9745TIP3   OH250725   0.502   0.356   2.532 -0.6875 -0.2232 -0.4483
 9745TIP3    H150726   0.442   0.416   2.576 -2.6216 -1.7030 -0.9931
 9745TIP3    H250727   0.474   0.359   2.440  0.7314 -0.1788 -0.8825
 9746TIP3   OH250728   0.911   0.976  15.429  0.2955 -0.9389 -0.1767
 9746TIP3    H150729   0.967   0.899  15.436  2.2335  0.3605 -0.8825
 9746TIP3    H250730   0.955   1.043  15.482  0.4318  0.6493 -2.2250
 9747TIP3   OH250731   1.684   3.606   2.524  0.1596 -0.0519 -0.4341
 9747TIP3    H150732   1.690   3.679   2.463  0.0749 -0.0761 -0.4711
 9747TIP3    H250733   1.655   3.646   2.606  1.1223  0.1162 -0.1668
 9748TIP3   OH250734   6.100   0.766   3.721  0.2078  0.0029 -0.0685
 9748TIP3    H150735   6.145   0.843   3.686 -1.2889  0.9191 -0.0130
 9748TIP3    H250736   6.008   0.783   3.704 -0.0035 -2.8168 -2.0996
 9749TIP3   OH250737   2.632   3.711  11.322  0.5421  0.0123 -0.0463
 9749TIP3    H150738   2.673   3.641  11.272 -1.2031 -1.6868  0.8488
 9749TIP3    H250739   2.569   3.750  11.260 -1.1661 -1.6835  0.5649
 9750TIP3   OH250740   3.969   2.326  13.620  0.3040 -0.0720  0.2386
 9750TIP3    H150741   3.899   2.365  13.567  0.3871 -1.2729 -0.7805
 9750TIP3    H250742   3.935   2.241  13.646  0.7570  0.0095  1.0987
 9751TIP3   OH250743   4.956   2.875   5.829 -0.1720  0.6696 -0.8192
 9751TIP3    H150744   5.015   2.900   5.757 -0.4278  1.5632 -0.7236
 9751TIP3    H250745   5.008   2.813   5.881 -0.5535 -1.2735 -2.6524
 9752TIP3   OH250746   4.786   1.933  17.057 -0.0891 -0.2119 -0.0585
 9752TIP3    H150747   4.778   2.008  16.998 -0.4252  0.0380  0.3015
 9752TIP3    H250748   4.855   1.959  17.118  1.6198 -1.2480 -1.4880
 9753TIP3   OH250749   4.064   6.549   0.135 -0.2702  0.1197 -0.1858
 9753TIP3    H150750   4.158   6.568   0.137 -0.4774  1.3225 -1.0585
 9753TIP3    H250751   4.056   6.460   0.169  1.3177 -0.4781 -1.3346
 9754TIP3   OH250752   4.041   5.954  17.183  0.1383  0.1902 -0.5080
 9754TIP3    H150753   4.079   6.003  17.111  2.4442 -1.1458 -0.2552
 9754TIP3    H250754   4.045   5.862  17.155  2.6191 -0.5340  1.8829
 9755TIP3   OH250755   6.424   0.123   4.597 -0.5743 -0.4512 -0.4667
 9755TIP3    H150756   6.385   0.184   4.661 -1.9431 -1.4312 -0.3513
 9755TIP3    H250757   6.410   0.165   4.512  1.1972  0.8293 -0.1474
 9756TIP3   OH250758   2.409   3.725  17.289  0.2152 -0.0432 -0.1743
 9756TIP3    H150759   2.468   3.692  17.222 -0.2205 -0.4922 -0.3425
 9756TIP3    H250760   2.367   3.801  17.248  0.9946  0.5444  0.1065
 9757TIP3   OH250761   3.936   6.403   1.789 -0.4714  0.0177  0.4505
 9757TIP3    H150762   3.930   6.496   1.765 -2.1906 -0.0632  0.4536
 9757TIP3    H250763   3.961   6.403   1.881  4.8229  0.3634 -0.8633
 9758TIP3   OH250764   3.932   1.379   5.207 -0.1940 -0.1136  0.6048
 9758TIP3    H150765   3.839   1.393   5.187  0.0389  1.1470  0.3543
 9758TIP3    H250766   3.935   1.369   5.302 -0.2718  2.6362  0.9324
 9759TIP3   OH250767   3.725   1.955   4.753  1.1919 -0.0466  0.7159
 9759TIP3    H150768   3.753   2.044   4.732  1.4431 -0.4953 -0.9488
 9759TIP3    H250769   3.716   1.912   4.667  1.0956 -1.6243  1.4992
 9760TIP3   OH250770   6.704   5.946  12.142 -0.2038 -0.4424 -0.2767
 9760TIP3    H150771   6.743   6.022  12.098 -0.6833 -0.6662 -1.0996
 9760TIP3    H250772   6.663   5.983  12.220 -1.4852  0.3331 -1.2997
 9761TIP3   OH250773   6.709   5.983  16.634 -0.3118  0.3199  0.0913
 9761TIP3    H150774   6.798   5.996  16.601 -0.4579  0.3787 -0.2814
 9761TIP3    H250775   6.654   5.992  16.557 -0.7482  1.4996  0.5358
 9762TIP3   OH250776   4.124   2.503  11.841 -0.5971 -0.3750 -0.1928
 9762TIP3    H150777   4.176   2.536  11.768 -0.6657 -0.7850 -0.4289
 9762TIP3    H250778   4.180   2.517  11.918 -0.9899  1.1126 -0.1684
 9763TIP3   OH250779   1.244   4.354  13.483  0.3140  0.4224  0.1224
 9763TIP3    H150780   1.288   4.271  13.506  1.3525  0.8641 -0.2405
 9763TIP3    H250781   1.291   4.420  13.534  0.3607  0.9607 -0.6271
 9764TIP3   OH250782   3.741   0.549   6.989  0.5436  0.2564 -0.1054
 9764TIP3    H150783   3.685   0.606   7.042  0.7446  0.9059 -0.5888
 9764TIP3    H250784   3.829   0.582   7.005  0.6057  0.4438 -0.8280
 9765TIP3   OH250785   3.211   1.777   1.230  0.3729  0.0129  0.1254
 9765TIP3    H150786   3.189   1.743   1.316 -0.3084 -2.7165 -1.0886
 9765TIP3    H250787   3.127   1.802   1.191  0.6727  1.2006  0.2225
 9766TIP3   OH250788   1.786   4.220  12.678 -0.3888  0.5944  0.3278
 9766TIP3    H150789   1.769   4.305  12.637 -1.2537  0.0770 -0.4045
 9766TIP3    H250790   1.868   4.232  12.725 -1.1465  2.2100  1.2858
 9767TIP3   OH250791   3.768   0.974   1.161  0.2960 -0.5160  0.4624
 9767TIP3    H150792   3.715   0.897   1.142 -1.4950  0.1951  2.4529
 9767TIP3    H250793   3.801   0.960   1.249  0.0808  0.9242  0.7832
 9768TIP3   OH250794   1.388   4.417   1.705 -0.2320  0.2707 -0.4379
 9768TIP3    H150795   1.468   4.412   1.757  1.0243 -2.6746 -2.5360
 9768TIP3    H250796   1.320   4.379   1.760  0.7908 -1.4789 -0.3530
 9769TIP3   OH250797   2.720   4.117  13.865  0.1412  0.4058  0.2325
 9769TIP3    H150798   2.676   4.033  13.877 -1.3909  0.8580 -1.9781
 9769TIP3    H250799   2.793   4.115  13.927 -0.2113 -2.3115  0.6019
 9770TIP3   OH250800   5.530   1.162  10.918  0.4884  0.1490 -0.2519
 9770TIP3    H150801   5.542   1.069  10.902  0.7121  0.2018 -0.3941
 9770TIP3    H250802   5.522   1.201  10.831 -2.8361 -0.1528 -0.1416
 9771TIP3   OH250803   2.727   3.448  16.474 -0.2025  0.1876  0.1327
 9771TIP3    H150804   2.767   3.367  16.442  1.1957  0.4917  1.0830
 9771TIP3    H250805   2.705   3.497  16.394  1.1534 -0.0706 -0.4087
 9772TIP3   OH250806   1.232   1.157   2.574 -0.2667 -0.5279 -0.0769
 9772TIP3    H150807   1.299   1.090   2.588  0.6969 -0.0595 -2.3007
 9772TIP3    H250808   1.252   1.194   2.488 -2.1619  1.0402  0.1200
 9773TIP3   OH250809   4.887   5.210  13.253  0.7868 -0.0313 -0.6355
 9773TIP3    H150810   4.865   5.280  13.314 -0.1491 -1.4359  0.6768
 9773TIP3    H250811   4.979   5.191  13.270  0.2979 -1.0063  0.9555
 9774TIP3   OH250812   4.575   6.104  14.031  0.1519  0.4053 -0.1745
 9774TIP3    H150813   4.609   6.192  14.046 -0.8376  0.6250  0.7971
 9774TIP3    H250814   4.510   6.115  13.961  0.9374  0.2252 -0.9545
 9775TIP3   OH250815   5.866   0.918  15.757 -0.8264  0.1446  0.4040
 9775TIP3    H150816   5.894   0.855  15.823  1.0168  0.4907 -0.0274
 9775TIP3    H250817   5.931   0.989  15.762 -1.4837  0.8496 -0.7847
 9776TIP3   OH250818   1.101   1.092  12.030 -0.0128 -0.2963 -0.0539
 9776TIP3    H150819   1.011   1.060  12.026  0.8421 -2.8065 -0.0543
 9776TIP3    H250820   1.109   1.128  12.118 -1.3082  0.8558 -0.3940
 9777TIP3   OH250821   1.754   2.844  14.433  0.3762  0.2739  0.3985
 9777TIP3    H150822   1.735   2.915  14.494  1.7192  0.4288  0.6718
 9777TIP3    H250823   1.669   2.810  14.408 -0.2107  0.3989  2.1484
 9778TIP3   OH250824   0.862   1.820   4.778  0.6903  0.0595 -0.0250
 9778TIP3    H150825   0.868   1.798   4.871  1.2340  2.0017  0.4354
 9778TIP3    H250826   0.768   1.822   4.760  0.4513  2.4255  1.2179
 9779TIP3   OH250827   6.381   6.763  12.965 -0.1434 -0.5404  0.4076
 9779TIP3    H150828   6.399   6.669  12.967 -0.1617 -0.5362  0.8022
 9779TIP3    H250829   6.340   6.781  13.049  1.1193  0.0710  0.8981
 9780TIP3   OH250830   2.722   6.479  11.849  0.2136 -0.4908 -0.1769
 9780TIP3    H150831   2.795   6.418  11.838 -0.1959 -0.9262 -0.5266
 9780TIP3    H250832   2.763   6.565  11.861  0.7821 -0.7537 -0.2611
 9781TIP3   OH250833   0.171   2.675  14.368 -0.2693  0.0181 -0.5563
 9781TIP3    H150834   0.199   2.607  14.307  0.0391  0.3256 -0.7632
 9781TIP3    H250835   0.126   2.628  14.438  0.7283 -0.4918 -0.2433
 9782TIP3   OH250836   6.021   2.982  11.795 -0.4844  0.4207 -0.2846
 9782TIP3    H150837   6.108   2.947  11.780  0.0342  1.3225  0.6145
 9782TIP3    H250838   5.997   2.951  11.883 -1.7856 -1.2684 -1.1857
 9783TIP3   OH250839   0.222   1.157  17.265  0.2690  0.3852 -0.3728
 9783TIP3    H150840   0.274   1.129  17.340 -1.0125 -0.7836  0.1064
 9783TIP3    H250841   0.132   1.159  17.297 -0.3074 -0.2241 -1.8856
 9784TIP3   OH250842   1.858   6.043  15.627 -0.3745  0.9045 -0.7719
 9784TIP3    H150843   1.836   6.017  15.537  0.6264 -1.6802 -0.3103
 9784TIP3    H250844   1.791   6.001  15.680  0.8931 -0.2328 -0.0510
 9785TIP3   OH250845   3.208   3.561   4.366 -0.0617 -0.1568 -0.2929
 9785TIP3    H150846   3.153   3.525   4.436  1.3559 -1.3143  0.2493
 9785TIP3    H250847   3.163   3.539   4.285 -0.2313 -1.3893  0.1315
 9786TIP3   OH250848   4.431   3.770  12.595  0.1022 -0.0660  0.3210
 9786TIP3    H150849   4.453   3.817  12.515 -0.6566  0.2024  0.2711
 9786TIP3    H250850   4.507   3.714  12.611  0.2885 -0.0698 -0.5416
 9787TIP3   OH250851   4.756   4.290   0.904  0.0942 -0.2173 -0.2434
 9787TIP3    H150852   4.744   4.308   0.997  1.7049  0.6401 -0.1847
 9787TIP3    H250853   4.785   4.199   0.899 -0.8113 -0.5276  0.0153
 9788TIP3   OH250854   6.242   2.713   1.047  0.4788  0.3539  0.0043
 9788TIP3    H150855   6.241   2.623   1.080 -1.0339  0.8455  1.3508
 9788TIP3    H250856   6.150   2.738   1.041  0.9054  2.3035  1.0142
 9789TIP3   OH250857   6.761   2.488   2.306 -0.5707 -0.1765 -0.1842
 9789TIP3    H150858   6.700   2.452   2.242 -1.3950  2.0132 -0.6917
 9789TIP3    H250859   6.806   2.412   2.343 -3.4072 -1.8428 -0.0084
 9790TIP3   OH250860   1.822   0.007  15.205 -0.0840  0.0734 -0.1008
 9790TIP3    H150861   1.822   0.037  15.296 -2.5289 -1.3378  0.4272
 9790TIP3    H250862   1.810  -0.088  15.211 -1.9755  0.1511 -1.9027
 9791TIP3   OH250863   5.772   3.330  16.959 -0.2985 -0.6227  0.2015
 9791TIP3    H150864   5.787   3.338  17.053  0.5992 -0.4407  0.0409
 9791TIP3    H250865   5.826   3.256  16.932 -1.2338 -1.2441 -0.0228
 9792TIP3   OH250866   6.293   1.860   5.630  0.3158 -0.8208  0.4865
 9792TIP3    H150867   6.330   1.791   5.685  0.2755  0.1216  1.7107
 9792TIP3    H250868   6.223   1.898   5.683  0.1349 -0.0481 -0.2984
 9793TIP3   OH250869   1.000   3.821  12.495  0.3156  0.6998  0.0039
 9793TIP3    H150870   0.947   3.900  12.483  0.1479  0.4624 -0.8459
 9793TIP3    H250871   1.090   3.852  12.492  0.2643  0.7474 -1.1478
 9794TIP3   OH250872   3.378   1.876  14.557  0.2941  0.3180  0.0076
 9794TIP3    H150873   3.332   1.806  14.511 -0.8740  1.2713 -0.3239
 9794TIP3    H250874   3.369   1.854  14.650 -1.5615  0.8974 -0.0046
 9795TIP3   OH250875   4.536   1.488   1.923 -0.0600  0.4844 -0.0013
 9795TIP3    H150876   4.609   1.518   1.869  1.0000 -1.7318  0.1210
 9795TIP3    H250877   4.578   1.438   1.993 -1.7030 -0.7545  0.1272
 9796TIP3   OH250878   4.776   5.520  17.177 -0.2283 -0.3535  0.0758
 9796TIP3    H150879   4.812   5.479  17.255  1.3489  0.7334 -0.0625
 9796TIP3    H250880   4.719   5.454  17.139 -0.7123 -1.0217  1.9391
 9797TIP3   OH250881   2.135   5.452   5.171 -0.0419 -0.0090 -0.5791
 9797TIP3    H150882   2.103   5.375   5.124  1.9879 -0.9407 -0.5060
 9797TIP3    H250883   2.123   5.430   5.263 -0.8986  0.4149 -0.5860
 9798TIP3   OH250884   2.050   1.257   1.183  0.0399  0.0447  0.6671
 9798TIP3    H150885   2.123   1.224   1.235  0.7049  1.4725  0.6792
 9798TIP3    H250886   2.087   1.331   1.135 -1.0857  0.0053 -0.2806
 9799TIP3   OH250887   0.066   0.480   1.729  0.2269  0.6074  0.2518
 9799TIP3    H150888  -0.020   0.439   1.724  0.8025 -0.7689  1.1139
 9799TIP3    H250889   0.065   0.528   1.812  1.0913 -1.3674  1.4379
 9800TIP3   OH250890   3.860   5.558   2.806  0.1496 -0.2147  0.3913
 9800TIP3    H150891   3.904   5.483   2.767  1.9206 -0.2757  2.3716
 9800TIP3    H250892   3.840   5.616   2.732  0.6468 -1.6734 -0.9096
 9801TIP3   OH250893   6.066   4.398   3.400  0.7366  0.5231  0.1464
 9801TIP3    H150894   6.109   4.335   3.341  1.5108  1.5863 -0.4348
 9801TIP3    H250895   5.998   4.438   3.346 -0.0347 -0.1033  0.6410
 9802TIP3   OH250896   2.077   4.881   4.655 -0.5295 -0.3052  0.0142
 9802TIP3    H150897   2.073   4.908   4.563 -0.0600  0.8422  0.3227
 9802TIP3    H250898   2.159   4.832   4.662 -0.4065 -0.1209 -0.1163
 9803TIP3   OH250899   1.902   0.614   0.162 -0.3653 -0.3833  0.0920
 9803TIP3    H150900   1.987   0.615   0.204  0.1231 -0.1998 -0.8872
 9803TIP3    H250901   1.856   0.539   0.201  0.5132 -0.9219  0.0894
 9804TIP3   OH250902   2.687   0.200  15.344 -0.0383  0.4395  0.0023
 9804TIP3    H150903   2.608   0.169  15.301  0.3676  0.8858 -1.0725
 9804TIP3    H250904   2.697   0.291  15.315  0.9925  0.3155 -0.0570
 9805TIP3   OH250905   0.441   0.542  14.401 -0.5764 -0.0801 -0.1520
 9805TIP3    H150906   0.524   0.514  14.362 -0.5230 -0.9407  0.5671
 9805TIP3    H250907   0.454   0.634  14.424  1.0818 -0.9254  2.3928
 9806TIP3   OH250908   1.107   4.137  15.123  0.0871  0.0365  0.6261
 9806TIP3    H150909   1.034   4.074  15.119  0.8448 -0.9128  1.5783
 9806TIP3    H250910   1.128   4.144  15.216 -0.6017  2.4406  0.6288
 9807TIP3   OH250911   1.035   2.476   6.261  0.0019 -0.3901  0.3711
 9807TIP3    H150912   0.942   2.493   6.272 -0.1905 -0.8602 -0.4643
 9807TIP3    H250913   1.065   2.545   6.201 -0.1014 -1.0200 -0.4267
 9808TIP3   OH250914   0.562   1.013   0.397  0.0906  0.0825  0.3550
 9808TIP3    H150915   0.510   0.984   0.323 -1.5678 -1.5846  2.1097
 9808TIP3    H250916   0.507   1.077   0.441  1.0960  1.1174  0.1101
 9809TIP3   OH250917   0.601   3.964   2.536 -0.9135  0.4137 -0.8137
 9809TIP3    H150918   0.549   3.887   2.512 -0.1430 -0.3986  0.1434
 9809TIP3    H250919   0.678   3.930   2.581 -0.7386  1.7560 -0.0442
 9810TIP3   OH250920   1.624   1.470  12.079  0.4686 -0.4321  0.0049
 9810TIP3    H150921   1.702   1.505  12.122  0.3175 -2.3839  1.9172
 9810TIP3    H250922   1.658   1.407  12.016  0.5307  0.3268 -0.7341
 9811TIP3   OH250923   3.867   2.986  16.213  0.5221 -0.1078  0.2127
 9811TIP3    H150924   3.894   3.055  16.152  1.1885  0.1614  0.8047
 9811TIP3    H250925   3.772   2.980  16.202  0.3456  1.4949  0.7646
 9812TIP3   OH250926   2.832   2.989  11.837  0.4351  0.1214  0.3112
 9812TIP3    H150927   2.799   3.079  11.831  1.8512  0.6825  0.6192
 9812TIP3    H250928   2.813   2.951  11.752  0.3110  0.8923 -0.0128
 9813TIP3   OH250929   3.577   3.337   1.503  0.3375 -0.3873  0.0305
 9813TIP3    H150930   3.550   3.344   1.412  0.3581  0.3858  0.0857
 9813TIP3    H250931   3.590   3.243   1.517  0.5060 -0.4875 -0.8056
 9814TIP3   OH250932   0.548   5.919  15.969  0.7452 -0.0494 -0.4455
 9814TIP3    H150933   0.608   5.935  15.896  0.4109 -0.6646 -0.8550
 9814TIP3    H250934   0.595   5.858  16.026  0.6115 -0.3413 -0.6448
 9815TIP3   OH250935   0.921   4.282   1.906  0.4678  0.4121  0.1074
 9815TIP3    H150936   0.889   4.203   1.950  0.1341  0.9173  0.7908
 9815TIP3    H250937   0.850   4.346   1.917  0.3210  0.4972 -1.3076
 9816TIP3   OH250938   1.307   2.596  14.221 -0.1500 -0.2095 -0.0510
 9816TIP3    H150939   1.264   2.628  14.301 -0.2992  0.1438 -0.2689
 9816TIP3    H250940   1.320   2.675  14.169  1.0025 -0.2785  0.1254
 9817TIP3   OH250941   3.613   6.090   1.713  0.3212 -0.0593  0.2407
 9817TIP3    H150942   3.708   6.100   1.718  0.3027  0.9600 -0.9915
 9817TIP3    H250943   3.592   6.101   1.620 -1.3773  3.6190  0.9533
 9818TIP3   OH250944   1.808   4.701  11.708 -0.2396 -0.3766 -0.3600
 9818TIP3    H150945   1.734   4.738  11.660  0.5485  0.9157 -0.5999
 9818TIP3    H250946   1.886   4.735  11.663  0.5056 -1.0220  0.4172
 9819TIP3   OH250947   0.082   3.390  15.300 -0.3113  0.3126 -0.3701
 9819TIP3    H150948   0.076   3.371  15.207 -0.0451 -1.3579 -0.0626
 9819TIP3    H250949   0.068   3.305  15.343  0.4181  0.9030  1.0827
 9820TIP3   OH250950   5.162   2.383   0.332 -0.1777  0.3573 -0.2304
 9820TIP3    H150951   5.151   2.300   0.378 -0.3830 -0.7561 -2.2385
 9820TIP3    H250952   5.230   2.366   0.267  1.0300  2.2727  0.4930
 9821TIP3   OH250953   3.886   0.140   5.788  0.7041  0.2700  0.1619
 9821TIP3    H150954   3.855   0.065   5.839 -1.2527 -0.4117 -1.9512
 9821TIP3    H250955   3.955   0.104   5.732  1.9724  0.7472  1.3993
 9822TIP3   OH250956   1.942   1.441  13.155  0.2700  0.4808 -0.2294
 9822TIP3    H150957   1.997   1.363  13.154 -0.3244  0.0620 -2.4708
 9822TIP3    H250958   1.883   1.430  13.080 -0.3763  2.6930 -0.0860
 9823TIP3   OH250959   5.866   2.097   5.695  0.1904 -0.2595 -0.2522
 9823TIP3    H150960   5.840   2.010   5.666 -1.2785  0.3843 -0.8889
 9823TIP3    H250961   5.880   2.147   5.614  0.9945  0.1070  0.1049
 9824TIP3   OH250962   5.537   5.882  11.326  0.2460 -0.3473  0.3220
 9824TIP3    H150963   5.614   5.869  11.381 -0.3757 -1.4830  0.9319
 9824TIP3    H250964   5.527   5.799  11.279  0.3421  0.3560 -0.9722
 9825TIP3   OH250965   2.635   1.094  13.572 -0.1730  0.1538  0.2409
 9825TIP3    H150966   2.674   1.162  13.626 -1.7686  1.9642 -0.8539
 9825TIP3    H250967   2.710   1.052  13.529  0.8330  1.1268  1.0301
 9826TIP3   OH250968   4.086   2.621   5.254  0.5002 -0.0330  0.1764
 9826TIP3    H150969   4.170   2.579   5.270  0.6863  0.2569 -0.0391
 9826TIP3    H250970   4.023   2.549   5.250  0.7556 -0.2571  0.2229
 9827TIP3   OH250971   5.554   1.353  13.586  0.1941  0.5799 -0.1594
 9827TIP3    H150972   5.598   1.322  13.666  0.8867  1.5706 -0.1360
 9827TIP3    H250973   5.550   1.448  13.598  1.5145  0.8686 -1.9085
 9828TIP3   OH250974   1.633   2.676   6.170 -0.7117 -0.2207 -0.0035
 9828TIP3    H150975   1.538   2.668   6.175 -0.5323 -1.6736  1.5413
 9828TIP3    H250976   1.665   2.587   6.181  0.9089  0.5394  1.7994
 9829TIP3   OH250977   3.753   0.782   6.761 -0.1413  0.0815 -0.3972
 9829TIP3    H150978   3.689   0.839   6.716 -1.0219  0.1258  0.8718
 9829TIP3    H250979   3.699   0.722   6.812  0.8118  1.5757  2.5051
 9830TIP3   OH250980   5.545   4.639   1.647 -0.1540 -0.2567 -0.0835
 9830TIP3    H150981   5.474   4.575   1.639 -0.2375  0.0585 -2.2475
 9830TIP3    H250982   5.591   4.615   1.727  0.2908 -3.5190 -1.2499
 9831TIP3   OH250983   6.346   6.223  11.094 -0.2034  0.6197 -0.1052
 9831TIP3    H150984   6.394   6.141  11.104 -0.5612  0.5260  0.8759
 9831TIP3    H250985   6.398   6.274  11.032  0.6422  0.1268  0.1942
 9832TIP3   OH250986   6.520   4.784  11.591 -0.2338 -0.1599 -0.2080
 9832TIP3    H150987   6.589   4.834  11.548  0.7740 -1.6756 -0.3876
 9832TIP3    H250988   6.445   4.790  11.532 -0.0585  0.9409 -0.3310
 9833TIP3   OH250989   3.318   3.049  16.856  0.1318 -0.0612  0.1837
 9833TIP3    H150990   3.252   3.112  16.884 -0.9023 -0.7193 -0.7254
 9833TIP3    H250991   3.302   2.972  16.911  0.5737  0.0097  0.4135
 9834TIP3   OH250992   2.000   5.381   2.922  0.5518 -0.0462 -0.0735
 9834TIP3    H150993   2.049   5.305   2.888 -0.4695 -1.6193  1.8479
 9834TIP3    H250994   1.930   5.395   2.858  0.1289 -1.4040  0.0658
 9835TIP3   OH250995   5.472   5.113  12.408 -0.2199  0.2050  0.0349
 9835TIP3    H150996   5.403   5.112  12.475  1.0251 -3.5719  1.3470
 9835TIP3    H250997   5.542   5.166  12.447 -0.4734  0.0443  0.7163
 9836TIP3   OH250998   2.735   1.590   5.867  0.3341  1.0380  0.1689
 9836TIP3    H150999   2.646   1.589   5.830  0.4358  0.5029 -0.0734
 9836TIP3    H251000   2.779   1.517   5.824  0.3494  0.1755  1.6077
 9837TIP3   OH251001   6.298   5.390  15.142 -0.1828  1.1560 -0.4682
 9837TIP3    H151002   6.211   5.381  15.103 -0.4248  2.2577 -0.1956
 9837TIP3    H251003   6.289   5.462  15.205  0.6115  0.4599  0.4620
 9838TIP3   OH251004   4.703   2.427  16.960 -0.1644 -0.0404  0.2044
 9838TIP3    H151005   4.649   2.476  16.899  0.1465 -1.4824 -1.2855
 9838TIP3    H251006   4.680   2.461  17.046 -2.5364  0.2047 -0.4960
 9839TIP3   OH251007   3.323   5.432   6.521 -0.3993 -0.3615  0.1477
 9839TIP3    H151008   3.361   5.467   6.601  0.3560  0.4137 -0.5403
 9839TIP3    H251009   3.230   5.420   6.542 -0.0933 -0.7326  1.3173
 9840TIP3   OH251010   5.596   2.380  13.968  0.2745 -0.2581 -0.9331
 9840TIP3    H151011   5.520   2.335  14.005  0.3597 -0.0750 -0.5339
 9840TIP3    H251012   5.669   2.320  13.983  0.3817 -0.0008 -0.4328
 9841TIP3   OH251013   2.838   2.376   0.070  0.6466 -0.5107 -0.6761
 9841TIP3    H151014   2.849   2.403  -0.021 -0.9765 -0.3120 -0.8289
 9841TIP3    H251015   2.828   2.459   0.118 -1.0857 -0.6751 -0.6981
 9842TIP3   OH251016   6.538   3.200  12.141  0.5840 -0.1805 -0.3463
 9842TIP3    H151017   6.530   3.226  12.049  0.0799  2.0958  0.3250
 9842TIP3    H251018   6.449   3.203  12.175  0.7741 -0.9989  0.2516
 9843TIP3   OH251019   5.637   3.121  15.277 -0.6153  0.3817  0.1117
 9843TIP3    H151020   5.659   3.104  15.186  0.9977  1.6014  0.2529
 9843TIP3    H251021   5.664   3.212  15.292 -1.2768  0.3401  1.6777
 9844TIP3   OH251022   5.349   4.218   1.141 -0.5855  0.4392 -0.2728
 9844TIP3    H151023   5.343   4.313   1.146 -0.8200  0.4286 -0.3753
 9844TIP3    H251024   5.259   4.188   1.133 -0.5789  0.1477  0.7877
 9845TIP3   OH251025   1.302   1.066  10.723  0.3090 -0.3574 -0.1351
 9845TIP3    H151026   1.349   1.016  10.789 -0.2039  0.4560  0.8581
 9845TIP3    H251027   1.368   1.126  10.688  0.2411  0.1979  0.6633
 9846TIP3   OH251028   4.126   3.925  13.762 -0.1442  0.0791 -0.9153
 9846TIP3    H151029   4.083   3.915  13.846  0.6995  1.4600 -0.2957
 9846TIP3    H251030   4.103   4.014  13.734  0.2217 -0.0897 -1.7742
 9847TIP3   OH251031   3.910   3.286  16.284 -0.2009 -0.2941 -0.6379
 9847TIP3    H151032   3.946   3.295  16.373 -0.5535  0.7595 -0.5996
 9847TIP3    H251033   3.834   3.344  16.283 -0.7876 -1.0705 -1.3224
 9848TIP3   OH251034   0.103   6.719   3.904  0.4449 -0.9418 -0.5324
 9848TIP3    H151035   0.078   6.630   3.927  1.9835 -1.1333  0.4937
 9848TIP3    H251036   0.191   6.710   3.866  1.2330  0.2841  0.9441
 9849TIP3   OH251037   2.001   0.750   4.393  0.0897  0.1751  0.0346
 9849TIP3    H151038   1.996   0.655   4.399  1.1362  0.1329  0.3594
 9849TIP3    H251039   2.008   0.768   4.299  1.9696 -0.1929  0.0900
 9850TIP3   OH251040   6.312   0.332  14.347  0.4590  0.3232  0.2527
 9850TIP3    H151041   6.274   0.402  14.294  1.6506 -0.4037 -1.5851
 9850TIP3    H251042   6.357   0.377  14.418  0.3609  1.3782 -0.3506
 9851TIP3   OH251043   4.264   1.483  12.753  0.8783  0.0099 -0.1638
 9851TIP3    H151044   4.232   1.467  12.664 -1.1833 -0.4594  0.6245
 9851TIP3    H251045   4.232   1.571  12.775  2.9630  0.8770 -0.5489
 9852TIP3   OH251046   3.961   5.123   1.114  0.5606 -0.1949  0.2129
 9852TIP3    H151047   3.981   5.040   1.069  1.4295 -0.7040  1.5105
 9852TIP3    H251048   3.884   5.156   1.069  1.0107 -1.0307 -1.2179
 9853TIP3   OH251049   6.320   2.931   0.010 -0.3551  0.2430  0.0201
 9853TIP3    H151050   6.329   2.947   0.104  0.9435 -1.4386  0.2123
 9853TIP3    H251051   6.407   2.901  -0.017 -0.6855  0.8476 -1.7525
 9854TIP3   OH251052   1.221   6.076  15.193  0.0797 -0.2329  1.1540
 9854TIP3    H151053   1.211   6.169  15.212 -0.5618 -0.4900  2.1260
 9854TIP3    H251054   1.315   6.063  15.186  0.0916  1.0939 -2.1903
 9855TIP3   OH251055   0.133   6.125  13.674 -0.1562  0.6958  0.3580
 9855TIP3    H151056   0.129   6.211  13.717 -2.1899  0.4671  0.6732
 9855TIP3    H251057   0.225   6.114  13.652  0.5498  1.8554  2.5793
 9856TIP3   OH251058   6.741   4.618  14.077 -0.0668  0.1931 -0.8949
 9856TIP3    H151059   6.678   4.547  14.085 -1.0204  1.2764  1.8174
 9856TIP3    H251060   6.824   4.575  14.061 -0.3364 -1.6740  2.3692
 9857TIP3   OH251061   3.717   4.427  13.506  0.5933  0.1207 -0.4687
 9857TIP3    H151062   3.651   4.422  13.576 -0.5569 -0.3964 -1.5601
 9857TIP3    H251063   3.765   4.507  13.524  0.7781 -0.3743  1.3196
 9858TIP3   OH251064   2.664   4.466  11.650 -0.4250  0.4881  0.1585
 9858TIP3    H151065   2.655   4.383  11.697  0.2143  0.0072 -0.5594
 9858TIP3    H251066   2.597   4.463  11.582  0.6560 -0.1626 -0.9052
 9859TIP3   OH251067   2.602   0.757  10.848  0.3330  0.5502  0.0948
 9859TIP3    H151068   2.606   0.852  10.839  0.7061  0.5290  0.0220
 9859TIP3    H251069   2.599   0.724  10.758  2.1429  0.4200  0.0494
 9860TIP3   OH251070   2.871   4.833   2.308 -0.3808 -0.3452 -0.3779
 9860TIP3    H151071   2.782   4.825   2.275 -0.2314  0.5805 -1.0511
 9860TIP3    H251072   2.919   4.876   2.237  0.9004 -1.9525 -0.5251
 9861TIP3   OH251073   6.594   1.287  11.953  0.3666  0.2657 -0.0375
 9861TIP3    H151074   6.625   1.331  12.031  0.4729  0.8614 -0.4160
 9861TIP3    H251075   6.671   1.240  11.920  0.3388  0.0712  0.1713
 9862TIP3   OH251076   5.872   4.873  12.283 -0.0836  0.2324 -0.2067
 9862TIP3    H151077   5.794   4.833  12.322  0.2756  0.8688  1.1857
 9862TIP3    H251078   5.932   4.799  12.269 -0.5998 -0.1387 -0.5161
 9863TIP3   OH251079   2.302   1.791   1.781 -0.0313  0.0554 -0.2184
 9863TIP3    H151080   2.366   1.840   1.729  1.5543 -0.8033  0.8656
 9863TIP3    H251081   2.228   1.851   1.791  1.2821  1.7082 -0.1184
 9864TIP3   OH251082   2.309   5.271  16.049 -0.0020 -0.6433  0.0953
 9864TIP3    H151083   2.238   5.268  16.114  0.5067 -1.1658  0.6309
 9864TIP3    H251084   2.336   5.362  16.047 -0.5492 -0.4786  0.0400
 9865TIP3   OH251085   6.334   2.961   0.276 -0.1377  0.7652  0.0635
 9865TIP3    H151086   6.402   3.010   0.322  2.6689  0.0726 -3.1040
 9865TIP3    H251087   6.369   2.873   0.267 -3.1769 -0.6974  1.7082
 9866TIP3   OH251088   5.972   3.769   5.659  0.3835  0.0540  0.2133
 9866TIP3    H151089   5.880   3.787   5.640  0.3912  0.0876  0.2072
 9866TIP3    H251090   6.000   3.844   5.712  0.4884  0.1916 -0.0332
 9867TIP3   OH251091   1.571   5.149   6.328 -0.0652  0.2616 -0.0786
 9867TIP3    H151092   1.655   5.116   6.363  0.6845  1.9857 -0.1820
 9867TIP3    H251093   1.573   5.242   6.348 -1.4880  0.5137 -1.0902
 9868TIP3   OH251094   6.723   2.772   5.594 -0.5748 -0.0068  0.0258
 9868TIP3    H151095   6.770   2.820   5.525 -0.7800 -0.8272 -0.6885
 9868TIP3    H251096   6.770   2.689   5.602 -1.0866 -0.2757  0.2666
 9869TIP3   OH251097   3.203   5.055  15.557 -0.4438 -0.1372  0.8855
 9869TIP3    H151098   3.260   5.056  15.633  0.6447  0.5957  0.0731
 9869TIP3    H251099   3.169   4.966  15.553  0.0713 -0.3745  1.8021
 9870TIP3   OH251100   5.544   5.627  16.441 -0.1694 -0.1854 -0.4021
 9870TIP3    H151101   5.605   5.561  16.473  0.3733 -0.3268 -1.6798
 9870TIP3    H251102   5.585   5.711  16.462  0.3344 -0.2795 -1.0148
 9871TIP3   OH251103   6.025   2.120   4.387  0.0655  0.1155 -0.2620
 9871TIP3    H151104   5.945   2.171   4.379  0.0416  0.3211  1.1741
 9871TIP3    H251105   6.068   2.128   4.302  0.5214  3.2672  0.2136
 9872TIP3   OH251106   1.008   4.525   5.115 -0.0111 -0.0136 -0.1085
 9872TIP3    H151107   1.075   4.550   5.178 -0.5244 -0.0944  0.4695
 9872TIP3    H251108   1.028   4.577   5.037  0.1947  0.6219  0.3654
 9873TIP3   OH251109   5.069   0.194  16.367 -0.9524 -0.0195  0.3675
 9873TIP3    H151110   5.136   0.132  16.394 -1.6815 -1.3300 -0.7634
 9873TIP3    H251111   5.113   0.251  16.303 -1.1013 -1.3489 -0.9389
 9874TIP3   OH251112   2.223   2.919  10.537  0.5610  0.3984 -0.0110
 9874TIP3    H151113   2.144   2.875  10.507  0.3304  2.6464 -2.9454
 9874TIP3    H251114   2.198   2.958  10.621 -1.5569  1.2820 -1.0153
 9875TIP3   OH251115   5.305   3.106  15.439  0.8342 -0.2005  0.6907
 9875TIP3    H151116   5.226   3.161  15.442 -0.5378 -2.0676 -0.4435
 9875TIP3    H251117   5.377   3.168  15.453 -0.6841  1.8931 -0.3794
 9876TIP3   OH251118   4.963   3.033   1.768 -0.2639 -0.6310  0.1760
 9876TIP3    H151119   5.055   3.058   1.777 -0.0579 -1.1374 -0.4606
 9876TIP3    H251120   4.918   3.114   1.746  0.1271 -0.4934 -0.1210
 9877TIP3   OH251121   0.635   4.910  12.076 -0.0331 -0.0185  0.1890
 9877TIP3    H151122   0.654   4.833  12.021  3.1197  2.6419 -2.6688
 9877TIP3    H251123   0.649   4.879  12.166  2.8019 -2.4231 -0.9873
 9878TIP3   OH251124   6.301   6.578  14.890 -0.0404  0.1222 -0.4141
 9878TIP3    H151125   6.276   6.670  14.884 -0.0547  0.1086 -0.5651
 9878TIP3    H251126   6.298   6.558  14.983  1.5669  0.7114 -0.2271
 9879TIP3   OH251127   1.927   5.809   0.173 -0.0051  0.1131  0.0371
 9879TIP3    H151128   1.932   5.875   0.242 -1.6397  1.6806 -1.2747
 9879TIP3    H251129   1.833   5.791   0.164  0.1231  0.3644 -2.1189
 9880TIP3   OH251130   2.920   2.204   5.423 -0.2336  0.1554  0.1873
 9880TIP3    H151131   2.995   2.259   5.445 -0.7929  1.4607 -1.1102
 9880TIP3    H251132   2.884   2.243   5.344 -1.7311 -1.0151  0.2711
 9881TIP3   OH251133   0.718   2.824   3.049  0.0998 -0.1385  0.0519
 9881TIP3    H151134   0.783   2.822   3.119 -1.1082 -1.6426  1.1457
 9881TIP3    H251135   0.765   2.792   2.972  0.7301 -0.9480  0.7623
 9882TIP3   OH251136   2.523   5.957   4.995  0.2003 -0.0217 -0.5079
 9882TIP3    H151137   2.577   5.972   4.917 -0.4491 -1.5941 -1.2753
 9882TIP3    H251138   2.578   5.904   5.053  0.1976  0.0262 -0.4612
 9883TIP3   OH251139   3.864   4.129  12.714  0.3656  0.5785  0.1234
 9883TIP3    H151140   3.826   4.213  12.687  0.2813  0.3441 -0.5002
 9883TIP3    H251141   3.931   4.152  12.778  0.5829  1.1478 -0.3089
 9884TIP3   OH251142   3.383   5.084   6.651 -0.5500 -0.6553  0.0842
 9884TIP3    H151143   3.342   5.158   6.607 -1.8206 -0.2457  1.9053
 9884TIP3    H251144   3.448   5.123   6.709 -1.2975 -0.9461  1.1270
 9885TIP3   OH251145   6.508   3.930  16.168 -0.4260 -0.2903  0.2288
 9885TIP3    H151146   6.587   3.983  16.178 -0.1452 -0.7182  0.2976
 9885TIP3    H251147   6.436   3.990  16.188 -0.1742  0.3552 -0.7684
 9886TIP3   OH251148   4.793   2.952   2.036  0.1139 -0.4542 -0.6534
 9886TIP3    H151149   4.874   2.997   2.013  1.1594 -2.9048 -2.0115
 9886TIP3    H251150   4.815   2.896   2.110 -1.3242  1.6299  1.4218
 9887TIP3   OH251151   2.455   4.177  13.920 -0.1805  0.3057 -0.1923
 9887TIP3    H151152   2.434   4.088  13.951  0.1145  0.3331  0.0922
 9887TIP3    H251153   2.549   4.174  13.902 -0.4212  0.1780 -1.4821
 9888TIP3   OH251154   5.697   2.760  16.674 -0.3434  0.5457 -0.3671
 9888TIP3    H151155   5.751   2.803  16.741 -0.3904  1.7117 -1.0563
 9888TIP3    H251156   5.685   2.671  16.707  1.9369  0.2758 -0.1466
 9889TIP3   OH251157   2.288   0.720  11.977  0.1507  0.4039 -0.1033
 9889TIP3    H151158   2.374   0.684  11.957 -0.7570 -1.2788 -1.0174
 9889TIP3    H251159   2.244   0.728  11.893 -0.6252  1.1831  0.3631
 9890TIP3   OH251160   0.733   3.788  16.615 -0.1295  0.1402 -0.0131
 9890TIP3    H151161   0.722   3.765  16.523 -1.8467 -1.3817  0.5428
 9890TIP3    H251162   0.828   3.795  16.626  0.1243 -0.1304 -1.7803
 9891TIP3   OH251163   0.985   2.600   3.832 -0.1803  0.0016  0.5502
 9891TIP3    H151164   0.915   2.658   3.863  0.1876  1.0490 -0.5298
 9891TIP3    H251165   0.942   2.542   3.769 -0.8922 -2.0128  2.8275
 9892TIP3   OH251166   6.557   0.041  11.831  0.2018 -0.1309 -0.1549
 9892TIP3    H151167   6.643   0.043  11.788  0.1672  2.4851 -0.1392
 9892TIP3    H251168   6.548   0.127  11.871 -1.0803 -1.5040  2.5810
 9893TIP3   OH251169   4.497   5.367   4.572  0.4935 -0.3704  0.6949
 9893TIP3    H151170   4.483   5.273   4.583 -0.6880 -0.1561  1.1612
 9893TIP3    H251171   4.560   5.374   4.501  1.7845 -1.5668  1.6825
 9894TIP3   OH251172   0.400   4.457  13.221 -0.2167 -0.0834  0.0284
 9894TIP3    H151173   0.381   4.466  13.128 -0.6891  2.0280  0.2923
 9894TIP3    H251174   0.475   4.514  13.236  0.3493 -1.0156  0.7996
 9895TIP3   OH251175   0.541   0.451   0.830 -0.9237  0.0066 -0.3459
 9895TIP3    H151176   0.466   0.391   0.829 -0.2005 -0.9531  1.0251
 9895TIP3    H251177   0.570   0.453   0.739 -1.1149 -1.5483 -0.4678
 9896TIP3   OH251178   5.983   3.827   2.023 -0.0115  0.3100 -0.4168
 9896TIP3    H151179   6.001   3.762   2.092 -1.6114 -0.1645 -0.4253
 9896TIP3    H251180   6.070   3.861   1.999  0.7019 -0.6524  0.7279
 9897TIP3   OH251181   1.982   5.562  14.198 -0.3044  0.3103 -0.0877
 9897TIP3    H151182   2.072   5.545  14.228 -0.1002 -0.4912 -1.0873
 9897TIP3    H251183   1.944   5.475  14.189 -1.3471  0.6745  0.8006
 9898TIP3   OH251184   4.120   5.647   5.587  0.2373 -0.1239 -0.0835
 9898TIP3    H151185   4.045   5.654   5.646  1.1642 -1.6187  1.3014
 9898TIP3    H251186   4.085   5.672   5.502 -0.9158  2.9298  1.2304
 9899TIP3   OH251187   1.885   5.205   2.621 -0.2338  0.1874 -0.3102
 9899TIP3    H151188   1.832   5.276   2.658  0.7371  1.0608 -0.5371
 9899TIP3    H251189   1.971   5.218   2.661 -0.2403 -1.3301  0.2116
 9900TIP3   OH251190   0.659   5.910  11.007 -0.3411 -0.5464  0.1349
 9900TIP3    H151191   0.678   5.821  10.976  1.4874  0.7212 -2.5240
 9900TIP3    H251192   0.623   5.897  11.094  0.3446 -3.8888 -0.0024
 9901TIP3   OH251193   2.202   6.654  12.696  0.0175 -0.5269  0.2158
 9901TIP3    H151194   2.295   6.633  12.702  0.9210  2.6645 -1.3561
 9901TIP3    H251195   2.163   6.580  12.648  2.1011 -0.9403 -0.8852
 9902TIP3   OH251196   4.576   6.810   6.602  0.0154  0.2486 -0.4602
 9902TIP3    H151197   4.647   6.782   6.545 -1.3318 -1.0525 -1.5262
 9902TIP3    H251198   4.613   6.805   6.690  1.5484  0.5379 -1.0822
 9903TIP3   OH251199   5.619   0.842  15.655  0.1388  0.4797 -0.3137
 9903TIP3    H151200   5.633   0.842  15.561 -0.0951 -0.0135 -0.3526
 9903TIP3    H251201   5.704   0.863  15.693  0.1919  0.8523 -0.6384
 9904TIP3   OH251202   6.327   1.332   4.752  0.2059 -0.0897  0.0057
 9904TIP3    H151203   6.249   1.291   4.791  0.8744 -0.4140  1.0198
 9904TIP3    H251204   6.380   1.260   4.721  0.9499  0.0362  0.9573
 9905TIP3   OH251205   4.404   5.418   1.499 -0.3276 -0.1739  0.1577
 9905TIP3    H151206   4.488   5.455   1.473  0.2661 -0.9680  0.8979
 9905TIP3    H251207   4.370   5.480   1.564  0.3391 -0.5480  0.8804
 9906TIP3   OH251208   4.378   1.708  11.868 -0.2434  0.3955 -0.1425
 9906TIP3    H151209   4.337   1.742  11.789  0.0925  1.3526  0.0846
 9906TIP3    H251210   4.465   1.679  11.840 -0.0246  0.9806 -0.0789
 9907TIP3   OH251211   1.941   0.746  11.225 -0.7097  0.4101  0.1107
 9907TIP3    H151212   1.977   0.743  11.137  1.2451 -2.8733  0.9197
 9907TIP3    H251213   1.999   0.805  11.273  0.1191 -0.2544 -0.0603
 9908TIP3   OH251214   2.896   3.470   0.275  0.3776  0.1973 -0.0042
 9908TIP3    H151215   2.878   3.503   0.363 -1.1681 -1.3886  0.3111
 9908TIP3    H251216   2.824   3.503   0.222 -0.3966 -1.4228  0.0099
 9909TIP3   OH251217   6.542   3.867  13.772 -0.2108  0.3969  0.3305
 9909TIP3    H151218   6.602   3.939  13.789  0.5600 -0.4171  1.0825
 9909TIP3    H251219   6.589   3.810  13.711 -0.7860  0.4727 -0.1963
 9910TIP3   OH251220   4.344   5.228  13.739  0.4863 -0.3316  0.0316
 9910TIP3    H151221   4.400   5.238  13.816  0.9629 -0.6345 -0.2780
 9910TIP3    H251222   4.351   5.311  13.693  0.7864 -0.4144 -0.0754
 9911TIP3   OH251223   0.318   6.735   2.622  0.0774 -0.6098 -0.5440
 9911TIP3    H151224   0.265   6.789   2.562  1.3870  0.1461 -1.0545
 9911TIP3    H251225   0.254   6.691   2.677 -1.0885  0.3263 -1.1083
 9912TIP3   OH251226   0.344   2.569  10.729 -0.0985  0.0776  0.0521
 9912TIP3    H151227   0.257   2.528  10.725  0.5645 -1.4675  0.8827
 9912TIP3    H251228   0.363   2.592  10.638 -1.0329 -0.3265 -0.2538
 9913TIP3   OH251229   1.010   1.169   0.547  0.0745  0.4731  0.3091
 9913TIP3    H151230   1.058   1.096   0.586  1.3916  1.2306  0.1415
 9913TIP3    H251231   0.935   1.128   0.504  2.1657 -1.0950 -1.9823
 9914TIP3   OH251232   1.283   4.419   3.528  0.0121 -0.5757 -0.3135
 9914TIP3    H151233   1.225   4.495   3.520  1.5860  0.5536 -1.2241
 9914TIP3    H251234   1.235   4.347   3.487 -2.1448 -0.4752  1.8959
 9915TIP3   OH251235   0.579   3.739   2.117  0.0490  0.2172 -0.0402
 9915TIP3    H151236   0.616   3.747   2.206 -0.4809 -0.0420  0.2042
 9915TIP3    H251237   0.637   3.793   2.063  0.7285 -0.0994  0.3576
 9916TIP3   OH251238   1.694   5.025   3.216  0.0548  0.0235  0.3245
 9916TIP3    H151239   1.772   5.050   3.265  0.9035 -2.6453  0.4152
 9916TIP3    H251240   1.640   4.979   3.279 -0.5458 -0.1649 -0.3284
 9917TIP3   OH251241   3.274   3.917  17.074 -0.8692 -0.2539  0.2209
 9917TIP3    H151242   3.224   3.955  17.146 -1.1782 -0.1783 -0.0286
 9917TIP3    H251243   3.318   3.841  17.112 -1.2470 -0.3727  0.4255
 9918TIP3   OH251244   2.785   6.747   0.797 -0.4761  0.1052  0.1938
 9918TIP3    H151245   2.776   6.835   0.834 -3.4139 -0.2115  0.3348
 9918TIP3    H251246   2.761   6.688   0.868 -0.1350 -0.7526 -0.3920
 9919TIP3   OH251247   2.012   1.260   4.790  0.2342  0.4005  0.2280
 9919TIP3    H151248   1.942   1.277   4.852  0.4726  0.8901  0.3636
 9919TIP3    H251249   1.967   1.246   4.706 -0.1159 -0.6981  0.5871
 9920TIP3   OH251250   1.904   1.086  11.050 -0.2422  0.2978 -0.0078
 9920TIP3    H151251   1.959   1.163  11.041  0.2901 -0.0727  0.0487
 9920TIP3    H251252   1.860   1.097  11.134  0.5554  0.0828  0.4474
 9921TIP3   OH251253   1.339   3.873  15.493 -0.0011  0.0255  0.0389
 9921TIP3    H151254   1.387   3.956  15.499  0.7024 -0.3452 -0.4009
 9921TIP3    H251255   1.401   3.807  15.527 -1.5578  0.0336  3.1173
 9922TIP3   OH251256   2.806   2.548  15.434 -0.3420  0.5427  0.0452
 9922TIP3    H151257   2.784   2.475  15.492  2.4623  0.5294  1.1569
 9922TIP3    H251258   2.731   2.608  15.441 -0.7588 -0.1943  2.4261
 9923TIP3   OH251259   2.549   5.514  15.333  0.6129 -0.2875  0.1107
 9923TIP3    H151260   2.487   5.571  15.287  2.1724 -0.0654 -1.7883
 9923TIP3    H251261   2.527   5.426  15.302 -0.5978 -0.5460  1.6426
 9924TIP3   OH251262   3.049   3.325   1.826  0.1373  0.5596  0.3729
 9924TIP3    H151263   2.971   3.373   1.795 -0.0394  0.8979  1.3204
 9924TIP3    H251264   3.029   3.303   1.916  0.9077  0.1208  0.4391
 9925TIP3   OH251265   2.259   6.085  16.232 -0.1514  0.2028 -0.5306
 9925TIP3    H151266   2.277   6.179  16.230 -1.0627  0.3650 -1.9192
 9925TIP3    H251267   2.257   6.060  16.139 -2.8369 -0.6027 -0.2788
 9926TIP3   OH251268   5.988   0.054   0.310 -0.7023  0.0988 -0.4658
 9926TIP3    H151269   6.049   0.004   0.256 -1.1203 -0.6247 -0.2819
 9926TIP3    H251270   5.988   0.008   0.394 -2.8537 -0.9898 -1.0289
 9927TIP3   OH251271   0.608   4.793  12.850 -0.6930  0.3841  0.3127
 9927TIP3    H151272   0.655   4.816  12.770 -0.4008  0.2252  0.4351
 9927TIP3    H251273   0.621   4.868  12.908 -0.7445  0.4182  0.2793
 9928TIP3   OH251274   1.217   3.580   3.032 -0.0531 -0.1547 -0.3664
 9928TIP3    H151275   1.144   3.529   2.996  1.5179 -1.7121 -1.4006
 9928TIP3    H251276   1.259   3.618   2.955 -0.0296  1.0935  0.2616
 9929TIP3   OH251277   5.350   4.890   2.780  0.0072 -0.2605  0.0595
 9929TIP3    H151278   5.306   4.961   2.734  2.2119  1.7686  1.0035
 9929TIP3    H251279   5.422   4.865   2.722  0.9703  0.2583  1.0169
 9930TIP3   OH251280   1.188   0.395   5.627  0.2150  0.2560  0.8686
 9930TIP3    H151281   1.191   0.416   5.533  1.2080 -0.4806  0.7272
 9930TIP3    H251282   1.247   0.459   5.667 -0.9851  1.2158  1.1238
 9931TIP3   OH251283   5.153   1.570  14.433  0.0405  0.5034 -0.3052
 9931TIP3    H151284   5.077   1.514  14.420 -0.9083  1.8225 -0.5807
 9931TIP3    H251285   5.203   1.562  14.352  0.0762 -0.2036 -0.2095
 9932TIP3   OH251286   1.560   4.282  16.873  0.9245  0.4111 -0.4247
 9932TIP3    H151287   1.469   4.297  16.849  1.5470  1.1555 -2.4910
 9932TIP3    H251288   1.605   4.362  16.845  2.6403 -1.0593 -1.9866
 9933TIP3   OH251289   0.582   3.168  16.011 -0.2019 -0.5452  0.0587
 9933TIP3    H151290   0.608   3.223  16.085 -1.1453  0.3498 -0.2622
 9933TIP3    H251291   0.487   3.167  16.014 -0.3041  0.5185 -1.8513
 9934TIP3   OH251292   0.864   6.680   0.995 -0.8230 -0.1174  0.7798
 9934TIP3    H151293   0.770   6.686   1.013 -0.6474 -0.7315  1.9561
 9934TIP3    H251294   0.887   6.591   1.020  0.1686  0.1853  0.9521
 9935TIP3   OH251295   1.135   3.269  14.896 -0.4121 -0.0071 -0.1710
 9935TIP3    H151296   1.227   3.243  14.887 -0.3313 -0.0308  0.7296
 9935TIP3    H251297   1.138   3.346  14.952 -1.1643 -1.5002  1.9640
 9936TIP3   OH251298   1.704   6.603   5.874 -0.0887 -0.1809 -0.4375
 9936TIP3    H151299   1.636   6.555   5.922 -1.8473  2.5971 -0.0633
 9936TIP3    H251300   1.762   6.638   5.942 -1.8459  2.6645 -0.3465
 9937TIP3   OH251301   2.059   4.483  15.754 -0.3159  0.2660  0.0383
 9937TIP3    H151302   2.037   4.483  15.847  1.5517 -1.5250  0.4902
 9937TIP3    H251303   2.078   4.575  15.734 -0.6710  0.6513  1.4240
 9938TIP3   OH251304   0.044   6.019  15.557 -0.1713 -0.0640  0.8371
 9938TIP3    H151305  -0.004   6.044  15.478  0.3988 -0.4361  0.3787
 9938TIP3    H251306   0.068   5.928  15.543 -1.1487 -0.5199  1.9728
 9939TIP3   OH251307   6.730   1.019   2.550  0.3547 -0.2019  0.2391
 9939TIP3    H151308   6.778   0.942   2.521  2.2616  0.5761  1.2012
 9939TIP3    H251309   6.735   1.080   2.477  0.7231 -0.1756  0.2862
 9940TIP3   OH251310   6.111   5.560  12.262 -0.0108  0.1448 -0.5100
 9940TIP3    H151311   6.094   5.626  12.195 -2.4899  1.9128  1.7590
 9940TIP3    H251312   6.189   5.591  12.308 -0.0769  0.4857 -0.6345
 9941TIP3   OH251313   1.608   6.512   2.833 -0.3921  0.4472 -0.7574
 9941TIP3    H151314   1.578   6.515   2.924 -0.9080 -1.2944 -0.8451
 9941TIP3    H251315   1.544   6.563   2.784 -1.0960 -0.0674 -0.3823
 9942TIP3   OH251316   4.310   1.606  14.375  0.0790  0.6560  0.4237
 9942TIP3    H151317   4.229   1.558  14.392  0.3189 -0.2530 -0.9211
 9942TIP3    H251318   4.286   1.674  14.312 -0.2412  2.2990  2.2635
 9943TIP3   OH251319   4.821   0.901  16.915 -0.1837  0.7443  0.2329
 9943TIP3    H151320   4.812   0.995  16.899  1.7097  0.6306 -1.6106
 9943TIP3    H251321   4.762   0.860  16.852 -0.1512  0.6319  0.2750
 9944TIP3   OH251322   2.006   1.315  13.539  0.1455 -0.3972  0.0551
 9944TIP3    H151323   2.091   1.270  13.547 -0.1188 -0.8727  0.1948
 9944TIP3    H251324   2.017   1.374  13.465  1.2273  0.9433  1.2380
 9945TIP3   OH251325   2.441   1.131   6.924 -0.1005 -0.3605  0.0903
 9945TIP3    H151326   2.466   1.134   6.832 -1.5886 -1.0395 -0.3470
 9945TIP3    H251327   2.398   1.215   6.941  0.2280 -0.2107  0.1837
 9946TIP3   OH251328   6.329   1.271  14.277 -0.3161  0.6563  0.0650
 9946TIP3    H151329   6.308   1.363  14.291  0.5673  0.8659  0.0146
 9946TIP3    H251330   6.368   1.242  14.359  0.8809  0.7518 -0.4622
 9947TIP3   OH251331   4.067   5.934   2.641  0.0848  0.0298 -0.3311
 9947TIP3    H151332   4.002   6.001   2.620 -0.4493 -0.6936 -1.0149
 9947TIP3    H251333   4.144   5.983   2.669 -0.6546  0.9031  0.2050
 9948TIP3   OH251334   0.524   1.615   2.153 -0.5966  0.2999  0.5459
 9948TIP3    H151335   0.599   1.585   2.203 -0.2067 -0.1625 -0.3141
 9948TIP3    H251336   0.544   1.707   2.133  0.8187 -0.4795 -1.6814
 9949TIP3   OH251337   0.811   2.086  16.725 -0.2906  0.2077 -0.4110
 9949TIP3    H151338   0.722   2.085  16.690 -1.5251 -0.2165  2.5467
 9949TIP3    H251339   0.852   2.007  16.691 -0.8665  0.6559 -2.1892
 9950TIP3   OH251340   6.151   3.310  16.332  0.2307 -0.2476  0.2724
 9950TIP3    H151341   6.092   3.385  16.343  0.1842 -0.0941 -0.9486
 9950TIP3    H251342   6.099   3.235  16.361 -0.1726  0.0312  0.2873
 9951TIP3   OH251343   0.267   0.544  16.641 -0.2673 -0.5171 -0.2080
 9951TIP3    H151344   0.270   0.555  16.736 -0.3795  0.3801 -0.3034
 9951TIP3    H251345   0.359   0.536  16.616 -0.2237 -0.5287 -0.0507
 9952TIP3   OH251346   0.290   6.165  14.542  0.0417  0.5194 -0.4824
 9952TIP3    H151347   0.374   6.145  14.583  0.2597  0.5861 -0.9034
 9952TIP3    H251348   0.241   6.213  14.610  0.8758  1.7320 -0.7350
 9953TIP3   OH251349   2.487   2.770  12.065  0.0681  0.0313  0.4890
 9953TIP3    H151350   2.569   2.748  12.022 -0.4195  0.2218 -0.5658
 9953TIP3    H251351   2.421   2.765  11.995 -0.7906  0.0386  1.2763
 9954TIP3   OH251352   0.349   4.419   5.610 -0.3294  0.6653  0.0618
 9954TIP3    H151353   0.284   4.427   5.540 -0.4753  1.9852  0.3313
 9954TIP3    H251354   0.433   4.415   5.564 -0.4172  1.5999 -0.1992
 9955TIP3   OH251355   2.150   6.191   4.337 -0.0371 -0.1421 -0.2099
 9955TIP3    H151356   2.154   6.100   4.309 -0.6577 -0.3817  0.4855
 9955TIP3    H251357   2.149   6.187   4.432 -0.3054  0.5842 -0.1816
 9956TIP3   OH251358   6.764   3.111  11.532 -0.7126 -0.0899 -0.5410
 9956TIP3    H151359   6.814   3.032  11.510  0.1108 -0.2505  1.7221
 9956TIP3    H251360   6.683   3.103  11.482  0.2919 -1.2935 -2.0261
 9957TIP3   OH251361   6.264   0.101   5.845  0.0644 -0.2066 -0.1780
 9957TIP3    H151362   6.268   0.050   5.926 -0.7574 -1.1551 -0.7121
 9957TIP3    H251363   6.286   0.190   5.871 -0.0494 -0.5287  1.0548
 9958TIP3   OH251364   2.662   1.788  12.360  0.1853 -0.2573  0.1460
 9958TIP3    H151365   2.671   1.878  12.328 -0.7988 -0.4898 -0.8073
 9958TIP3    H251366   2.695   1.792  12.450  1.3691  0.7744 -0.3098
 9959TIP3   OH251367   4.959   3.851  13.355  0.5985  0.2270  0.3798
 9959TIP3    H151368   4.867   3.824  13.350  0.3734  0.8740  0.9557
 9959TIP3    H251369   4.994   3.835  13.268 -0.0009 -0.2481  0.2236
 9960TIP3   OH251370   0.313   2.859  15.428 -0.3830  0.1038 -0.6045
 9960TIP3    H151371   0.330   2.902  15.512 -2.0246 -0.6697  0.1553
 9960TIP3    H251372   0.316   2.766  15.448  2.8888 -0.2071 -2.1936
 9961TIP3   OH251373   0.174   0.435  13.161  0.1937  0.3452  0.3239
 9961TIP3    H151374   0.269   0.427  13.174  0.5864  1.8395 -1.5336
 9961TIP3    H251375   0.147   0.348  13.131  1.2759  0.4231 -0.9152
 9962TIP3   OH251376   3.112   6.279  10.317 -0.4848  0.0473  0.1119
 9962TIP3    H151377   3.158   6.348  10.270  1.1329 -0.9801  0.1326
 9962TIP3    H251378   3.154   6.277  10.403 -0.3221 -1.1239  0.0150
 9963TIP3   OH251379   3.054   1.645   4.744 -0.1095  0.1224  0.0508
 9963TIP3    H151380   3.013   1.634   4.830 -1.9413 -0.9533 -0.9359
 9963TIP3    H251381   2.982   1.636   4.682  1.0746  1.5722 -1.5890
 9964TIP3   OH251382   6.299   4.500  16.356 -0.0622  0.1053  0.2592
 9964TIP3    H151383   6.376   4.555  16.344  0.6272 -0.7493  0.7307
 9964TIP3    H251384   6.325   4.414  16.323 -1.2725  0.1477 -0.8713
 9965TIP3   OH251385   5.959   6.313   2.975  0.2024 -0.1488 -0.7566
 9965TIP3    H151386   5.896   6.246   3.000 -0.1045  0.1598 -0.6917
 9965TIP3    H251387   6.038   6.293   3.026 -0.4774  0.5865  0.6182
 9966TIP3   OH251388   3.452   1.593   1.507  0.0357 -0.3730  0.3450
 9966TIP3    H151389   3.385   1.647   1.548  0.6813 -0.3207  1.3525
 9966TIP3    H251390   3.404   1.536   1.447 -0.9362 -0.5015  1.2327
 9967TIP3   OH251391   2.447   5.980  15.208  0.2559 -0.4055 -0.1429
 9967TIP3    H151392   2.429   5.889  15.232  1.1148 -0.1209  1.6472
 9967TIP3    H251393   2.361   6.022  15.208 -0.2192 -1.3441 -1.5896
 9968TIP3   OH251394   3.371   4.396  16.918  0.5564 -0.7388  0.4141
 9968TIP3    H151395   3.424   4.424  16.843 -0.1469  0.5541  0.4002
 9968TIP3    H251396   3.345   4.306  16.896  2.7297 -1.4127  0.4304
 9969TIP3   OH251397   0.503   1.248   4.655 -0.5429  0.1866  0.1610
 9969TIP3    H151398   0.487   1.332   4.696 -2.1643 -0.2225  0.3835
 9969TIP3    H251399   0.513   1.187   4.728  2.4409  0.4779  0.0486
 9970TIP3   OH251400   1.462   2.952  16.261  0.1363  0.0252  0.7311
 9970TIP3    H151401   1.464   2.999  16.344 -0.4697  0.1598  0.6705
 9970TIP3    H251402   1.369   2.944  16.240  0.3078  0.5360 -0.2431
 9971TIP3   OH251403   3.102   4.506  14.044 -0.0672 -0.1329 -0.5437
 9971TIP3    H151404   3.133   4.439  14.105 -1.1939 -0.7633 -0.6497
 9971TIP3    H251405   3.065   4.575  14.100  1.5078  0.6219 -0.4182
 9972TIP3   OH251406   3.800   2.392   2.080 -0.1783  0.4252  0.1321
 9972TIP3    H151407   3.820   2.370   2.172 -0.0269  1.9863  0.4748
 9972TIP3    H251408   3.860   2.338   2.029 -0.2359 -0.4315  0.9531
 9973TIP3   OH251409   3.149   6.610  11.460  0.7523  0.4262  0.1249
 9973TIP3    H151410   3.098   6.566  11.527  1.6514  0.6288  0.9572
 9973TIP3    H251411   3.085   6.638  11.395 -0.1517  0.4504  1.0226
 9974TIP3   OH251412   6.000   3.247   0.119  0.0559  0.6032  0.1006
 9974TIP3    H151413   5.970   3.156   0.116 -0.0125  0.6683 -1.6587
 9974TIP3    H251414   6.094   3.241   0.102 -0.5165  1.1046 -3.6692
 9975TIP3   OH251415   5.530   1.515   2.808 -0.3045 -0.2669  0.1839
 9975TIP3    H151416   5.598   1.469   2.858 -0.4447  0.4062  1.0014
 9975TIP3    H251417   5.577   1.561   2.739  0.2130  1.1108  1.4193
 9976TIP3   OH251418   6.281   4.221   1.834 -0.5257  0.2118  0.2298
 9976TIP3    H151419   6.271   4.281   1.760 -0.9229 -1.6507 -1.2755
 9976TIP3    H251420   6.319   4.275   1.904 -0.2614  2.0398 -1.2748
 9977TIP3   OH251421   3.487   5.001  12.631 -0.8563  0.5425  0.4800
 9977TIP3    H151422   3.563   4.961  12.589  0.9560  2.8901  1.3978
 9977TIP3    H251423   3.423   5.012  12.561 -0.3250 -1.3386 -0.3261
 9978TIP3   OH251424   0.645   4.179  14.827 -0.1555 -0.1389 -0.1792
 9978TIP3    H151425   0.684   4.211  14.908 -0.0726 -2.0422  0.5652
 9978TIP3    H251426   0.569   4.128  14.855 -0.9218  0.3235 -1.3848
 9979TIP3   OH251427   2.216   2.275  12.080  0.2870 -0.0293  0.2882
 9979TIP3    H151428   2.276   2.208  12.113 -0.0306  0.9592  2.9878
 9979TIP3    H251429   2.271   2.335  12.029  1.0048 -0.9111  0.0216
 9980TIP3   OH251430   5.504   4.598  13.655  0.1836 -0.3143  0.5966
 9980TIP3    H151431   5.410   4.595  13.676 -0.3214 -0.8381 -1.6235
 9980TIP3    H251432   5.527   4.506  13.639  1.4512 -0.3749  2.5698
 9981TIP3   OH251433   2.648   3.677   1.881  0.3200  0.2282  0.7330
 9981TIP3    H151434   2.559   3.649   1.857 -0.4868  2.1584  1.3989
 9981TIP3    H251435   2.641   3.705   1.972  1.7628 -0.1994  0.9826
 9982TIP3   OH251436   5.724   3.798   2.202 -0.0039 -0.7797 -0.1625
 9982TIP3    H151437   5.743   3.751   2.283  0.9532 -0.5106 -0.2337
 9982TIP3    H251438   5.809   3.827   2.170 -0.3772 -0.8355 -1.2337
 9983TIP3   OH251439   2.648   2.181   0.089 -0.1828  0.1263  0.0980
 9983TIP3    H151440   2.568   2.233   0.082 -0.1792  0.6195  3.1285
 9983TIP3    H251441   2.717   2.246   0.104  0.0670 -0.6051  2.2103
 9984TIP3   OH251442   5.223   2.058  17.116  0.1764 -0.3386 -0.0372
 9984TIP3    H151443   5.306   2.075  17.071 -0.8645 -1.1831 -2.3627
 9984TIP3    H251444   5.166   2.022  17.048 -2.1688  0.4275  1.4684
 9985TIP3   OH251445   2.311   5.817   2.140 -0.5554 -0.6194 -0.2885
 9985TIP3    H151446   2.377   5.768   2.091 -0.7832 -3.2074  1.8935
 9985TIP3    H251447   2.357   5.893   2.174  1.1331 -1.9483  0.4791
 9986TIP3   OH251448   4.793   4.764   2.833 -0.5351 -0.1231  0.1710
 9986TIP3    H151449   4.882   4.763   2.798 -1.4830 -0.8118 -2.3664
 9986TIP3    H251450   4.755   4.681   2.804 -1.7460 -0.2043  1.9293
 9987TIP3   OH251451   3.800   1.754  15.682  0.1106 -0.0859  0.4931
 9987TIP3    H151452   3.800   1.778  15.589 -1.3309  1.9883  0.9935
 9987TIP3    H251453   3.721   1.701  15.694  0.9914 -1.4714  0.2878
 9988TIP3   OH251454   2.582   5.394  14.682  0.3856  0.5632  0.6539
 9988TIP3    H151455   2.659   5.337  14.677 -1.0229 -1.3137 -0.8812
 9988TIP3    H251456   2.617   5.480  14.705  2.9865 -0.1382 -0.4460
 9989TIP3   OH251457   1.784   4.077  12.150 -0.1973 -0.5817  0.0568
 9989TIP3    H151458   1.859   4.122  12.111  0.6315 -1.3494  0.7455
 9989TIP3    H251459   1.795   3.985  12.124 -2.6414 -0.1874 -2.5318
 9990TIP3   OH251460   5.367   0.620   3.462  0.4980 -0.3606 -0.2056
 9990TIP3    H151461   5.324   0.705   3.474 -0.3502 -1.0172  1.7427
 9990TIP3    H251462   5.459   0.641   3.448  0.3365  0.8686  0.4815
 9991TIP3   OH251463   3.664   6.561   3.443  0.2868  0.1960  0.2077
 9991TIP3    H151464   3.755   6.581   3.462  0.2615  0.9000 -0.4074
 9991TIP3    H251465   3.628   6.643   3.408 -0.9198  0.3385  1.6931
 9992TIP3   OH251466   3.566   6.762  16.229 -0.7625 -0.3043 -0.1410
 9992TIP3    H151467   3.582   6.758  16.323 -1.4795 -1.4725 -0.0643
 9992TIP3    H251468   3.479   6.724  16.217 -1.0050  0.5385 -1.1978
 9993TIP3   OH251469   1.082   3.325   0.997  0.0485 -0.0689 -0.1277
 9993TIP3    H151470   1.049   3.370   0.919  0.6327  0.5710 -0.0073
 9993TIP3    H251471   1.030   3.361   1.069  0.4824  0.3708 -0.0376
 9994TIP3   OH251472   4.678   3.728  11.000 -0.2993 -0.0832  0.1142
 9994TIP3    H151473   4.763   3.684  10.989 -0.0579  0.2788  0.4936
 9994TIP3    H251474   4.699   3.808  11.049 -0.8868 -0.0722  0.3488
 9995TIP3   OH251475   0.521   2.776   3.433  0.6441 -0.4960 -0.2265
 9995TIP3    H151476   0.495   2.795   3.343  0.1588 -2.9739 -0.6404
 9995TIP3    H251477   0.606   2.734   3.425  1.1101  0.2580  0.5836
 9996TIP3   OH251478   5.354   4.393   5.795  0.5109 -0.0063  0.4335
 9996TIP3    H151479   5.274   4.386   5.848 -0.4887  2.7682 -0.5940
 9996TIP3    H251480   5.326   4.370   5.706  0.9594  0.4353  0.1715
 9997TIP3   OH251481   2.241   5.086   1.779 -0.3323  0.2238  0.1350
 9997TIP3    H151482   2.185   5.021   1.822 -0.9826 -0.1232 -1.2171
 9997TIP3    H251483   2.249   5.055   1.689  0.9147  1.0091 -0.0421
 9998TIP3   OH251484   0.578   0.909   4.654  0.4968  0.0561 -0.1577
 9998TIP3    H151485   0.668   0.920   4.626 -0.0103  0.8569 -1.5468
 9998TIP3    H251486   0.540   0.849   4.589  0.5906 -1.9867  1.6336
 9999TIP3   OH251487   1.614   5.969  13.178  0.0145 -0.7701 -0.4556
 9999TIP3    H151488   1.530   5.923  13.178  0.2108 -1.1433  0.1632
 9999TIP3    H251489   1.590   6.062  13.183 -0.3566 -0.9276  0.9481
10000TIP3   OH251490   3.883   0.426  11.097  0.1714  0.4135  0.0181
10000TIP3    H151491   3.839   0.476  11.029  1.8604  1.2687 -0.4562
10000TIP3    H251492   3.833   0.445  11.177 -1.2975  0.0650 -0.8129
10001TIP3   OH251493   3.548   1.362  16.526 -0.2235  0.5126 -0.1279
10001TIP3    H151494   3.589   1.432  16.577 -0.0621  0.1477  0.2458
10001TIP3    H251495   3.605   1.352  16.449  0.6291 -0.2830  0.6025
10002TIP3   OH251496   0.919   4.350   0.197 -0.2531 -0.3774 -0.1556
10002TIP3    H151497   0.925   4.413   0.269  1.4257 -1.9360  1.1202
10002TIP3    H251498   0.841   4.299   0.216 -0.4186 -0.0869 -0.0460
10003TIP3   OH251499   4.985   5.407  15.527 -0.7013  0.1398 -0.1454
10003TIP3    H151500   4.897   5.396  15.492 -0.9911 -0.0977  0.6449
10003TIP3    H251501   4.973   5.463  15.604 -0.1345  0.2907 -0.1640
10004TIP3   OH251502   0.254   0.125  11.655  0.1738  0.0932  0.3754
10004TIP3    H151503   0.169   0.154  11.621 -0.3354 -1.6180  0.1664
10004TIP3    H251504   0.285   0.062  11.591  0.8081 -0.5827  1.3434
10005TIP3   OH251505   4.925   1.830   0.252  0.2836  0.6050 -0.3276
10005TIP3    H151506   4.977   1.911   0.242  0.9863  0.3676  1.2600
10005TIP3    H251507   4.986   1.768   0.291  0.0780 -1.0745 -2.6164
10006TIP3   OH251508   5.384   0.980  15.413 -0.8370 -0.1777  0.3814
10006TIP3    H151509   5.346   1.065  15.436  0.8381  0.4091  1.0344
10006TIP3    H251510   5.473   1.001  15.383 -0.7515 -1.6029 -0.4057
10007TIP3   OH251511   0.854   5.330   2.217 -0.7659  0.4481  0.5123
10007TIP3    H151512   0.782   5.386   2.188  0.1582  0.9840 -0.8399
10007TIP3    H251513   0.814   5.245   2.234 -1.3463  0.0343 -2.6649
10008TIP3   OH251514   4.475   0.252   3.402 -0.2146 -0.0143  0.3347
10008TIP3    H151515   4.561   0.272   3.365  0.8378 -2.5111  1.2999
10008TIP3    H251516   4.415   0.254   3.327  1.3202 -1.7823 -0.9802
10009TIP3   OH251517   0.742   4.579   5.208  0.6306  0.8598  0.6722
10009TIP3    H151518   0.749   4.594   5.302  1.5853 -2.2293  1.1545
10009TIP3    H251519   0.830   4.555   5.180  0.1784  0.8511 -0.8418
10010TIP3   OH251520   0.065   5.226  11.795  0.1164  0.3938 -0.9849
10010TIP3    H151521  -0.020   5.204  11.834  1.1754 -0.9052  0.6563
10010TIP3    H251522   0.075   5.320  11.812  0.3381 -0.0468  1.5145
10011TIP3   OH251523   4.642   5.838  11.396 -0.4787 -0.3655 -0.2738
10011TIP3    H151524   4.674   5.924  11.426  0.6328 -0.0426 -2.3098
10011TIP3    H251525   4.682   5.776  11.456 -0.0884  0.4388  0.3138
10012TIP3   OH251526   2.292   3.732  15.882 -0.2114  0.0940  0.1712
10012TIP3    H151527   2.332   3.819  15.884 -1.2090  0.5792 -0.5141
10012TIP3    H251528   2.198   3.749  15.875 -0.2581 -1.0041 -2.6639
10013TIP3   OH251529   0.466   6.561  12.195  0.0140  0.3784 -0.2845
10013TIP3    H151530   0.402   6.615  12.149  0.2240  1.2619  0.4676
10013TIP3    H251531   0.433   6.556  12.285 -0.6056 -1.6648 -0.5945
10014TIP3   OH251532   3.143   1.015  11.561 -0.0177  0.3611 -0.3045
10014TIP3    H151533   3.093   1.095  11.541 -0.7031  0.2918  1.0519
10014TIP3    H251534   3.234   1.039  11.544 -0.1592  1.6300  0.6253
10015TIP3   OH251535   1.153   1.005  10.464 -0.4502 -0.1059  0.1026
10015TIP3    H151536   1.197   0.968  10.540  0.0960 -0.2036 -0.2599
10015TIP3    H251537   1.180   0.950  10.391 -1.7658 -0.6191 -0.0105
10016TIP3   OH251538   1.555   3.704   3.698  0.3333  0.7843 -0.3294
10016TIP3    H151539   1.472   3.694   3.746  1.0207 -1.0920  0.4931
10016TIP3    H251540   1.530   3.694   3.606 -0.4102  0.5971 -0.1127
10017TIP3   OH251541   6.338   5.107  16.127 -0.2156  0.1261 -0.0341
10017TIP3    H151542   6.288   5.035  16.088  0.8362 -1.4528  1.4618
10017TIP3    H251543   6.343   5.084  16.220  1.6923  1.2073  0.1397
10018TIP3   OH251544   0.648   1.992  13.560 -0.1626  0.0178  0.2137
10018TIP3    H151545   0.554   1.985  13.542 -0.0064  1.8965 -1.5410
10018TIP3    H251546   0.689   1.938  13.491  0.1176  0.7084 -0.1598
10019TIP3   OH251547   2.253   2.252   5.219 -0.2314 -0.1775 -0.2455
10019TIP3    H151548   2.235   2.342   5.192 -0.2886 -0.3643 -0.8437
10019TIP3    H251549   2.228   2.199   5.143 -2.3541 -0.8953  0.9090
10020TIP3   OH251550   4.630   6.653   1.352  0.1268  0.3388  0.4703
10020TIP3    H151551   4.691   6.679   1.283  0.2527 -0.6232  0.2146
10020TIP3    H251552   4.575   6.586   1.311  1.6865 -1.9343  1.9738
10021TIP3   OH251553   6.359   3.501  15.985  0.4993 -0.1087  0.2987
10021TIP3    H151554   6.269   3.520  15.959  0.1855 -3.3899 -1.3087
10021TIP3    H251555   6.351   3.423  16.040  2.2452  0.4342  1.3502
10022TIP3   OH251556   0.148   4.484   3.743  0.2091 -0.2784  0.2030
10022TIP3    H151557   0.174   4.392   3.747 -2.1849 -0.8920  3.3448
10022TIP3    H251558   0.087   4.489   3.668  1.7927 -0.8177 -1.1394
10023TIP3   OH251559   4.467   2.647  12.632 -0.2912 -0.1927 -0.1331
10023TIP3    H151560   4.383   2.624  12.672  0.7023 -1.1479  1.4787
10023TIP3    H251561   4.499   2.720  12.684  0.0768 -0.1161 -0.4653
10024TIP3   OH251562   0.880   6.068  11.031 -0.7897 -0.3327 -0.1964
10024TIP3    H151563   0.828   5.988  11.034  1.0941 -1.5799  0.2107
10024TIP3    H251564   0.873   6.098  10.941 -0.5293 -1.6594 -0.6733
10025TIP3   OH251565   3.635   4.611  15.050 -0.3320 -0.7316 -0.2365
10025TIP3    H151566   3.566   4.676  15.034  0.8312  0.4454 -0.5637
10025TIP3    H251567   3.716   4.662  15.050  0.5688 -2.1461 -0.1532
10026TIP3   OH251568   6.255   2.108   2.797 -0.0570 -0.8101  0.0221
10026TIP3    H151569   6.320   2.068   2.855  0.9484  0.2057 -0.3861
10026TIP3    H251570   6.303   2.177   2.752 -1.1938 -0.6645 -0.9802
10027TIP3   OH251571   3.086   1.323  14.915 -0.3997  0.2513  0.6387
10027TIP3    H151572   3.078   1.413  14.883  0.2286  0.4837  1.1149
10027TIP3    H251573   3.003   1.306  14.959 -1.4296 -0.1926 -1.3769
10028TIP3   OH251574   5.650   5.910   0.848 -0.0685  0.0342  0.3150
10028TIP3    H151575   5.672   5.819   0.830 -1.3686 -0.2656  0.1902
10028TIP3    H251576   5.720   5.960   0.806  0.2559 -0.8747 -0.2458
10029TIP3   OH251577   4.323   5.923   4.884 -0.1473  0.0476  0.0997
10029TIP3    H151578   4.380   5.927   4.807 -1.9768  4.2550 -1.1096
10029TIP3    H251579   4.372   5.969   4.952 -1.1215  1.7268 -0.3178
10030TIP3   OH251580   2.011   2.674  14.738 -0.3151 -0.1402  0.1510
10030TIP3    H151581   2.053   2.746  14.690 -0.4379  0.3896  0.8241
10030TIP3    H251582   2.065   2.598  14.721  0.3908  0.3374  0.2593
10031TIP3   OH251583   2.660   2.995   1.307  0.6286 -0.3640 -0.1106
10031TIP3    H151584   2.590   3.025   1.366  0.6987  0.7914 -0.5983
10031TIP3    H251585   2.709   2.931   1.359 -0.3952 -0.7063  0.4582
10032TIP3   OH251586   0.676   5.374  16.935  0.5572  0.0220  0.8528
10032TIP3    H151587   0.639   5.286  16.947 -0.9587  0.3477 -1.1572
10032TIP3    H251588   0.602   5.433  16.951  1.1041  0.8371  0.3663
10033TIP3   OH251589   4.156   4.117   3.940  0.3099  0.2777  0.4394
10033TIP3    H151590   4.203   4.054   3.995 -1.7405 -0.2741  1.6035
10033TIP3    H251591   4.146   4.072   3.856 -0.1000 -0.4911  0.8938
10034TIP3   OH251592   6.612   5.508  15.830  0.2031  0.3138 -0.2814
10034TIP3    H151593   6.566   5.505  15.746  0.8412 -1.1208 -0.5958
10034TIP3    H251594   6.673   5.434  15.827  1.5133  1.3243  0.7165
10035TIP3   OH251595   3.594   0.230  15.406  0.0910 -0.2628  0.2251
10035TIP3    H151596   3.540   0.165  15.450 -0.0693 -0.6784 -0.5891
10035TIP3    H251597   3.616   0.191  15.322  1.9574 -0.2364  0.6958
10036TIP3   OH251598   1.460   3.315   2.854 -0.4213  0.3704 -0.3502
10036TIP3    H151599   1.428   3.253   2.788 -1.2551 -0.0776  0.4531
10036TIP3    H251600   1.485   3.259   2.928  3.6120  0.5536 -1.4350
10037TIP3   OH251601   5.274   6.660   4.692 -0.3260 -0.0806  0.0188
10037TIP3    H151602   5.195   6.714   4.684 -0.8359 -0.7935  0.2031
10037TIP3    H251603   5.312   6.686   4.776  0.0002  0.7380 -0.3746
10038TIP3   OH251604   6.449   5.450  13.945  0.5809 -0.2121  0.2620
10038TIP3    H151605   6.470   5.449  14.039  0.6239  1.0540  0.2746
10038TIP3    H251606   6.511   5.513  13.907 -0.1617  0.0967 -0.4452
10039TIP3   OH251607   4.514   4.264  16.480  0.4273  0.7167 -0.1041
10039TIP3    H151608   4.529   4.283  16.388 -0.6490  1.3607 -0.1512
10039TIP3    H251609   4.507   4.350  16.522  0.3881  0.4248  0.4930
10040TIP3   OH251610   0.032   1.552   2.806  1.0159 -0.1250  0.4550
10040TIP3    H151611  -0.031   1.608   2.852 -1.2494 -1.0612 -1.4033
10040TIP3    H251612   0.008   1.561   2.713  1.4969 -3.0551  0.0161
10041TIP3   OH251613   3.105   5.724  11.798 -0.5951  0.1018 -0.1089
10041TIP3    H151614   3.074   5.810  11.769 -0.3603  1.0508  2.4113
10041TIP3    H251615   3.195   5.719  11.766 -0.0417  1.5164  1.1891
10042TIP3   OH251616   0.881   4.408  13.181  0.1851  0.0135  0.2138
10042TIP3    H151617   0.808   4.424  13.242  1.9070  1.7849  1.8752
10042TIP3    H251618   0.931   4.337  13.222  0.8586  0.6029  0.4064
10043TIP3   OH251619   6.386   2.705  12.232  0.0665  0.0296  0.0475
10043TIP3    H151620   6.448   2.778  12.232 -0.4332  0.4615  0.4363
10043TIP3    H251621   6.301   2.746  12.247 -0.1443 -0.7018  0.9016
10044TIP3   OH251622   0.931   2.609  10.681 -0.3869 -0.0299  0.2904
10044TIP3    H151623   0.855   2.658  10.714 -1.0600 -1.7152  1.3287
10044TIP3    H251624   1.005   2.667  10.695 -1.2128  0.8186  1.2269
10045TIP3   OH251625   2.276   3.814  15.167 -0.4061 -0.1290  0.5328
10045TIP3    H151626   2.353   3.803  15.223  1.3401  1.2521 -1.5175
10045TIP3    H251627   2.202   3.796  15.225  1.4356 -1.4862  2.5575
10046TIP3   OH251628   2.718   0.441   3.431  0.0088  0.2754  0.0800
10046TIP3    H151629   2.752   0.451   3.520 -1.2362  0.7420  0.5239
10046TIP3    H251630   2.681   0.527   3.409 -0.0283  0.0596 -0.7366
10047TIP3   OH251631   0.994   2.916   5.993 -0.0131  0.0295 -0.0195
10047TIP3    H151632   1.039   2.979   6.049 -2.3369  1.0716  0.7356
10047TIP3    H251633   0.932   2.968   5.943 -2.9362 -1.7550  1.5867
10048TIP3   OH251634   1.021   4.693  11.630 -0.0046 -0.5219  0.1415
10048TIP3    H151635   0.998   4.761  11.693 -0.2613  0.2731 -0.8014
10048TIP3    H251636   0.938   4.663  11.594  0.1584 -0.7478 -0.0569
10049TIP3   OH251637   5.521   1.224  17.128  0.4968  0.6560 -0.0211
10049TIP3    H151638   5.480   1.142  17.098  0.3705  0.9826 -0.7550
10049TIP3    H251639   5.565   1.200  17.209 -0.5280  0.1337  0.3860
10050TIP3   OH251640   4.646   5.104  14.833 -0.4860 -0.5204  0.9893
10050TIP3    H151641   4.680   5.104  14.922  0.3181 -0.2418  0.6859
10050TIP3    H251642   4.647   5.196  14.807  0.1897 -0.7068  0.3508
10051TIP3   OH251643   4.907   0.530  15.041  0.2809  0.3806  0.5300
10051TIP3    H151644   4.880   0.612  15.084  1.1038  1.3998 -0.8366
10051TIP3    H251645   4.981   0.556  14.987 -0.8883 -0.8114 -1.6846
10052TIP3   OH251646   4.269   1.288   4.108 -0.3518  0.7450  0.2615
10052TIP3    H151647   4.292   1.292   4.015  1.1534 -2.8027  0.4021
10052TIP3    H251648   4.213   1.210   4.115  1.2278 -0.2285  2.6261
10053TIP3   OH251649   4.487   4.743  12.514 -0.0182 -0.3051 -0.1360
10053TIP3    H151650   4.529   4.742  12.600 -1.7725  0.5562  0.7641
10053TIP3    H251651   4.556   4.720  12.452  1.3786 -0.4253  1.4583
10054TIP3   OH251652   3.326   6.168   0.822 -0.0558 -0.1905 -0.0268
10054TIP3    H151653   3.343   6.196   0.912 -0.6731  1.2510 -0.3607
10054TIP3    H251654   3.391   6.099   0.806  1.2248  0.7928  0.9104
10055TIP3   OH251655   0.479   1.308  16.937  0.3560  0.4252  0.1848
10055TIP3    H151656   0.422   1.231  16.934  0.2613  0.5424 -1.0757
10055TIP3    H251657   0.554   1.280  16.990 -0.2325 -0.1611  0.7151
10056TIP3   OH251658   0.620   3.985   2.890  0.1937 -0.1360  0.2295
10056TIP3    H151659   0.644   3.893   2.905 -0.4464 -0.3976 -0.3038
10056TIP3    H251660   0.689   4.035   2.933  1.5383 -0.8679 -1.0345
10057TIP3   OH251661   2.540   4.597   3.108 -0.1300  0.2881 -0.1973
10057TIP3    H151662   2.532   4.504   3.127  0.7211  0.3861  0.6989
10057TIP3    H251663   2.634   4.611   3.093 -0.2421  1.0143 -0.2547
10058TIP3   OH251664   0.763   2.456  14.842 -0.6978  0.3559  0.3702
10058TIP3    H151665   0.748   2.481  14.750  1.0163 -1.4653 -0.4260
10058TIP3    H251666   0.835   2.394  14.839 -0.6846  0.1896  2.9721
10059TIP3   OH251667   0.867   1.144   2.846 -0.6378  0.3007  0.5048
10059TIP3    H151668   0.795   1.180   2.899  0.1372  1.3405  0.8884
10059TIP3    H251669   0.871   1.052   2.870 -0.5385  0.6814  2.0038
10060TIP3   OH251670   3.058   1.902   0.193 -0.6456  0.1709 -0.4186
10060TIP3    H151671   3.088   1.942   0.111 -0.3111 -1.3696 -1.0538
10060TIP3    H251672   3.062   1.974   0.257  2.5054  0.5286 -0.9289
10061TIP3   OH251673   4.117   3.640   3.582 -0.5085  0.5949 -0.1437
10061TIP3    H151674   4.206   3.666   3.560  0.1044  1.3796  3.0759
10061TIP3    H251675   4.124   3.548   3.607 -0.8025  0.3473 -0.9560
10062TIP3   OH251676   1.818   5.772  16.111  0.1555 -0.0047 -0.1084
10062TIP3    H151677   1.736   5.818  16.093  0.2464 -0.0212 -0.5624
10062TIP3    H251678   1.870   5.835  16.160  0.1352  0.2428 -0.4074
10063TIP3   OH251679   0.828   4.975   0.001 -0.1801 -0.1528 -0.5695
10063TIP3    H151680   0.869   4.917  -0.063 -1.5810 -0.8246 -0.8802
10063TIP3    H251681   0.744   4.933   0.021 -0.0375  0.3907  1.2275
10064TIP3   OH251682   5.825   6.813  14.677  0.5524 -0.0446 -0.0850
10064TIP3    H151683   5.786   6.874  14.615  1.2423  2.6024  1.9860
10064TIP3    H251684   5.919   6.824  14.665  0.6809 -0.2729  0.6628
10065TIP3   OH251685   1.276   5.935   5.263 -0.1523 -0.2025  0.2633
10065TIP3    H151686   1.356   5.899   5.224 -0.6879 -1.8273  0.5961
10065TIP3    H251687   1.271   5.892   5.349 -0.6982  0.8690  0.7721
10066TIP3   OH251688   2.255   0.811  16.100 -0.1502  0.0082  0.2483
10066TIP3    H151689   2.232   0.757  16.025  0.9210 -1.8981  1.2462
10066TIP3    H251690   2.289   0.892  16.063 -0.9385 -0.3563 -1.2903
10067TIP3   OH251691   6.083   6.364  11.514 -0.4689 -0.6053 -0.2247
10067TIP3    H151692   6.133   6.330  11.588 -0.4045  0.5882  0.2901
10067TIP3    H251693   6.138   6.345  11.438  1.6737  2.3408  0.5129
10068TIP3   OH251694   0.463   1.310  13.529 -0.7291  0.0489 -0.4144
10068TIP3    H151695   0.548   1.290  13.568  0.1978  2.7631 -0.9283
10068TIP3    H251696   0.440   1.231  13.480  1.9683 -0.4213 -1.0368
10069TIP3   OH251697   2.154   3.897  12.245 -0.0675 -0.1193 -0.0901
10069TIP3    H151698   2.107   3.830  12.195 -0.5265  0.8913 -1.0116
10069TIP3    H251699   2.146   3.868  12.336  1.2113 -2.2426 -0.6144
10070TIP3   OH251700   3.556   2.815  12.214  0.5985 -0.4820 -0.2287
10070TIP3    H151701   3.648   2.834  12.199  0.9077 -1.7570  0.0495
10070TIP3    H251702   3.510   2.861  12.143  1.3530  0.9968  0.2246
10071TIP3   OH251703   1.675   5.248   6.612  0.8885 -0.0794 -0.1410
10071TIP3    H151704   1.739   5.218   6.677  0.4693  2.6357  1.6097
10071TIP3    H251705   1.714   5.326   6.574 -0.7824  0.8307 -0.0381
10072TIP3   OH251706   1.338   1.388  10.423  0.7018  0.0600 -0.0173
10072TIP3    H151707   1.259   1.407  10.473  0.5399 -0.4227 -0.0840
10072TIP3    H251708   1.317   1.415  10.333  0.5891 -0.1279 -0.0489
10073TIP3   OH251709   0.503   5.423  10.704  0.5576 -0.3175  0.3014
10073TIP3    H151710   0.507   5.489  10.635 -0.5466 -0.6102 -0.0482
10073TIP3    H251711   0.570   5.359  10.680  0.7714  0.0308 -0.0281
10074TIP3   OH251712   6.047   0.566   4.139 -0.3088  0.7111 -0.0728
10074TIP3    H151713   6.007   0.480   4.155  1.5636 -0.0596  0.6334
10074TIP3    H251714   6.113   0.550   4.071 -0.0962  1.6229 -0.0850
10075TIP3   OH251715   5.278   3.292  14.238  0.3066  0.3087 -0.1340
10075TIP3    H151716   5.210   3.330  14.293  1.2640  4.7200 -1.7413
10075TIP3    H251717   5.360   3.313  14.283  0.8904  0.5998 -1.2974
10076TIP3   OH251718   4.055   6.624  15.239 -0.5973 -0.3164  0.4751
10076TIP3    H151719   4.133   6.572  15.222 -1.0529 -0.8019 -0.2082
10076TIP3    H251720   4.032   6.660  15.153 -1.5321 -0.7753  0.5265
10077TIP3   OH251721   1.780   0.579  12.382  0.1231 -0.2925  0.0751
10077TIP3    H151722   1.873   0.569  12.363  0.1036 -0.9761  0.3276
10077TIP3    H251723   1.770   0.670  12.410  0.4719  0.2054 -1.3722
10078TIP3   OH251724   6.304   5.321   3.213 -0.1446 -0.2617 -0.2959
10078TIP3    H151725   6.384   5.305   3.262 -0.5857 -0.2715  0.4388
10078TIP3    H251726   6.237   5.272   3.261 -0.3416 -1.3787 -1.6803
10079TIP3   OH251727   2.636   6.512   2.558  0.1436 -0.2439 -0.3445
10079TIP3    H151728   2.616   6.537   2.468  2.1921 -0.7929 -0.9800
10079TIP3    H251729   2.732   6.511   2.562  0.0852  0.9784  2.1817
10080TIP3   OH251730   5.231   5.608  14.871 -0.5430  0.2467  0.6094
10080TIP3    H151731   5.230   5.526  14.821  0.9012  1.0184 -0.7072
10080TIP3    H251732   5.255   5.675  14.807 -0.5190  1.5318  1.9428
10081TIP3   OH251733   5.700   5.454   0.368  0.7450 -0.4030  0.3969
10081TIP3    H151734   5.683   5.515   0.296  2.8756  0.1830  0.3797
10081TIP3    H251735   5.621   5.459   0.422  0.3569  1.3763 -0.3094
10082TIP3   OH251736   4.608   2.672  14.169 -0.0991 -0.1421  0.3109
10082TIP3    H151737   4.572   2.657  14.256  1.7624  0.6543  1.2360
10082TIP3    H251738   4.701   2.688  14.183 -0.1269  2.0579 -1.6029
10083TIP3   OH251739   2.100   3.018   3.207  0.2649  0.1280 -0.1615
10083TIP3    H151740   2.062   3.081   3.146  1.0473  0.0313 -0.7718
10083TIP3    H251741   2.050   2.937   3.193  0.2466  0.1914 -0.4652
10084TIP3   OH251742   6.536   5.334  13.484  0.0038  0.2589 -0.2025
10084TIP3    H151743   6.468   5.289  13.534 -0.1513  0.0378 -0.6080
10084TIP3    H251744   6.497   5.418  13.460 -1.0998 -0.8784 -2.6362
10085TIP3   OH251745   6.272   5.579   0.665 -0.2158  0.3415 -0.4662
10085TIP3    H151746   6.178   5.599   0.669 -0.0340  0.9858  1.1241
10085TIP3    H251747   6.276   5.485   0.647 -1.1913  0.0596  0.6930
10086TIP3   OH251748   4.134   3.845  11.975  0.4697 -0.2195 -0.0734
10086TIP3    H151749   4.223   3.879  11.979  0.1549  0.5899  0.2652
10086TIP3    H251750   4.104   3.844  12.066 -0.5371  1.3677 -0.3708
10087TIP3   OH251751   3.813   6.130   3.255  0.0074  0.2998 -0.0979
10087TIP3    H151752   3.718   6.139   3.258  0.0882  1.0687  0.3998
10087TIP3    H251753   3.846   6.220   3.250  0.7078  0.0398 -0.2837
10088TIP3   OH251754   6.290   1.483  12.014 -0.3649 -0.3834  0.6296
10088TIP3    H151755   6.352   1.413  12.034  2.3925  1.6481 -0.4397
10088TIP3    H251756   6.236   1.491  12.092  3.9105  0.9917  3.6169
10089TIP3   OH251757   3.669   3.923  15.259  0.9643 -0.1480 -0.2656
10089TIP3    H151758   3.688   3.860  15.328  0.5371  0.4527  0.4062
10089TIP3    H251759   3.613   3.874  15.198 -1.6827  0.3731  1.6616
10090TIP3   OH251760   4.557   1.649   0.946 -1.0048  0.6690 -0.0311
10090TIP3    H151761   4.593   1.678   0.862  1.7265  0.5695  1.0448
10090TIP3    H251762   4.605   1.568   0.965 -1.8246  0.5287  1.4893
10091TIP3   OH251763   4.790   4.443  13.563  0.6274  0.5269 -0.1990
10091TIP3    H151764   4.731   4.368  13.563  0.4998  0.6265 -0.0698
10091TIP3    H251765   4.733   4.519  13.574  0.6743  0.7114 -1.1416
10092TIP3   OH251766   1.604   2.639   5.254  0.6189 -0.5178 -0.2342
10092TIP3    H151767   1.591   2.549   5.283 -1.8988  0.0406  0.4780
10092TIP3    H251768   1.624   2.688   5.334 -0.6527  0.0069 -0.2263
10093TIP3   OH251769   4.973   6.558  12.181 -0.2791 -0.2551  0.6286
10093TIP3    H151770   4.895   6.503  12.176  0.7639 -1.7466  0.5776
10093TIP3    H251771   5.045   6.499  12.159  0.9756  0.8543  1.7178
10094TIP3   OH251772   4.979   4.289  17.270 -0.3749 -0.6337  0.4656
10094TIP3    H151773   4.923   4.366  17.274  3.1564  2.0314  1.8558
10094TIP3    H251774   4.995   4.276  17.176  0.2654  1.4057  0.2565
10095TIP3   OH251775   0.512   0.996  11.565 -0.0399 -0.7508 -0.5007
10095TIP3    H151776   0.573   1.069  11.576  1.8649 -2.1293 -1.5506
10095TIP3    H251777   0.448   1.027  11.501  1.3952 -0.3639 -1.7873
10096TIP3   OH251778   1.776   5.206  16.443  0.7354 -0.1043 -0.1187
10096TIP3    H151779   1.745   5.184  16.355  1.6195 -2.2724  0.1041
10096TIP3    H251780   1.705   5.259  16.480  0.0758  0.2931 -1.8931
10097TIP3   OH251781   0.140   3.021   6.526  0.4023 -0.2558 -0.5128
10097TIP3    H151782   0.064   2.968   6.504  0.1401 -0.5602  1.0758
10097TIP3    H251783   0.211   2.958   6.538 -0.1055 -0.3811  2.2183
10098TIP3   OH251784   6.648   3.513   0.859 -0.0924 -1.2235  0.2823
10098TIP3    H151785   6.734   3.496   0.822  0.2077  0.5860  0.1323
10098TIP3    H251786   6.665   3.546   0.947 -0.6937 -2.1724  0.7729
10099TIP3   OH251787   1.920   0.970  16.033  0.4054 -0.2104  0.0865
10099TIP3    H151788   1.824   0.970  16.040  0.3217  2.2557 -0.7069
10099TIP3    H251789   1.950   0.944  16.120 -0.9573  0.4919  0.7855
10100TIP3   OH251790   3.704   3.462   0.896 -0.0665  0.0535 -0.3170
10100TIP3    H151791   3.609   3.449   0.903 -0.5297  2.4284 -1.6269
10100TIP3    H251792   3.714   3.533   0.833  2.6317 -0.5180 -0.5951
10101TIP3   OH251793   4.007   1.581   2.849  0.2622 -0.1852 -0.3135
10101TIP3    H151794   3.952   1.659   2.859 -0.0851 -0.3962 -0.5483
10101TIP3    H251795   3.993   1.555   2.758  1.1843  0.0806 -0.5308
10102TIP3   OH251796   1.640   4.623   2.360  0.1917  0.1521  0.4268
10102TIP3    H151797   1.630   4.581   2.275  1.2119 -0.1576  0.4466
10102TIP3    H251798   1.573   4.690   2.362  0.1781  0.1768 -0.6403
10103TIP3   OH251799   3.098   5.040  16.452  0.0570  0.1883 -0.1808
10103TIP3    H151800   3.104   4.961  16.397  0.5982 -0.6721  1.1033
10103TIP3    H251801   3.057   5.010  16.533  0.2473  1.2408  0.3135
10104TIP3   OH251802   1.497   5.092   0.542 -0.4891 -0.1965 -0.2945
10104TIP3    H151803   1.562   5.025   0.521 -0.4199 -0.2274  0.0122
10104TIP3    H251804   1.539   5.146   0.610 -0.1853  0.7275 -1.2110
10105TIP3   OH251805   1.893   2.147  11.446  0.2113  0.4353 -0.0157
10105TIP3    H151806   1.957   2.076  11.459 -1.2208 -0.9688 -0.4882
10105TIP3    H251807   1.881   2.151  11.351 -1.7356 -0.5267  0.1775
10106TIP3   OH251808   4.265   2.555  13.471  0.5586 -0.0217 -0.0614
10106TIP3    H151809   4.172   2.574  13.460  0.5436 -1.1818 -2.1222
10106TIP3    H251810   4.297   2.625  13.529 -1.4784  0.6392  0.3065
10107TIP3   OH251811   0.655   1.379   5.613  0.1529 -1.1952  0.0454
10107TIP3    H151812   0.653   1.323   5.535  1.8965 -1.4252  0.1588
10107TIP3    H251813   0.747   1.399   5.627 -0.1896 -0.6868  1.7351
10108TIP3   OH251814   5.345   0.458   4.805 -0.3164  0.0443 -0.3374
10108TIP3    H151815   5.287   0.398   4.851  1.3216 -1.1126  0.2601
10108TIP3    H251816   5.393   0.503   4.874  0.2639  0.2105 -0.8408
10109TIP3   OH251817   4.671   1.177   2.895 -0.1333 -0.2338  0.2100
10109TIP3    H151818   4.694   1.205   2.806 -0.1272  0.1860  0.3406
10109TIP3    H251819   4.737   1.219   2.951  0.6273 -1.5295  0.2956
10110TIP3   OH251820   3.568   1.093   3.050  0.0390 -0.1960 -0.4994
10110TIP3    H151821   3.574   1.048   3.134  0.5532  0.6324 -0.0896
10110TIP3    H251822   3.585   1.024   2.985  1.5448 -0.4549  0.1583
10111TIP3   OH251823   0.487   1.543  16.779 -0.4303 -0.1891  0.3914
10111TIP3    H151824   0.485   1.459  16.826  0.9801 -2.1011 -2.7549
10111TIP3    H251825   0.395   1.559  16.755 -0.6424 -1.0859  0.5834
10112TIP3   OH251826   5.506   3.086   0.818  0.2855  0.4036 -0.1095
10112TIP3    H151827   5.487   3.018   0.883 -0.7597  0.5156 -0.2959
10112TIP3    H251828   5.518   3.038   0.736 -0.1257  0.4189 -0.1770
10113TIP3   OH251829   6.236   0.139   1.134  0.2081 -0.0915  0.3265
10113TIP3    H151830   6.252   0.158   1.041 -0.7550 -1.0978 -0.0566
10113TIP3    H251831   6.238   0.044   1.140 -1.0624 -0.0907  1.0891
10114TIP3   OH251832   1.129   5.869  16.434 -0.2002  0.2819  0.7672
10114TIP3    H151833   1.040   5.894  16.410 -0.5984 -1.2449  0.5615
10114TIP3    H251834   1.130   5.774  16.424  1.1513  0.1752  1.7856
10115TIP3   OH251835   0.343   1.352  16.362  0.4938  0.1225 -0.1584
10115TIP3    H151836   0.377   1.264  16.377  0.7351  0.3088  0.4090
10115TIP3    H251837   0.249   1.345  16.382  0.3622 -0.1818 -0.8571
10116TIP3   OH251838   6.071   1.479  16.723 -0.1110  0.9719 -0.3948
10116TIP3    H151839   6.067   1.401  16.668  0.0727  1.8613 -1.6933
10116TIP3    H251840   5.991   1.527  16.702 -1.9311 -0.4703  2.9122
10117TIP3   OH251841   4.366   3.160  10.785  0.0359 -0.1755  0.5670
10117TIP3    H151842   4.297   3.221  10.809  0.1087 -0.1010  0.5892
10117TIP3    H251843   4.388   3.115  10.867  0.8704  0.6768  0.8141
10118TIP3   OH251844   5.400   2.643  12.575  0.0449 -0.4378 -0.4420
10118TIP3    H151845   5.345   2.685  12.509  0.1166  1.9614  0.9816
10118TIP3    H251846   5.487   2.681  12.562  0.7217 -2.0213 -0.7421
10119TIP3   OH251847   3.726   1.178   0.939  0.5576  0.1205 -0.1019
10119TIP3    H151848   3.747   1.111   1.004  1.2787  0.4954  0.0657
10119TIP3    H251849   3.810   1.221   0.922  0.5325 -0.4956 -1.8760
10120TIP3   OH251850   5.100   4.271  17.002  0.0026  0.1133 -0.2299
10120TIP3    H151851   5.143   4.188  17.019 -1.4347 -0.6622 -0.2485
10120TIP3    H251852   5.128   4.295  16.913 -0.6982 -1.0749 -0.7791
10121TIP3   OH251853   2.097   0.946  11.334 -0.0068 -0.5371  0.6595
10121TIP3    H151854   2.180   0.903  11.357  0.3358  0.1424  0.6865
10121TIP3    H251855   2.117   1.039  11.333 -0.0197 -0.5027 -2.3115
10122TIP3   OH251856   5.334   5.893  15.002 -0.2013 -0.7422 -0.1575
10122TIP3    H151857   5.322   5.861  14.912 -0.2613 -0.2542 -0.3286
10122TIP3    H251858   5.426   5.920  15.005 -0.6098  0.7493 -0.5723
10123TIP3   OH251859   0.336   5.573  11.890 -0.5883 -0.6719 -1.0434
10123TIP3    H151860   0.377   5.500  11.843 -1.0296  0.0320 -2.5551
10123TIP3    H251861   0.252   5.586  11.846 -1.2572 -0.3683  0.3158
10124TIP3   OH251862   4.582   1.330   6.338 -0.1302 -0.0615 -0.6272
10124TIP3    H151863   4.572   1.419   6.371  0.7560 -0.1656 -0.0810
10124TIP3    H251864   4.492   1.302   6.317 -0.3117  1.3198 -1.7897
10125TIP3   OH251865   2.594   5.373  12.248 -0.2213  0.0509  0.0229
10125TIP3    H151866   2.662   5.398  12.311  0.9308  0.0081 -1.1968
10125TIP3    H251867   2.520   5.429  12.271  0.1031 -0.1033  1.5498
10126TIP3   OH251868   1.837   0.938   2.868  0.7677 -0.1078  0.8874
10126TIP3    H151869   1.839   0.987   2.786  0.5912 -1.3323  0.1425
10126TIP3    H251870   1.906   0.978   2.921  0.9649  0.6180  0.1061
10127TIP3   OH251871   4.343   3.149  17.262 -0.1515 -0.3515 -0.0651
10127TIP3    H151872   4.357   3.243  17.274  0.2159 -0.5567  1.1656
10127TIP3    H251873   4.301   3.142  17.176 -0.2269  0.9389 -0.1457
10128TIP3   OH251874   2.343   6.394  12.730  0.1818  0.0131 -0.2966
10128TIP3    H151875   2.419   6.451  12.720 -0.1473  0.6944  1.0403
10128TIP3    H251876   2.320   6.369  12.640  1.6993  0.1641 -0.7387
10129TIP3   OH251877   1.865   1.902   1.982 -0.4437 -0.2787 -0.2939
10129TIP3    H151878   1.831   1.983   1.944 -1.1518 -1.7820 -2.9699
10129TIP3    H251879   1.958   1.901   1.958 -0.3217 -0.0306  0.1631
10130TIP3   OH251880   3.654   3.826  15.963 -0.0649  0.3402  0.1840
10130TIP3    H151881   3.668   3.904  15.910 -0.3881  1.4544  1.7018
10130TIP3    H251882   3.643   3.859  16.052  0.4460 -1.4921  0.9534
10131TIP3   OH251883   1.512   3.493  17.229  0.2800 -0.5332 -0.4234
10131TIP3    H151884   1.495   3.579  17.190  1.4931  0.1436  0.5187
10131TIP3    H251885   1.607   3.483  17.225  0.3306 -0.8814  1.4587
10132TIP3   OH251886   3.460   0.978  15.626 -0.4957  0.1875  0.0925
10132TIP3    H151887   3.545   0.974  15.669  0.0164  1.8899 -0.7183
10132TIP3    H251888   3.433   0.886  15.616  0.8241 -0.3194  1.1608
10133TIP3   OH251889   2.018   4.096   4.573 -0.4006 -0.5897 -0.5873
10133TIP3    H151890   2.111   4.074   4.572 -0.3923 -0.6864  0.7719
10133TIP3    H251891   2.013   4.178   4.622 -1.0082 -0.5206 -0.7613
10134TIP3   OH251892   5.665   4.219  12.768  0.3820  0.2767 -0.2229
10134TIP3    H151893   5.690   4.308  12.792  0.7669  0.2557 -0.5409
10134TIP3    H251894   5.571   4.224  12.751  0.6301  0.8937 -1.4657
10135TIP3   OH251895   3.804   3.274   0.090 -0.2885  0.3870  0.4126
10135TIP3    H151896   3.744   3.347   0.103  0.5643  0.8601  1.9238
10135TIP3    H251897   3.878   3.311   0.041 -0.9111 -0.0318 -0.8572
10136TIP3   OH251898   1.870   1.312   6.175 -0.6158 -0.2362  0.2294
10136TIP3    H151899   1.888   1.249   6.244 -2.2252 -1.0922 -0.1120
10136TIP3    H251900   1.797   1.274   6.125 -0.5580  1.1285 -0.9464
10137TIP3   OH251901   2.268   4.338  16.078  0.3292 -0.1841 -0.0642
10137TIP3    H151902   2.247   4.247  16.058  0.7654 -0.3014  0.0024
10137TIP3    H251903   2.360   4.336  16.104 -0.0935  0.0401  1.4881
10138TIP3   OH251904   6.240   6.173  12.566 -0.1423  0.0427  0.1909
10138TIP3    H151905   6.246   6.078  12.559 -0.4098 -0.0564  1.2570
10138TIP3    H251906   6.151   6.194  12.541  0.2685  0.1421 -1.2614
10139TIP3   OH251907   4.850   4.567  13.251 -0.0178  0.4749 -0.0881
10139TIP3    H151908   4.804   4.484  13.239  0.1534  0.6867 -2.3779
10139TIP3    H251909   4.899   4.555  13.332 -1.5263 -0.9349  0.6591
10140TIP3   OH251910   1.266   3.431   0.232  0.2287  0.7012 -0.4189
10140TIP3    H151911   1.232   3.432   0.143 -1.0176  1.2909  0.0364
10140TIP3    H251912   1.348   3.479   0.228  0.9359 -0.5922 -1.5274
10141TIP3   OH251913   1.279   0.416   5.172 -0.2809 -0.5001 -0.6134
10141TIP3    H151914   1.261   0.495   5.122 -0.4810 -1.8267 -2.7059
10141TIP3    H251915   1.193   0.387   5.204  0.0087  1.1177  1.7726
10142TIP3   OH251916   1.239   4.022   2.386 -0.1647 -0.0644  0.6926
10142TIP3    H151917   1.285   4.072   2.454  1.8169 -0.4599 -0.3054
10142TIP3    H251918   1.185   4.087   2.341  2.4646  1.2689 -0.6676
10143TIP3   OH251919   1.071   4.434   2.669  0.3326 -0.3481 -0.1564
10143TIP3    H151920   1.130   4.496   2.712 -1.9195  1.1990  0.7899
10143TIP3    H251921   1.074   4.356   2.725  0.9415 -0.0127  0.2856
10144TIP3   OH251922   1.479   4.020   6.551 -0.6866 -0.1546  0.0287
10144TIP3    H151923   1.556   4.060   6.511 -1.4663  0.6813 -0.6739
10144TIP3    H251924   1.479   3.930   6.517 -1.7316  0.7428 -2.5155
10145TIP3   OH251925   6.544   4.204  12.415  0.1406 -0.6167 -0.3369
10145TIP3    H151926   6.586   4.177  12.497 -1.8316 -1.2381  0.4918
10145TIP3    H251927   6.535   4.124  12.364  1.5182 -0.2046 -1.2675
10146TIP3   OH251928   1.837   0.727   5.699 -0.3119  0.2285  0.1867
10146TIP3    H151929   1.817   0.733   5.793 -1.3706 -1.2240  0.0669
10146TIP3    H251930   1.931   0.707   5.696 -0.4337 -0.5250  0.9712
10147TIP3   OH251931   4.843   2.553   4.191 -0.7193  0.0078 -0.1932
10147TIP3    H151932   4.862   2.606   4.114 -2.0378 -0.6655 -0.9884
10147TIP3    H251933   4.889   2.471   4.176 -0.9400 -0.1076 -0.2431
10148TIP3   OH251934   5.730   2.611  11.187 -0.0458 -0.2977 -0.4620
10148TIP3    H151935   5.690   2.698  11.186  0.7103  0.1083  1.5934
10148TIP3    H251936   5.796   2.614  11.117  0.7349  1.1819  0.2903
10149TIP3   OH251937   1.920   3.643   1.914 -0.2230  0.6216 -0.5775
10149TIP3    H151938   1.933   3.560   1.959 -1.1382  0.4320 -0.6555
10149TIP3    H251939   1.950   3.709   1.976  1.5985  0.1821 -0.9551
10150TIP3   OH251940   5.984   3.125  13.211  0.3001 -0.5851 -0.1859
10150TIP3    H151941   6.049   3.094  13.274  0.1915 -0.4664 -0.0150
10150TIP3    H251942   6.034   3.139  13.130  0.6540  0.3233  0.1761
10151TIP3   OH251943   4.796   3.586  13.960 -0.1132 -0.3198  0.5929
10151TIP3    H151944   4.803   3.543  14.045  0.1365  1.1493  1.3361
10151TIP3    H251945   4.737   3.660  13.975 -1.1269 -0.7990 -0.8320
10152TIP3   OH251946   3.713   0.644   0.650 -0.2441 -0.7613 -0.0019
10152TIP3    H151947   3.801   0.668   0.623 -0.6259  0.6910 -0.0261
10152TIP3    H251948   3.718   0.551   0.671  1.4660 -0.5100  0.7394
10153TIP3   OH251949   1.596   3.967  13.336 -0.0802  0.0386  0.0396
10153TIP3    H151950   1.664   4.033  13.351 -0.2313 -0.0593  1.1722
10153TIP3    H251951   1.579   3.930  13.422 -0.8660 -0.6370 -0.4002
10154TIP3   OH251952   3.240   3.241   0.401  0.9016  0.7356  0.4939
10154TIP3    H151953   3.181   3.267   0.472 -0.0839  0.2963 -0.1484
10154TIP3    H251954   3.265   3.151   0.423 -1.2083 -0.2327 -0.8499
10155TIP3   OH251955   0.568   2.615   1.980 -0.6320 -0.3227 -0.3460
10155TIP3    H151956   0.570   2.702   2.019  1.8187  0.7461 -2.6698
10155TIP3    H251957   0.552   2.556   2.053  1.7044  1.7681  1.9485
10156TIP3   OH251958   4.113   5.413  14.033  0.2461  0.2200 -0.3517
10156TIP3    H151959   4.065   5.332  14.018  0.4543  0.0174  0.0525
10156TIP3    H251960   4.049   5.482  14.018 -0.0560 -0.0341 -0.2434
10157TIP3   OH251961   2.771   3.915  11.600 -0.4587 -0.1779 -0.1581
10157TIP3    H151962   2.809   3.984  11.655  1.3996 -1.7089  0.5505
10157TIP3    H251963   2.811   3.929  11.514 -0.0699 -0.3738 -0.0100
10158TIP3   OH251964   3.347   1.602  12.545  0.8399 -0.2630 -0.0302
10158TIP3    H151965   3.386   1.516  12.528 -0.9949 -1.1051 -0.1206
10158TIP3    H251966   3.415   1.664  12.518  2.0880 -1.6650 -0.2548
10159TIP3   OH251967   6.793   4.174  17.195 -0.0313  0.4865  0.5190
10159TIP3    H151968   6.778   4.180  17.100 -0.2258  0.7288  0.5652
10159TIP3    H251969   6.757   4.255  17.230 -1.4163 -0.3105  0.9802
10160TIP3   OH251970   5.096   2.167   4.577 -0.4400  0.2956  0.0863
10160TIP3    H151971   5.017   2.208   4.613 -0.7918  1.3366 -1.7788
10160TIP3    H251972   5.161   2.175   4.647 -1.2488  1.7652  0.7118
10161TIP3   OH251973   0.891   3.670   3.480  0.0786 -0.2412  0.5052
10161TIP3    H151974   0.806   3.657   3.438  0.6678  1.0721 -1.1539
10161TIP3    H251975   0.877   3.740   3.544  0.2701  1.1560 -0.9534
10162TIP3   OH251976   4.537   1.366   5.897  1.0758  0.5850 -0.7383
10162TIP3    H151977   4.483   1.354   5.975  3.7022  1.0379  1.2435
10162TIP3    H251978   4.475   1.373   5.825 -1.4501  0.6409  1.3802
10163TIP3   OH251979   1.739   4.102   2.619  0.5639  0.1099 -0.4266
10163TIP3    H151980   1.744   4.178   2.560 -0.8343  0.5302 -0.0159
10163TIP3    H251981   1.752   4.138   2.706 -2.2747  0.2386 -0.0033
10164TIP3   OH251982   3.146   0.969   0.842  0.8489  0.2288  0.0735
10164TIP3    H151983   3.235   0.982   0.809  1.4975  1.0071  2.0514
10164TIP3    H251984   3.156   0.905   0.912 -0.2210  0.0282  0.0525
10165TIP3   OH251985   6.755   6.810  14.126  0.3643 -0.2250  0.7714
10165TIP3    H151986   6.770   6.854  14.210  1.8190 -0.1230  0.4860
10165TIP3    H251987   6.824   6.844  14.069  0.6391 -1.8064  0.1259
10166TIP3   OH251988   5.909   4.865   5.398 -0.1093 -0.3191 -0.2078
10166TIP3    H151989   5.897   4.953   5.363  0.4070 -0.3651 -0.5139
10166TIP3    H251990   5.890   4.807   5.324 -0.4247 -0.4655 -0.0146
10167TIP3   OH251991   0.479   3.126  12.419  0.3070 -0.3999 -0.8124
10167TIP3    H151992   0.430   3.208  12.426 -0.9613 -1.2716  0.9477
10167TIP3    H251993   0.571   3.152  12.421 -0.0750  1.1776 -3.0125
10168TIP3   OH251994   3.316   3.336   1.093  0.2034  0.2156 -0.4374
10168TIP3    H151995   3.348   3.421   1.062 -2.0421  1.0464 -0.5962
10168TIP3    H251996   3.229   3.355   1.128  0.0667 -1.8650  0.4211
10169TIP3   OH251997   2.969   0.814  11.510  0.2143 -0.4326 -0.3186
10169TIP3    H151998   2.990   0.738  11.565  0.6533 -1.0501 -1.3151
10169TIP3    H251999   3.025   0.884  11.544 -0.0344 -0.6208  0.4720
10170TIP3   OH252000   1.001   3.488  12.947  0.0798 -0.2512  0.2109
10170TIP3    H152001   0.998   3.400  12.985 -2.3325 -0.0970  0.4714
10170TIP3    H252002   1.020   3.475  12.855 -1.7156 -1.1885 -0.0518
10171TIP3   OH252003   5.579   3.823  17.139 -0.6409 -0.1130  0.1319
10171TIP3    H152004   5.612   3.769  17.211  1.2359  0.3290 -0.3693
10171TIP3    H252005   5.590   3.768  17.062 -1.5244 -0.1245  0.0043
10172TIP3   OH252006   4.099   1.297  12.032 -0.1891  0.4307  0.0216
10172TIP3    H152007   4.110   1.344  11.949 -1.9535  1.5286  0.3756
10172TIP3    H252008   4.061   1.213  12.008  1.0185  0.0118 -0.4378
10173TIP3   OH252009   0.541   6.445  16.819 -1.0603 -0.0709 -0.2744
10173TIP3    H152010   0.484   6.400  16.757  1.1824 -0.6248 -2.0285
10173TIP3    H252011   0.527   6.538  16.801 -0.8143 -0.2202 -1.2714
10174TIP3   OH252012   0.784   0.553  11.901 -0.1046 -0.2864  0.2114
10174TIP3    H152013   0.817   0.636  11.866 -1.0487  0.2227  0.4986
10174TIP3    H252014   0.743   0.511  11.825  0.8062 -0.7240 -0.0495
10175TIP3   OH252015   4.176   3.060   3.667 -0.0097 -0.3171 -0.1812
10175TIP3    H152016   4.211   2.971   3.670 -1.4289 -0.9033 -0.4738
10175TIP3    H252017   4.171   3.081   3.574 -1.6996 -0.7665 -0.2041
10176TIP3   OH252018   2.601   1.907   6.700  0.7304  0.4782  0.3602
10176TIP3    H152019   2.674   1.846   6.690 -0.0659 -0.5165  0.5402
10176TIP3    H252020   2.556   1.879   6.780 -0.4128  0.4659 -0.2662
10177TIP3   OH252021   4.739   6.635  14.861  0.7396  0.1797 -0.0634
10177TIP3    H152022   4.823   6.602  14.829  1.9060 -1.8231  4.6678
10177TIP3    H252023   4.762   6.702  14.926 -1.3964  1.0985 -0.2046
10178TIP3   OH252024   1.442   6.797   1.277 -0.7578 -0.0721 -0.3579
10178TIP3    H152025   1.524   6.767   1.237  0.3810  2.2892  0.1246
10178TIP3    H252026   1.386   6.719   1.278  0.7340 -1.2288 -2.5698
10179TIP3   OH252027   2.303   6.584  10.901  0.0432  0.5507 -0.0010
10179TIP3    H152028   2.319   6.678  10.893 -2.2523  0.8691 -1.3522
10179TIP3    H252029   2.250   6.562  10.824  1.1969 -2.0123 -0.1069
10180TIP3   OH252030   6.233   5.739   2.072  0.3693  0.5515 -0.3037
10180TIP3    H152031   6.204   5.819   2.027  0.1547  0.2411 -0.7252
10180TIP3    H252032   6.281   5.691   2.005 -2.2852 -1.1994 -1.0419
10181TIP3   OH252033   4.380   5.136   0.342 -0.9869  0.0241 -0.1576
10181TIP3    H152034   4.374   5.178   0.428  1.8615 -2.0940  1.1938
10181TIP3    H252035   4.330   5.054   0.352 -3.0970  1.1030 -1.4878
10182TIP3   OH252036   2.153   0.629  13.502 -0.5347  0.0475  0.0008
10182TIP3    H152037   2.081   0.684  13.471 -0.8306 -0.0905  0.4237
10182TIP3    H252038   2.173   0.662  13.589  0.7528  0.8714 -0.6039
10183TIP3   OH252039   4.868   6.358   4.516  0.2452  0.3851 -0.6241
10183TIP3    H152040   4.847   6.275   4.473  1.7182 -0.6153  0.5322
10183TIP3    H252041   4.931   6.400   4.457 -0.2967  0.5784 -1.0759
10184TIP3   OH252042   5.809   1.449  12.049 -0.1992 -0.8820 -0.0084
10184TIP3    H152043   5.808   1.540  12.080 -1.5922 -0.4929 -1.0840
10184TIP3    H252044   5.869   1.404  12.108 -1.2181  0.2466  1.9575
10185TIP3   OH252045   4.450   2.843  12.394  0.0798 -0.4781  0.3279
10185TIP3    H152046   4.528   2.897  12.399 -0.6457  0.9260 -2.4958
10185TIP3    H252047   4.451   2.791  12.475  2.8602  0.9078  1.2336
10186TIP3   OH252048   2.831   2.740  10.791 -0.4377  0.3606 -0.1943
10186TIP3    H152049   2.817   2.668  10.853  1.6386 -1.6504 -1.9572
10186TIP3    H252050   2.758   2.733  10.730 -0.9312  0.5618  0.3637
10187TIP3   OH252051   6.725   1.979  12.802 -0.6210 -0.2461  0.2672
10187TIP3    H152052   6.681   1.953  12.721  0.2243  0.2732 -0.3609
10187TIP3    H252053   6.757   1.898  12.839 -0.6789 -0.4446 -0.1145
10188TIP3   OH252054   5.915   1.996  11.498  0.2827  0.3988 -0.0722
10188TIP3    H152055   5.822   1.982  11.480 -0.0195  1.4494  0.6768
10188TIP3    H252056   5.921   2.086  11.528  1.2240 -0.3551  2.0707
10189TIP3   OH252057   4.778   3.545   1.959 -0.1825 -0.5412 -0.1388
10189TIP3    H152058   4.843   3.484   1.924  1.9082  1.5201  0.1181
10189TIP3    H252059   4.818   3.631   1.951 -1.9755  0.5459  2.1047
10190TIP3   OH252060   2.538   1.285  16.206 -0.1762 -0.5160 -0.7495
10190TIP3    H152061   2.469   1.324  16.260  0.5460 -0.0991 -0.1188
10190TIP3    H252062   2.564   1.206  16.253 -1.7229 -1.8529 -2.0897
10191TIP3   OH252063   1.157   3.206   4.305  0.0219 -0.1300  0.2727
10191TIP3    H152064   1.115   3.173   4.225  0.9817 -0.8873  0.0712
10191TIP3    H252065   1.084   3.220   4.366 -0.8655  1.7192 -1.1570
10192TIP3   OH252066   1.869   3.221  16.580  0.4421  0.1640 -0.1267
10192TIP3    H152067   1.924   3.164  16.634 -0.9898 -1.6570 -0.5150
10192TIP3    H252068   1.788   3.230  16.630  1.0630  2.8325  0.4457
10193TIP3   OH252069   6.168   3.081   4.652  0.2855 -0.5866  0.2277
10193TIP3    H152070   6.125   3.033   4.723 -1.7817  2.4859  1.1396
10193TIP3    H252071   6.219   3.149   4.696 -0.0261  0.5678 -1.1436
10194TIP3   OH252072   0.161   5.785  13.334  0.5504  0.0163 -0.1225
10194TIP3    H152073   0.220   5.725  13.378 -2.0770 -1.8973  0.9417
10194TIP3    H252074   0.081   5.784  13.387 -0.5926  2.2012 -1.6925
10195TIP3   OH252075   6.408   1.822  12.180 -0.1090 -0.2767  0.3985
10195TIP3    H152076   6.370   1.817  12.268  0.3821  0.5749  0.6708
10195TIP3    H252077   6.411   1.916  12.162 -3.3956 -0.5454 -1.9386
10196TIP3   OH252078   3.836   1.976   4.318  0.5061  0.0085 -0.4451
10196TIP3    H152079   3.888   1.940   4.247 -0.7456  0.3172 -1.5317
10196TIP3    H252080   3.747   1.980   4.284 -0.6924 -2.5699  2.1401
10197TIP3   OH252081   6.152   3.675  13.670  0.4853  0.5050  0.2388
10197TIP3    H152082   6.184   3.585  13.674 -1.6628 -0.2462  1.6621
10197TIP3    H252083   6.180   3.707  13.585 -0.3413 -2.1483 -1.0870
10198TIP3   OH252084   6.696   5.294  11.547  0.5578  0.0511  0.5751
10198TIP3    H152085   6.683   5.207  11.509 -0.3837  0.5384 -0.2428
10198TIP3    H252086   6.659   5.287  11.635 -0.1370 -0.1875  0.2695
10199TIP3   OH252087   5.512   2.443   3.172 -0.4975 -0.0553 -0.6496
10199TIP3    H152088   5.510   2.454   3.267 -0.1524  0.1805 -0.6679
10199TIP3    H252089   5.420   2.439   3.145 -0.6488  2.3562 -0.5966
10200TIP3   OH252090   4.700   6.713  15.267  0.5631  0.0644 -0.0490
10200TIP3    H152091   4.708   6.624  15.233  0.5233  0.4827 -1.1965
10200TIP3    H252092   4.728   6.768  15.194  0.9750  0.9729  0.7898
10201TIP3   OH252093   2.779   4.629   5.439 -0.3033 -0.5309  0.2164
10201TIP3    H152094   2.805   4.538   5.451 -1.3710 -0.7529  0.8429
10201TIP3    H252095   2.840   4.679   5.494 -0.9100 -1.0102  1.3156
10202TIP3   OH252096   5.918   2.346   6.419  0.1037 -0.1736  0.6042
10202TIP3    H152097   5.941   2.256   6.440  1.3324  0.3897  1.7347
10202TIP3    H252098   5.900   2.387   6.503 -2.9361  0.0258 -0.0637
10203TIP3   OH252099   4.404   3.140   5.301  0.0208  0.0124 -0.3303
10203TIP3    H152100   4.463   3.148   5.377  0.3720 -1.5411 -0.4294
10203TIP3    H252101   4.344   3.214   5.310 -0.4910 -0.6407  1.9557
10204TIP3   OH252102   1.470   1.609   6.208 -0.1100  0.3684 -0.3812
10204TIP3    H152103   1.510   1.671   6.269  2.0643 -0.8323 -0.5272
10204TIP3    H252104   1.378   1.633   6.207  0.0886  1.4654  2.1178
10205TIP3   OH252105   5.109   6.216   4.668  0.3887  0.9704  0.5084
10205TIP3    H152106   5.044   6.285   4.680 -0.0151  0.3908  1.7260
10205TIP3    H252107   5.063   6.135   4.693 -0.4269 -0.3259 -4.7378
10206TIP3   OH252108   2.334   2.294   2.976 -0.7499  0.2936 -0.5964
10206TIP3    H152109   2.276   2.361   3.013 -0.1685  0.0295  0.8264
10206TIP3    H252110   2.422   2.321   3.002 -0.4527 -0.6734 -0.5868
10207TIP3   OH252111   6.120   4.426   2.323  0.0125 -0.1647  0.2984
10207TIP3    H152112   6.071   4.358   2.370  1.0718 -1.3188 -0.2368
10207TIP3    H252113   6.105   4.506   2.373 -2.6851 -0.4262 -0.0255
10208TIP3   OH252114   1.741   6.342  14.118  0.5024 -0.1339 -0.2339
10208TIP3    H152115   1.790   6.260  14.113 -0.8327 -1.0767  1.4999
10208TIP3    H252116   1.807   6.409  14.137  1.4679 -0.9301 -0.7313
10209TIP3   OH252117   0.151   1.522   3.929 -0.4616 -0.4844  0.2152
10209TIP3    H152118   0.102   1.440   3.932 -0.3853 -0.5553 -0.4087
10209TIP3    H252119   0.240   1.496   3.905 -0.2137 -0.3141  0.9302
10210TIP3   OH252120   2.128   1.261   2.599 -0.3115  0.0257 -0.8372
10210TIP3    H152121   2.052   1.310   2.569 -0.6402  0.1453  0.1619
10210TIP3    H252122   2.203   1.311   2.569 -0.6199  2.6492  2.4666
10211TIP3   OH252123   3.367   3.416   0.741  0.1766 -0.2913  0.0601
10211TIP3    H152124   3.418   3.462   0.807  0.3465 -0.9978  0.4212
10211TIP3    H252125   3.362   3.478   0.668  0.6744  0.1788  0.4178
10212TIP3   OH252126   5.140   6.039   4.390 -0.4786 -0.5947 -0.5746
10212TIP3    H152127   5.086   6.088   4.328  1.5493  0.5808 -1.4942
10212TIP3    H252128   5.161   6.102   4.458  0.5145 -0.7439 -0.7320
10213TIP3   OH252129   5.704   6.109   1.243 -0.0659 -0.6567 -0.4109
10213TIP3    H152130   5.658   6.050   1.183 -0.7772 -1.5605  0.9947
10213TIP3    H252131   5.712   6.059   1.325  1.0953  0.4631  0.1803
10214TIP3   OH252132   0.239   2.553  15.294 -0.0901  0.2079 -0.1073
10214TIP3    H152133   0.295   2.540  15.218 -2.0598 -0.7481 -1.4421
10214TIP3    H252134   0.153   2.573  15.257 -0.7983  0.9413  1.8798
10215TIP3   OH252135   5.355   0.220   3.305  0.0162 -0.1298 -0.2859
10215TIP3    H152136   5.362   0.209   3.210 -0.8351 -0.4347 -0.3181
10215TIP3    H252137   5.324   0.309   3.317  1.4600  0.3728 -0.2385
10216TIP3   OH252138   5.346   1.361  13.138  0.0735  0.4366  0.3927
10216TIP3    H152139   5.305   1.276  13.150  0.5001  0.0925 -0.5596
10216TIP3    H252140   5.356   1.396  13.227  0.4340 -0.7487  0.8185
10217TIP3   OH252141   0.091   1.848  13.312 -0.1353  0.6219  0.2980
10217TIP3    H152142   0.087   1.823  13.404  1.4426  0.1760  0.2623
10217TIP3    H252143   0.114   1.767  13.266  0.3976  1.1245 -0.3317
10218TIP3   OH252144   2.873   5.251  16.124 -0.7908 -0.2229 -0.1984
10218TIP3    H152145   2.793   5.298  16.149  0.5126  3.3157 -2.2304
10218TIP3    H252146   2.847   5.195  16.051 -1.5912  0.4512 -0.4418
10219TIP3   OH252147   5.670   1.741   3.563 -0.2831 -0.3875 -0.2218
10219TIP3    H152148   5.594   1.724   3.618 -1.0614  0.6633 -0.9836
10219TIP3    H252149   5.647   1.817   3.511  1.6523  0.5379  0.2202
10220TIP3   OH252150   2.324   2.110   2.363 -0.8472  0.0587 -0.0607
10220TIP3    H152151   2.300   2.039   2.423 -1.1511  0.8095  0.7228
10220TIP3    H252152   2.409   2.140   2.394  0.4166 -1.5616 -1.8835
10221TIP3   OH252153   2.759   3.317   3.112 -0.2836 -0.5736 -0.2382
10221TIP3    H152154   2.734   3.384   3.049  0.8224 -2.2548 -2.5297
10221TIP3    H252155   2.736   3.234   3.069 -0.8283 -1.7136  2.1717
10222TIP3   OH252156   3.753   5.721  14.415  0.2569  0.2805  0.0876
10222TIP3    H152157   3.813   5.779  14.463 -0.7146  1.2505  0.1602
10222TIP3    H252158   3.740   5.646  14.473  0.4804  0.6194  0.5795
10223TIP3   OH252159   3.688   4.170   1.755  0.0339  0.7853  0.4398
10223TIP3    H152160   3.678   4.076   1.738 -1.9389  0.8809  0.9691
10223TIP3    H252161   3.658   4.212   1.674 -2.4037  1.0419  1.4586
10224TIP3   OH252162   6.273   5.405  14.828 -0.6716  0.4478 -0.5316
10224TIP3    H152163   6.221   5.439  14.900  0.2996  1.9330 -0.5079
10224TIP3    H252164   6.288   5.313  14.850 -2.2846  0.3027  0.0180
10225TIP3   OH252165   3.798   0.669   2.552 -0.5078  0.0245 -0.0106
10225TIP3    H152166   3.810   0.748   2.500 -0.2410  1.5350  2.2639
10225TIP3    H252167   3.799   0.598   2.488  1.6792  1.6466 -1.8582
10226TIP3   OH252168   4.631   4.760  16.632  0.4440 -0.1204  0.3001
10226TIP3    H152169   4.722   4.738  16.651  0.8956  1.9860  0.6689
10226TIP3    H252170   4.624   4.753  16.537  1.0118 -0.1849  0.2628
10227TIP3   OH252171   3.528   0.998   4.810  0.3297 -0.3265 -0.3879
10227TIP3    H152172   3.503   1.005   4.902  0.4536 -0.7681 -0.3195
10227TIP3    H252173   3.578   0.917   4.805  0.6279 -0.1207 -0.7780
10228TIP3   OH252174   1.510   6.540   1.589  0.2390 -0.0186  0.0902
10228TIP3    H152175   1.447   6.573   1.525 -0.2932  1.6218  1.4194
10228TIP3    H252176   1.460   6.535   1.671  0.7875 -2.5266  0.2985
10229TIP3   OH252177   2.338   3.358   0.045  0.3489  0.6541 -0.4394
10229TIP3    H152178   2.283   3.432   0.068 -0.1275  0.1941 -0.0833
10229TIP3    H252179   2.327   3.296   0.117  0.5029  0.1109 -0.8724
10230TIP3   OH252180   0.847   2.167  15.985 -0.0054  0.0009 -0.4903
10230TIP3    H152181   0.868   2.089  16.036 -1.0855 -0.0414 -0.1085
10230TIP3    H252182   0.923   2.178  15.927 -0.6227 -2.3738 -1.8297
10231TIP3   OH252183   5.091   1.432  15.861  0.9151 -0.4413 -0.0207
10231TIP3    H152184   5.019   1.470  15.810 -0.5677 -0.2514  2.1409
10231TIP3    H252185   5.140   1.507  15.893  1.1323 -0.5167 -0.1782
10232TIP3   OH252186   4.755   2.837   3.375 -0.5642 -0.0024  0.5678
10232TIP3    H152187   4.837   2.816   3.331 -1.6306 -3.3941  0.0467
10232TIP3    H252188   4.714   2.903   3.320  1.8606  1.8875  0.9321
10233TIP3   OH252189   0.018   4.405   4.370 -0.5217 -0.4295  0.2855
10233TIP3    H152190  -0.057   4.454   4.405 -0.7147 -0.3640 -0.2117
10233TIP3    H252191  -0.020   4.321   4.343 -0.0536 -1.1796  1.8694
10234TIP3   OH252192   4.890   0.958   0.248 -0.5757 -0.1297 -0.1844
10234TIP3    H152193   4.917   0.866   0.251  0.4300  0.2062  1.9170
10234TIP3    H252194   4.826   0.967   0.318 -1.1004  0.6419 -0.7530
10235TIP3   OH252195   0.518   3.851  13.601  0.7629  0.0901  0.2753
10235TIP3    H152196   0.482   3.937  13.580 -0.0895 -0.7490 -1.9336
10235TIP3    H252197   0.612   3.860  13.587  0.7205  0.7330  0.3704
10236TIP3   OH252198   5.370   3.429   5.997  0.0841 -0.1618  0.3191
10236TIP3    H152199   5.325   3.437   5.913  1.2907  0.2830 -0.3057
10236TIP3    H252200   5.320   3.363   6.046 -1.2224  0.3303 -0.3445
10237TIP3   OH252201   0.384   0.021   2.225 -0.2466  0.3210 -0.1639
10237TIP3    H152202   0.418  -0.063   2.256 -1.0757 -0.2447 -0.7447
10237TIP3    H252203   0.303   0.035   2.275  1.0390  1.8765  1.5302
10238TIP3   OH252204   0.058   3.541   4.266 -0.2353  0.2960 -0.3428
10238TIP3    H152205  -0.025   3.578   4.236 -0.6857  0.4176  1.0215
10238TIP3    H252206   0.033   3.463   4.315  0.4616  0.2182 -0.1089
10239TIP3   OH252207   6.404   6.295  16.915 -0.0548  0.0133  0.3762
10239TIP3    H152208   6.325   6.244  16.933  0.8475 -1.0161  1.5436
10239TIP3    H252209   6.473   6.229  16.905  0.6120  0.8802 -0.9142
10240TIP3   OH252210   4.530   6.721  16.575  0.5758  0.3573 -0.1291
10240TIP3    H152211   4.591   6.788  16.545 -1.0319  2.9247  2.0724
10240TIP3    H252212   4.452   6.770  16.602 -1.5921 -2.6277 -0.7247
10241TIP3   OH252213   0.760   2.444   4.395 -0.6593  0.4881  0.2457
10241TIP3    H152214   0.823   2.494   4.446 -0.7616  1.0273 -0.1549
10241TIP3    H252215   0.777   2.469   4.304 -0.0648 -0.9235 -0.0494
10242TIP3   OH252216   2.342   5.971  15.965 -0.2190 -0.0562 -0.5744
10242TIP3    H152217   2.425   6.008  15.933 -1.0478  1.6604 -0.8206
10242TIP3    H252218   2.302   5.932  15.887 -0.1539  0.1048 -0.6905
10243TIP3   OH252219   1.312   6.359  16.658 -0.3987 -0.1729 -0.0310
10243TIP3    H152220   1.331   6.418  16.586  0.5244 -0.2954  0.1076
10243TIP3    H252221   1.247   6.297  16.623 -0.3429  0.0861 -0.5879
10244TIP3   OH252222   0.365   3.409   5.660  0.1947 -0.3383 -0.1360
10244TIP3    H152223   0.362   3.469   5.735  1.6986 -2.0151  1.3160
10244TIP3    H252224   0.307   3.337   5.684 -1.9706  0.7027 -2.0798
10245TIP3   OH252225   1.533   5.646   5.541 -0.2822  0.0591 -0.0084
10245TIP3    H152226   1.626   5.663   5.531  0.0748 -2.3249 -1.0712
10245TIP3    H252227   1.499   5.723   5.587  2.5598  0.0458  2.2109
10246TIP3   OH252228   1.077   4.747  16.735  0.0519  0.5022 -0.0510
10246TIP3    H152229   1.111   4.735  16.823 -0.4210  0.6389  0.1482
10246TIP3    H252230   1.079   4.842  16.721 -2.9165  0.7697  1.0283
10247TIP3   OH252231   1.934   4.895  14.152 -0.4089  0.0311 -0.2480
10247TIP3    H152232   1.858   4.905  14.095  0.1486  0.5817 -0.9143
10247TIP3    H252233   2.007   4.878  14.091 -0.3942 -2.8244  0.5239
10248TIP3   OH252234   3.460   4.090   4.704 -0.0636 -0.0509  0.1844
10248TIP3    H152235   3.453   4.098   4.799 -0.5675 -0.4341  0.1812
10248TIP3    H252236   3.475   4.180   4.674 -4.0199  0.7779  0.2989
10249TIP3   OH252237   4.934   5.867   1.677  0.3649  0.1979 -0.1926
10249TIP3    H152238   4.933   5.963   1.677 -1.8527  0.1983 -1.1488
10249TIP3    H252239   4.967   5.844   1.590 -0.8282  0.1164 -0.6367
10250TIP3   OH252240   0.604   3.127  16.908  0.2408 -1.2465 -0.4795
10250TIP3    H152241   0.520   3.173  16.913  0.2889 -1.2593  0.4595
10250TIP3    H252242   0.617   3.112  16.814  0.3218  0.8565 -0.8348
10251TIP3   OH252243   0.773   6.494  14.760 -0.5926  0.4869  0.0099
10251TIP3    H152244   0.690   6.453  14.736  0.6524 -1.3858 -1.2350
10251TIP3    H252245   0.798   6.452  14.842 -1.2807  1.6788  0.8461
10252TIP3   OH252246   1.427   4.556  16.515 -0.1416  0.0690 -1.1147
10252TIP3    H152247   1.380   4.475  16.532  1.1899 -0.5543 -0.3619
10252TIP3    H252248   1.430   4.601  16.600  0.9280 -0.0697 -1.0713
10253TIP3   OH252249   3.043   4.355  15.206 -0.0034  0.2647  0.1912
10253TIP3    H152250   3.128   4.398  15.207 -0.0586  0.3705  0.3646
10253TIP3    H252251   3.006   4.374  15.120  0.3341 -0.1469 -0.0479
10254TIP3   OH252252   2.553   3.429  14.538 -0.1136  0.3718 -0.2450
10254TIP3    H152253   2.489   3.433  14.609  0.1235 -1.3190  0.0734
10254TIP3    H252254   2.594   3.344  14.547  1.4157  0.9989 -1.1360
10255TIP3   OH252255   0.635   2.950   0.441  0.2646 -0.0483 -0.0921
10255TIP3    H152256   0.616   2.858   0.427  1.4575 -0.3113 -0.0533
10255TIP3    H252257   0.614   2.965   0.534  0.7713 -0.4585  0.0895
10256TIP3   OH252258   5.252   0.895   0.015 -0.4502 -0.3064 -0.0172
10256TIP3    H152259   5.248   0.882   0.110 -1.3105 -4.0301 -0.4802
10256TIP3    H252260   5.161   0.909  -0.011 -0.2174  0.7046 -0.3039
10257TIP3   OH252261   4.608   4.393   2.022 -0.2794 -0.2706 -0.0285
10257TIP3    H152262   4.683   4.421   1.969 -0.4830 -1.4337 -0.9511
10257TIP3    H252263   4.608   4.453   2.097 -0.2633  1.6976 -1.5508
10258TIP3   OH252264   5.018   3.943   6.517 -0.8517 -0.1539  0.1292
10258TIP3    H152265   4.960   3.867   6.511 -1.3807  0.1779  0.8762
10258TIP3    H252266   5.007   3.974   6.607 -0.9378  1.0397 -0.2829
10259TIP3   OH252267   1.674   2.542  11.375  0.5813  0.4852 -0.0627
10259TIP3    H152268   1.591   2.551  11.421  1.0290  0.2295  0.7891
10259TIP3    H252269   1.686   2.626  11.332  0.3816  0.8721  0.6339
10260TIP3   OH252270   2.660   2.337   2.861  0.2400 -0.3410  0.5149
10260TIP3    H152271   2.650   2.261   2.918 -0.6963 -0.6626 -0.0489
10260TIP3    H252272   2.744   2.375   2.885 -0.1885 -0.4006  2.1827
10261TIP3   OH252273   2.383   6.661  15.140  0.6151  0.0151 -1.1116
10261TIP3    H152274   2.456   6.599  15.136  1.5288  0.9231  0.8182
10261TIP3    H252275   2.324   6.623  15.206  0.3794  0.3746 -1.1177
10262TIP3   OH252276   2.893   5.796  14.591  0.4511  0.4170  0.1920
10262TIP3    H152277   2.951   5.868  14.616  0.9557 -0.3480  1.2777
10262TIP3    H252278   2.950   5.719  14.591  0.0100  0.0690 -1.3771
10263TIP3   OH252279   4.180   6.084   5.216 -0.0196  0.2572  0.6040
10263TIP3    H152280   4.104   6.142   5.207 -0.5012 -0.3212  0.9562
10263TIP3    H252281   4.223   6.114   5.296  0.0172  0.4573  0.5102
10264TIP3   OH252282   5.467   1.036   0.201  0.3971 -0.1579  0.3746
10264TIP3    H152283   5.522   0.966   0.166  0.8607  0.9391 -1.1311
10264TIP3    H252284   5.391   0.991   0.237  0.5591 -1.4203 -0.8413
10265TIP3   OH252285   0.750   1.978  14.588  0.3197  0.4893 -0.2620
10265TIP3    H152286   0.756   2.057  14.534  0.4877  0.0998 -0.8223
10265TIP3    H252287   0.841   1.955  14.607  0.2460  0.9002  0.5986
10266TIP3   OH252288   3.012   3.321   0.556 -0.1509 -0.1550 -0.4869
10266TIP3    H152289   2.994   3.243   0.608  0.5830 -0.7034 -1.0600
10266TIP3    H252290   2.941   3.323   0.491  0.5648 -1.0824 -1.3138
10267TIP3   OH252291   2.738   6.633   1.690  0.0905 -0.2893  0.1014
10267TIP3    H152292   2.681   6.581   1.746 -1.7745  2.7796  1.1490
10267TIP3    H252293   2.710   6.611   1.601  0.6959 -2.5387  0.4295
10268TIP3   OH252294   1.726   4.721   4.237 -0.0292 -0.3300  0.6868
10268TIP3    H152295   1.677   4.781   4.180  2.9225 -0.3793 -2.0547
10268TIP3    H252296   1.740   4.643   4.183  2.1556 -0.7078  1.7550
10269TIP3   OH252297   0.764   3.718   1.407 -0.0575 -0.0430  0.1996
10269TIP3    H152298   0.802   3.777   1.472 -2.3005  1.1302  0.5213
10269TIP3    H252299   0.706   3.661   1.457  0.9514 -1.5438 -0.3164
10270TIP3   OH252300   5.429   4.004  17.281  0.6588  0.1454  0.1426
10270TIP3    H152301   5.463   3.925  17.241  0.6209  0.7771 -1.1717
10270TIP3    H252302   5.443   3.992  17.375  2.4346 -0.5671 -0.2034
10271TIP3   OH252303   0.488   6.715   4.986 -0.2054  0.5241 -0.1612
10271TIP3    H152304   0.520   6.773   4.916 -0.8216  0.8932 -0.1443
10271TIP3    H252305   0.430   6.771   5.038 -0.1445  0.1128  0.3504
10272TIP3   OH252306   0.037   6.747   1.228  0.1680 -0.1366  0.0661
10272TIP3    H152307   0.080   6.687   1.288 -2.1376  0.4244  2.3537
10272TIP3    H252308   0.057   6.834   1.262  1.7118  0.3715 -2.0029
10273TIP3   OH252309   0.228   3.836  12.332  0.0852 -0.1516 -0.1998
10273TIP3    H152310   0.275   3.859  12.412 -0.4675  1.5894 -0.3514
10273TIP3    H252311   0.140   3.870  12.346 -0.9197 -2.6297 -0.2657
10274TIP3   OH252312   2.963   2.108   6.087 -0.3276 -0.5433 -0.4637
10274TIP3    H152313   2.895   2.174   6.102 -0.5283 -0.7317 -0.5477
10274TIP3    H252314   3.003   2.134   6.004 -0.4944 -0.6050 -0.5630
10275TIP3   OH252315   4.617   4.955  10.894 -0.1432  0.0289  0.2815
10275TIP3    H152316   4.617   4.884  10.957 -1.9264 -1.3014 -1.1433
10275TIP3    H252317   4.704   4.953  10.854  0.8890  0.6903  2.4357
10276TIP3   OH252318   2.047   2.892  11.747 -0.5988  0.1116  0.2497
10276TIP3    H152319   2.047   2.871  11.840 -1.4579  0.5872  0.3618
10276TIP3    H252320   2.045   2.988  11.744 -0.5541  0.1004 -0.2553
10277TIP3   OH252321   1.020   2.750  12.376  0.3955  0.5044 -0.0085
10277TIP3    H152322   0.927   2.747  12.397  0.2392  1.9040 -0.4758
10277TIP3    H252323   1.057   2.811  12.439  1.1034 -0.4728  0.5354
10278TIP3   OH252324   1.147   0.962   4.209 -1.0216 -0.2246 -0.4135
10278TIP3    H152325   1.127   1.054   4.192 -1.4085 -0.4039 -0.9321
10278TIP3    H252326   1.071   0.930   4.258 -0.0076  0.2380  1.5136
10279TIP3   OH252327   0.196   5.880   1.112 -0.2021 -0.4791 -0.7821
10279TIP3    H152328   0.263   5.836   1.165 -0.5440 -0.4275 -0.3137
10279TIP3    H252329   0.233   5.966   1.093 -0.5582 -0.0874  0.3049
10280TIP3   OH252330   3.495   2.566  14.007 -0.3485  0.4841  0.5065
10280TIP3    H152331   3.442   2.590  14.082  0.5839 -0.4106  1.4783
10280TIP3    H252332   3.583   2.598  14.028  0.0347 -0.2536  0.0557
10281TIP3   OH252333   0.292   6.796  13.873 -0.6260  0.1260 -0.3687
10281TIP3    H152334   0.261   6.749  13.950  0.5801  0.9697  0.6496
10281TIP3    H252335   0.383   6.818  13.893 -0.4922  0.9124 -1.7656
10282TIP3   OH252336   5.974   5.974   2.904  0.1775  0.2341 -0.3152
10282TIP3    H152337   5.915   5.906   2.871  1.3423 -1.2190  0.5417
10282TIP3    H252338   5.936   6.001   2.987 -0.3281  0.6646 -0.6923
10283TIP3   OH252339   0.405   3.910   4.172  0.7687 -0.2361  0.3440
10283TIP3    H152340   0.472   3.914   4.240 -2.2576  0.0149  3.4695
10283TIP3    H252341   0.390   3.816   4.157  0.5792 -0.2954  0.9180
10284TIP3   OH252342   3.180   0.901  13.591  0.4374 -0.3654  0.8012
10284TIP3    H152343   3.182   0.808  13.611 -0.4420 -0.6471 -0.4121
10284TIP3    H252344   3.222   0.908  13.505 -1.2029  0.1286  0.0270
10285TIP3   OH252345   1.954   3.168   0.520  0.2804 -0.7614  0.2626
10285TIP3    H152346   1.984   3.121   0.441 -0.6336 -0.3243 -0.3471
10285TIP3    H252347   1.951   3.259   0.493  1.5268 -0.3919  1.2924
10286TIP3   OH252348   4.319   2.063   0.986  0.4980  0.0824 -0.5443
10286TIP3    H152349   4.234   2.081   0.947 -0.0437 -3.0629 -0.9432
10286TIP3    H252350   4.301   2.056   1.080  0.6665  1.1379 -0.4180
10287TIP3   OH252351   6.362   1.551   3.198  0.3046  0.6003 -0.2894
10287TIP3    H152352   6.433   1.528   3.138  0.0956  1.1099 -0.7263
10287TIP3    H252353   6.408   1.578   3.278  0.5699 -0.5558 -0.0374
10288TIP3   OH252354   5.275   3.946  11.536  0.1517 -0.0394  0.2311
10288TIP3    H152355   5.359   3.910  11.505 -0.5502 -1.6761  0.2000
10288TIP3    H252356   5.290   4.041  11.538  1.7235 -0.2406 -0.6237
10289TIP3   OH252357   1.062   0.486  16.540  0.0048  0.4883  0.6568
10289TIP3    H152358   0.989   0.512  16.484 -0.1914  0.6492  0.9888
10289TIP3    H252359   1.091   0.402  16.504 -1.0317 -0.0973  1.1764
10290TIP3   OH252360   5.359   3.050  13.756  0.1607 -0.2299  0.6722
10290TIP3    H152361   5.291   3.102  13.799  0.3906  1.6063 -1.0848
10290TIP3    H252362   5.417   3.115  13.715  0.6184 -1.8491 -1.3629
10291TIP3   OH252363   3.598   1.306   5.330 -0.0771  0.1791 -0.3268
10291TIP3    H152364   3.570   1.340   5.415 -2.4756  1.2469 -1.4664
10291TIP3    H252365   3.664   1.368   5.300  0.6163 -0.0775  0.6667
10292TIP3   OH252366   4.242   2.703   6.215  0.2603 -0.1915  0.7385
10292TIP3    H152367   4.335   2.686   6.201 -0.1520 -2.3440  0.3769
10292TIP3    H252368   4.198   2.637   6.163 -1.4284 -2.3370  4.6597
10293TIP3   OH252369   3.433   4.924   0.702 -0.5174  0.3716 -0.8502
10293TIP3    H152370   3.512   4.963   0.739 -0.2851  1.7232 -2.6809
10293TIP3    H252371   3.368   4.932   0.772  0.6173  0.3647  0.2328
10294TIP3   OH252372   5.063   3.334   3.605  0.0848 -0.5386  0.5831
10294TIP3    H152373   4.994   3.269   3.619  1.3731 -2.2738 -0.7808
10294TIP3    H252374   5.117   3.329   3.684  0.0447 -0.9930  0.5851
10295TIP3   OH252375   1.110   6.643  12.167 -0.5940 -0.0514 -0.2794
10295TIP3    H152376   1.145   6.655  12.255  2.8972 -1.4822 -1.3947
10295TIP3    H252377   1.061   6.561  12.172 -0.9321  0.1913  0.4695
10296TIP3   OH252378   3.545   0.457  15.941 -0.1073  0.2764 -0.2030
10296TIP3    H152379   3.572   0.544  15.970 -0.4190  0.0957  0.6668
10296TIP3    H252380   3.540   0.463  15.846 -0.0910  1.1986 -0.1472
10297TIP3   OH252381   0.109   5.830  11.241  0.1284  0.2194 -0.1820
10297TIP3    H152382   0.139   5.740  11.255 -0.4228  0.2593  1.4243
10297TIP3    H252383   0.187   5.879  11.217  0.4089 -0.7094 -1.1952
10298TIP3   OH252384   3.035   1.262  11.533 -0.5789  0.0865  0.8209
10298TIP3    H152385   3.125   1.292  11.525  0.2389 -1.9285  2.0322
10298TIP3    H252386   2.991   1.296  11.455  2.0519 -1.7995 -1.5649
10299TIP3   OH252387   4.148   5.383   1.986  0.3411 -0.0179 -0.4616
10299TIP3    H152388   4.157   5.317   1.917 -0.6934  0.5726 -1.1777
10299TIP3    H252389   4.143   5.466   1.938  0.2962  0.4547  0.3683
10300TIP3   OH252390   2.265   5.051   0.668 -0.0710 -0.5042 -0.2724
10300TIP3    H152391   2.290   5.059   0.577 -0.4833  0.1371 -0.3333
10300TIP3    H252392   2.337   5.090   0.717  0.1803 -0.9073 -0.3155
10301TIP3   OH252393   5.121   4.621   3.827  0.4840  0.2039  0.3158
10301TIP3    H152394   5.097   4.652   3.740 -0.3784 -0.4091  0.3310
10301TIP3    H252395   5.074   4.538   3.837  0.1187  0.5465  1.5829
10302TIP3   OH252396   1.578   2.025  14.820 -0.4181  0.0404  0.4017
10302TIP3    H152397   1.617   1.982  14.744  0.3997  0.7937  0.3895
10302TIP3    H252398   1.618   1.981  14.896 -0.8713 -0.3850  0.3930
10303TIP3   OH252399   1.558   6.805   3.063  0.1074 -0.2585  0.4485
10303TIP3    H152400   1.540   6.711   3.058 -1.1411 -0.2082  3.1016
10303TIP3    H252401   1.624   6.814   3.132 -0.4650  0.8747  0.8662
10304TIP3   OH252402   2.854   2.766  14.029 -0.5712 -0.1679 -0.2962
10304TIP3    H152403   2.782   2.736  14.085  1.3597 -3.4750  0.5336
10304TIP3    H252404   2.898   2.834  14.080 -0.3255 -1.4127  1.1768
10305TIP3   OH252405   6.649   0.744   0.218  0.1410 -0.0947 -0.3271
10305TIP3    H152406   6.636   0.668   0.160  0.4151 -0.7557  0.4750
10305TIP3    H252407   6.741   0.738   0.243  0.2303  0.6626 -0.4714
10306TIP3   OH252408   3.221   0.406  16.804  0.4961  0.2336  0.2520
10306TIP3    H152409   3.303   0.394  16.853  1.0488 -0.5741 -0.8377
10306TIP3    H252410   3.153   0.387  16.868  1.2185 -1.2701  0.6230
10307TIP3   OH252411   0.096   5.675   5.268  0.0646  0.2220 -0.4751
10307TIP3    H152412   0.042   5.634   5.337  0.1564  0.7733 -0.0730
10307TIP3    H252413   0.032   5.706   5.204 -0.1071  1.0461  0.0939
10308TIP3   OH252414   0.769   0.022   6.025 -0.0049  0.2806 -0.1186
10308TIP3    H152415   0.790   0.080   6.098 -0.6190 -0.7772  0.9191
10308TIP3    H252416   0.831   0.046   5.957  1.3452  0.4918  1.1622
10309TIP3   OH252417   6.001   5.749   2.263 -0.0900 -0.4903 -0.0796
10309TIP3    H152418   6.066   5.721   2.199  0.4516  0.9300 -0.1634
10309TIP3    H252419   5.920   5.707   2.235  0.6395 -1.7016 -0.3774
10310TIP3   OH252420   1.495   3.786   1.822 -0.2264  1.1650 -0.7405
10310TIP3    H152421   1.409   3.760   1.788 -0.9457  0.1125  1.7257
10310TIP3    H252422   1.557   3.737   1.768 -1.2998 -0.0725 -0.9007
10311TIP3   OH252423   3.428   3.657  15.966 -0.4824 -0.0779  0.5863
10311TIP3    H152424   3.482   3.732  15.941  0.0939 -0.5745  0.3185
10311TIP3    H252425   3.490   3.585  15.974 -0.9871 -0.4459  1.1894
10312TIP3   OH252426   5.561   1.641  13.578 -0.2096  0.1970  0.3115
10312TIP3    H152427   5.533   1.632  13.669  0.8480 -2.2459  0.4431
10312TIP3    H252428   5.552   1.734  13.559 -0.3235  0.7717  2.9505
10313TIP3   OH252429   6.713   4.009  16.407 -0.2639 -0.0909  0.4993
10313TIP3    H152430   6.755   4.019  16.492  0.1022  0.5570  0.2402
10313TIP3    H252431   6.646   4.077  16.406 -0.4537 -0.2783  0.3757
10314TIP3   OH252432   1.232   4.321   1.086  0.2721 -0.1648  0.6164
10314TIP3    H152433   1.298   4.260   1.053  0.6324  0.4764  0.1233
10314TIP3    H252434   1.149   4.275   1.075  0.3867  0.0137 -1.2092
10315TIP3   OH252435   5.649   3.477  12.446  0.1086  0.4431 -0.2293
10315TIP3    H152436   5.732   3.429  12.439  0.7918  1.4481  0.9175
10315TIP3    H252437   5.624   3.495  12.356  0.6239 -0.7211 -0.6174
10316TIP3   OH252438   4.600   4.314   0.680  0.3357 -0.6648  0.1836
10316TIP3    H152439   4.673   4.300   0.740  0.0523 -0.0290  0.6836
10316TIP3    H252440   4.631   4.380   0.619  0.7406 -1.5498 -0.5682
10317TIP3   OH252441   2.508   3.486  17.085  0.1289  0.4736 -0.1765
10317TIP3    H152442   2.418   3.517  17.082  0.5670  1.7468 -0.6813
10317TIP3    H252443   2.503   3.393  17.061 -0.9434  0.7418 -0.9968
10318TIP3   OH252444   2.163   1.368  11.937  0.1038 -0.6831 -0.1596
10318TIP3    H152445   2.108   1.355  12.014  1.6371  0.4134  1.1665
10318TIP3    H252446   2.233   1.304  11.947  0.3772 -0.4482 -0.5628
10319TIP3   OH252447   2.123   2.549   5.084 -0.3261 -0.1116  0.3893
10319TIP3    H152448   2.076   2.631   5.095 -1.7286 -0.8556  0.1821
10319TIP3    H252449   2.057   2.481   5.104  1.6241 -1.1540  3.6988
10320TIP3   OH252450   3.787   0.016   3.643  0.1113 -0.7272  0.2518
10320TIP3    H152451   3.694   0.010   3.667  0.5417 -1.3379  1.7778
10320TIP3    H252452   3.806   0.110   3.644 -1.1323 -0.3803 -2.6385
10321TIP3   OH252453   4.509   1.231  13.901 -0.4747  0.2243  0.1174
10321TIP3    H152454   4.473   1.313  13.934 -1.9956 -1.4860  2.7931
10321TIP3    H252455   4.503   1.240  13.805 -1.1730  2.9578  0.3640
10322TIP3   OH252456   0.638   1.109   3.773  0.1510  0.5032 -0.3097
10322TIP3    H152457   0.551   1.069   3.775  0.1374  0.4295 -1.5890
10322TIP3    H252458   0.649   1.148   3.860 -1.1593  0.5152 -0.1363
10323TIP3   OH252459   4.223   2.997   1.294 -0.4248 -0.2817 -0.4219
10323TIP3    H152460   4.205   2.904   1.285 -0.1591 -0.3417 -0.3582
10323TIP3    H252461   4.248   3.007   1.386 -0.2203 -0.1892 -0.4871
10324TIP3   OH252462   1.132   6.194   2.601  0.0222 -0.3475 -0.0205
10324TIP3    H152463   1.140   6.262   2.534  1.0272 -1.3432 -0.9394
10324TIP3    H252464   1.222   6.171   2.623 -0.2684  0.4264  2.1931
10325TIP3   OH252465   2.944   3.196  16.572  0.2975  0.1814  0.5948
10325TIP3    H152466   2.949   3.274  16.627  0.0969  0.2734  0.4827
10325TIP3    H252467   2.922   3.230  16.485  0.9234  0.0693  0.3859
10326TIP3   OH252468   5.747   1.777  14.340  0.0521  0.1517 -0.5182
10326TIP3    H152469   5.683   1.783  14.270 -0.8745 -1.0433  0.2088
10326TIP3    H252470   5.745   1.685  14.368  0.4041  0.5900  1.0471
10327TIP3   OH252471   6.817   6.655   4.379  0.2225 -0.5858 -0.0712
10327TIP3    H152472   6.851   6.709   4.308 -0.7504 -1.6276 -1.3502
10327TIP3    H252473   6.846   6.566   4.358  1.1859 -0.7019  1.6264
10328TIP3   OH252474   6.588   0.201   5.521  0.5076 -0.3852  0.0285
10328TIP3    H152475   6.530   0.150   5.464  3.9739 -2.1663 -2.1043
10328TIP3    H252476   6.638   0.257   5.462  0.8598  1.2395  1.7986
10329TIP3   OH252477   4.652   3.999  11.091 -0.1027  0.8545 -0.0614
10329TIP3    H152478   4.635   4.053  11.014  2.3182 -0.8172 -1.8563
10329TIP3    H252479   4.708   4.053  11.146  0.7487  0.8747 -0.9455
10330TIP3   OH252480   6.099   0.853   3.230  0.2975  0.3272  0.2860
10330TIP3    H152481   6.140   0.793   3.292 -0.2892  1.0476  1.3705
10330TIP3    H252482   6.170   0.878   3.171  0.9390 -0.0889  0.8726
10331TIP3   OH252483   3.937   5.955  14.026  0.3997 -0.4423  0.2392
10331TIP3    H152484   4.010   6.013  14.006  0.6464 -0.9826 -0.4813
10331TIP3    H252485   3.862   5.994  13.981 -0.2337  1.2484  2.6931
10332TIP3   OH252486   4.067   4.105  10.711  0.0191  0.0216  0.0189
10332TIP3    H152487   4.009   4.041  10.672  0.3578 -0.0338 -0.3968
10332TIP3    H252488   4.155   4.075  10.689  0.2740 -0.7892  2.0285
10333TIP3   OH252489   4.604   1.120   0.278 -0.0347  0.3730  0.3084
10333TIP3    H152490   4.664   1.123   0.353  0.2818 -0.3752  0.0906
10333TIP3    H252491   4.650   1.067   0.213 -1.4747 -1.2563  0.6040
10334TIP3   OH252492   2.391   2.749  14.764  0.2083 -0.4882 -0.6057
10334TIP3    H152493   2.425   2.838  14.762  2.1452 -1.2060 -1.9355
10334TIP3    H252494   2.360   2.733  14.675  0.3961 -1.3108 -0.5342
10335TIP3   OH252495   1.377   1.760  14.151  0.0147 -0.3680 -0.3699
10335TIP3    H152496   1.307   1.824  14.136 -2.1753 -2.4973  0.2962
10335TIP3    H252497   1.389   1.718  14.066  0.8381  0.3288 -0.6001
10336TIP3   OH252498   3.077   2.520  13.505  0.2278 -0.0620 -0.2447
10336TIP3    H152499   3.083   2.450  13.440  0.7469 -0.1819 -0.0765
10336TIP3    H252500   3.005   2.575  13.475  2.4484  1.6570 -2.6784
10337TIP3   OH252501   3.270   6.512   5.436  0.5480  0.1818 -0.3077
10337TIP3    H152502   3.185   6.513   5.390  0.0643  0.0202  0.5774
10337TIP3    H252503   3.257   6.568   5.512  0.7900 -1.0261  0.6318
10338TIP3   OH252504   4.186   0.389  15.203  0.6828 -0.4076  0.2138
10338TIP3    H152505   4.247   0.392  15.277 -1.7727 -2.3841  2.4299
10338TIP3    H252506   4.142   0.305  15.212 -0.0941 -0.4177 -3.1969
10339TIP3   OH252507   1.690   6.488   4.960  0.1990 -0.6246 -0.0799
10339TIP3    H152508   1.672   6.581   4.972  0.6982 -0.6075  0.5933
10339TIP3    H252509   1.785   6.481   4.969  0.1671 -1.1857 -0.1801
10340TIP3   OH252510   0.526   0.731   0.863 -0.2024 -0.7721  0.3659
10340TIP3    H152511   0.543   0.637   0.852  1.1082 -0.3305 -1.6615
10340TIP3    H252512   0.555   0.770   0.781 -1.7626  1.2956  0.7509
10341TIP3   OH252513   1.036   0.871  13.192 -0.2820  0.4885 -0.1254
10341TIP3    H152514   0.976   0.903  13.125  0.8903 -0.4991 -1.6636
10341TIP3    H252515   1.123   0.898  13.163  0.2934 -0.3736  0.7330
10342TIP3   OH252516   2.493   3.109  11.883  0.1744  0.4998 -0.0144
10342TIP3    H152517   2.485   3.074  11.972  1.8235 -1.3786 -0.5869
10342TIP3    H252518   2.497   3.032  11.827  0.6102  1.6581 -1.5981
10343TIP3   OH252519   5.009   0.882  14.481 -0.1884  0.3355 -0.9610
10343TIP3    H152520   5.054   0.952  14.529 -1.3138  1.0532 -0.9154
10343TIP3    H252521   5.051   0.801  14.511  0.3624  0.9095 -0.1568
10344TIP3   OH252522   2.002   2.110   1.256 -0.2982 -0.4454 -0.5148
10344TIP3    H152523   1.985   2.088   1.165 -0.6719  0.1700 -0.5915
10344TIP3    H252524   1.980   2.203   1.264 -1.1850 -0.7196  0.4210
10345TIP3   OH252525   0.694   2.501  12.915 -0.4118 -0.2303  0.0380
10345TIP3    H152526   0.703   2.586  12.957 -1.1862 -0.3072  0.3756
10345TIP3    H252527   0.783   2.474  12.893 -0.1994  0.8448 -0.4256
10346TIP3   OH252528   4.809   3.220   3.634  0.6657 -0.0784 -0.5697
10346TIP3    H152529   4.728   3.221   3.582 -1.0755  1.3453  2.0264
10346TIP3    H252530   4.794   3.285   3.702  3.6273 -0.5552  0.6178
10347TIP3   OH252531   6.279   0.862  15.516 -0.0016 -0.6038  0.9961
10347TIP3    H152532   6.184   0.858  15.502 -0.0326 -0.8311  1.2777
10347TIP3    H252533   6.313   0.902  15.436 -0.2771 -1.0721  0.6432
10348TIP3   OH252534   3.785   2.476  12.022  0.2725  0.2407  0.3273
10348TIP3    H152535   3.713   2.414  12.006  0.8558 -0.0089 -1.4235
10348TIP3    H252536   3.777   2.540  11.952  1.1960  0.7392  0.6783
10349TIP3   OH252537   3.985   4.216  14.354  0.5854 -0.4968 -0.2914
10349TIP3    H152538   3.921   4.278  14.318  0.7867 -0.9890 -1.5467
10349TIP3    H252539   3.970   4.135  14.304  1.6801 -0.8363 -0.0752
10350TIP3   OH252540   4.861   1.729   2.937  0.0096 -0.5734  0.3020
10350TIP3    H152541   4.770   1.753   2.918  1.2951  3.1683 -1.5659
10350TIP3    H252542   4.871   1.747   3.031 -1.5350 -2.4146  0.8481
10351TIP3   OH252543   0.433   0.901   0.164 -0.4593 -0.1503 -0.2004
10351TIP3    H152544   0.467   0.989   0.151  2.4151 -0.7534  2.5193
10351TIP3    H252545   0.443   0.858   0.080  2.7840  0.6676 -0.3001
10352TIP3   OH252546   3.489   4.701   5.192 -0.0682  0.2010 -0.3102
10352TIP3    H152547   3.401   4.713   5.158 -0.0463  0.0884 -0.4086
10352TIP3    H252548   3.541   4.769   5.150 -0.0077 -0.0352 -0.6251
10353TIP3   OH252549   0.066   3.227   0.081  0.0515  0.3310  0.4435
10353TIP3    H152550   0.033   3.172   0.010  1.2021 -0.4343  0.4965
10353TIP3    H252551   0.130   3.285   0.038  2.9292 -2.0933  1.3226
10354TIP3   OH252552   1.334   6.310  13.991 -0.4834  0.6206 -0.3445
10354TIP3    H152553   1.377   6.334  14.073  1.8944 -0.4421 -1.2268
10354TIP3    H252554   1.300   6.392  13.956  0.0116  1.3424  0.8574
10355TIP3   OH252555   4.356   6.129   0.044 -0.1911  0.0717  0.3146
10355TIP3    H152556   4.404   6.051   0.015 -1.8341 -0.7876 -0.1207
10355TIP3    H252557   4.394   6.201  -0.008  0.8154 -0.5459  0.1795
10356TIP3   OH252558   1.681   5.682  14.064 -0.4413  0.1966 -0.1368
10356TIP3    H152559   1.727   5.598  14.070 -0.6361  0.0789 -0.2902
10356TIP3    H252560   1.706   5.717  13.978 -1.0856 -0.1275 -0.4555
10357TIP3   OH252561   3.197   4.953   0.892  0.4306 -0.0109  0.3448
10357TIP3    H152562   3.102   4.960   0.899  0.2050 -2.3709 -0.0184
10357TIP3    H252563   3.227   4.937   0.982  0.4104 -0.0601  0.3425
10358TIP3   OH252564   6.778   2.675  17.185 -0.9112 -0.0246  0.1441
10358TIP3    H152565   6.846   2.673  17.118 -0.9080  1.6348  0.0812
10358TIP3    H252566   6.776   2.586  17.220  0.4273 -0.4026 -0.7170
10359TIP3   OH252567   1.790   2.840  15.576  0.0136  0.3121 -0.2209
10359TIP3    H152568   1.881   2.851  15.546  0.5653 -1.4433  0.7143
10359TIP3    H252569   1.798   2.788  15.656 -1.9756 -1.9912 -1.4646
10360TIP3   OH252570   4.785   4.234   5.866  0.3516 -0.5413  0.1477
10360TIP3    H152571   4.845   4.225   5.791 -0.9919  0.3055 -1.0602
10360TIP3    H252572   4.703   4.196   5.835 -0.7462  1.4615  0.5300
10361TIP3   OH252573   6.796   4.899   3.487 -1.0163 -0.3608  0.3334
10361TIP3    H152574   6.719   4.954   3.500 -2.1541 -1.7031 -0.6115
10361TIP3    H252575   6.814   4.863   3.574 -1.5871 -0.2123  0.5189
10362TIP3   OH252576   0.820   3.415   3.581  0.1369  0.0136  0.0741
10362TIP3    H152577   0.753   3.420   3.649  1.6116 -0.6214  1.5932
10362TIP3    H252578   0.858   3.503   3.578  0.4690 -0.1193  0.4662
10363TIP3   OH252579   1.201   5.059   6.302 -0.2638 -0.2349 -0.4310
10363TIP3    H152580   1.131   5.074   6.238 -0.8944  0.8415  0.4803
10363TIP3    H252581   1.204   5.140   6.353 -0.2505 -1.3547  1.3733
10364TIP3   OH252582   6.593   1.312   0.445  0.1782 -0.2968 -0.0608
10364TIP3    H152583   6.529   1.259   0.397 -0.0969 -1.3618  1.4575
10364TIP3    H252584   6.631   1.370   0.378 -1.4344 -0.5451 -1.2243
10365TIP3   OH252585   1.951   3.125   1.791  0.2837  0.3156  0.2375
10365TIP3    H152586   2.022   3.170   1.745  0.6740 -0.1321  0.3963
10365TIP3    H252587   1.902   3.082   1.722 -0.4239  1.4436  0.0300
10366TIP3   OH252588   4.638   5.413   2.500 -0.1874 -0.1490  0.4850
10366TIP3    H152589   4.690   5.449   2.428  0.4513  2.1752  2.0696
10366TIP3    H252590   4.665   5.321   2.505 -0.1279 -0.3171 -2.1061
10367TIP3   OH252591   3.774   4.722   0.516 -0.1044  0.0253 -0.9573
10367TIP3    H152592   3.807   4.810   0.495 -0.0550  0.3357  0.3566
10367TIP3    H252593   3.694   4.738   0.567 -0.1508 -0.6866 -0.7989
10368TIP3   OH252594   1.325   0.420   4.285 -0.0812  0.3164  0.1831
10368TIP3    H152595   1.313   0.499   4.337 -2.8481  0.3329 -0.4052
10368TIP3    H252596   1.295   0.349   4.343  0.4248 -0.0781 -0.0377
10369TIP3   OH252597   3.331   2.430  11.977  0.2052 -0.3610 -0.2648
10369TIP3    H152598   3.236   2.425  11.993  0.0920 -0.1564 -0.8605
10369TIP3    H252599   3.349   2.524  11.974  0.1497 -0.3774 -1.7212
10370TIP3   OH252600   1.810   2.176  15.198  0.0309  0.1572  0.2413
10370TIP3    H152601   1.791   2.189  15.291 -0.0581 -1.0938  0.4102
10370TIP3    H252602   1.878   2.240  15.178 -3.1284  3.6098  0.0266
10371TIP3   OH252603   6.060   3.643   3.407  0.1192 -0.1928 -0.3423
10371TIP3    H152604   5.972   3.676   3.387 -1.2874 -2.5919  1.6601
10371TIP3    H252605   6.070   3.656   3.501  1.8450 -0.1025 -0.5270
10372TIP3   OH252606   3.040   5.094  11.569 -0.3411 -0.1113 -0.4366
10372TIP3    H152607   2.999   5.028  11.514  0.8350 -0.4219 -0.9528
10372TIP3    H252608   3.129   5.104  11.533  0.0313  0.5624  0.6465
10373TIP3   OH252609   0.754   4.412  14.644 -0.6604  0.5780 -0.0150
10373TIP3    H152610   0.732   4.410  14.551  0.0469 -0.0492 -0.1690
10373TIP3    H252611   0.708   4.337  14.682 -1.7240  1.3807  0.3243
10374TIP3   OH252612   6.545   3.080   6.183 -0.5274 -0.0008 -0.0410
10374TIP3    H152613   6.634   3.117   6.179 -0.3424 -0.1978  1.9869
10374TIP3    H252614   6.551   3.010   6.247 -1.6243 -1.5744 -1.6085
10375TIP3   OH252615   4.346   2.102  11.802 -0.5791  0.3677  0.0666
10375TIP3    H152616   4.272   2.052  11.767  0.1340 -1.7744  1.5147
10375TIP3    H252617   4.306   2.181  11.839 -1.7692  0.7523 -1.9829
10376TIP3   OH252618   5.297   0.070   2.251  0.1179 -0.0104 -0.1623
10376TIP3    H152619   5.248   0.035   2.176 -0.0994  1.9431 -0.9643
10376TIP3    H252620   5.385   0.087   2.218  0.0950  0.6248  0.0851
10377TIP3   OH252621   1.451   4.273  15.899  0.2690 -0.7613  0.4263
10377TIP3    H152622   1.425   4.191  15.943 -2.3003  0.1924  0.7369
10377TIP3    H252623   1.462   4.336  15.970 -0.7925 -0.0402 -0.0355
10378TIP3   OH252624   5.758   1.041   4.590 -0.1799 -0.7633 -0.0290
10378TIP3    H152625   5.815   1.067   4.518  0.7694  0.8957  1.3033
10378TIP3    H252626   5.729   1.124   4.629  0.7098 -1.6287  2.5711
10379TIP3   OH252627   5.413   6.807   5.950  0.4746 -0.1445 -0.4143
10379TIP3    H152628   5.343   6.749   5.978  0.0889 -0.2044 -1.4923
10379TIP3    H252629   5.459   6.830   6.031 -1.5941  0.9627  0.4804
10380TIP3   OH252630   4.328   2.587  12.985 -0.6760 -0.5521 -0.1639
10380TIP3    H152631   4.245   2.564  12.944 -1.1329 -1.8288  1.4174
10380TIP3    H252632   4.334   2.530  13.062  0.7797  0.8205  0.7900
10381TIP3   OH252633   1.229   5.228  15.629 -0.8560 -0.6689 -0.2963
10381TIP3    H152634   1.262   5.210  15.717  0.4485  1.9300 -0.2073
10381TIP3    H252635   1.267   5.160  15.574  0.9894 -0.3802  0.6037
10382TIP3   OH252636   4.695   3.571  12.681 -0.7828 -0.1001 -0.4613
10382TIP3    H152637   4.731   3.559  12.769 -2.9788 -1.9043  0.2571
10382TIP3    H252638   4.758   3.627  12.636 -0.3364  2.0725  2.7205
10383TIP3   OH252639   0.572   5.985   2.799  0.3866  0.1920 -0.2623
10383TIP3    H152640   0.626   6.063   2.811  1.5582 -0.5381 -0.6250
10383TIP3    H252641   0.605   5.922   2.864 -1.4513  0.4498  0.9427
10384TIP3   OH252642   3.366   6.671   2.374 -0.2116  0.2466  0.0170
10384TIP3    H152643   3.326   6.662   2.460 -2.4241 -0.1587 -1.0098
10384TIP3    H252644   3.402   6.760   2.373 -0.9193  0.5509  1.0749
10385TIP3   OH252645   0.294   4.890   2.400  0.4098 -0.3417 -0.2758
10385TIP3    H152646   0.226   4.863   2.339 -0.7469  1.3748  0.2143
10385TIP3    H252647   0.246   4.920   2.478  1.8439 -2.8650  1.6666
10386TIP3   OH252648   0.464   5.143  12.565  0.3284  0.2211  0.5808
10386TIP3    H152649   0.432   5.216  12.618 -0.0317  0.1152  0.5129
10386TIP3    H252650   0.407   5.070  12.588  0.7108 -0.0506  0.6741
10387TIP3   OH252651   2.557   0.631   0.645 -0.3354  0.0032 -0.2879
10387TIP3    H152652   2.619   0.607   0.576  1.9182 -2.8966  2.6205
10387TIP3    H252653   2.576   0.723   0.663  1.9271 -0.3408 -0.7073
10388TIP3   OH252654   1.278   4.660  15.801  0.6064 -0.2151  0.0063
10388TIP3    H152655   1.332   4.596  15.755  0.0886  0.0313 -0.9649
10388TIP3    H252656   1.189   4.643  15.769  0.4187  0.7646 -0.0232
10389TIP3   OH252657   4.336   3.041   2.354  0.0271 -0.0610  0.0690
10389TIP3    H152658   4.273   3.011   2.420  0.0467  1.5161  0.8193
10389TIP3    H252659   4.282   3.087   2.289  0.4952  2.2482  1.2707
10390TIP3   OH252660   2.429   3.141   3.014  0.2165  0.3812 -0.7893
10390TIP3    H152661   2.405   3.116   3.104  0.4378  0.8505 -0.5939
10390TIP3    H252662   2.520   3.113   3.005  0.1271  0.1409 -0.9412
10391TIP3   OH252663   4.902   0.059  12.973 -0.7719  0.0584  0.2914
10391TIP3    H152664   4.987   0.031  13.006 -0.6577 -0.2365 -0.2417
10391TIP3    H252665   4.913   0.060  12.878 -1.6524 -0.9056  0.1724
10392TIP3   OH252666   2.753   4.622   5.953  0.1786  0.2905  0.4354
10392TIP3    H152667   2.806   4.696   5.985 -0.9239  1.9658 -1.4894
10392TIP3    H252668   2.665   4.640   5.987  0.1290 -0.7315  0.8514
10393TIP3   OH252669   5.963   4.702   1.744 -0.0985  0.2851 -0.0440
10393TIP3    H152670   5.948   4.611   1.768  2.6195 -1.1019 -3.1809
10393TIP3    H252671   6.029   4.734   1.806  1.3198 -0.9194 -0.9047
10394TIP3   OH252672   4.975   4.480  15.628  0.2479  0.3948 -0.2161
10394TIP3    H152673   4.989   4.528  15.709  1.5465 -0.4996  0.0939
10394TIP3    H252674   5.054   4.427  15.617 -1.4604 -2.2479 -0.1637
10395TIP3   OH252675   4.207   3.686  13.254  0.1029  0.0396 -0.3219
10395TIP3    H152676   4.132   3.738  13.281  1.1575  2.1121 -1.2398
10395TIP3    H252677   4.260   3.676  13.334 -0.6874 -0.6625  0.1186
10396TIP3   OH252678   1.852   2.695  13.105  0.1840  0.6346  0.0416
10396TIP3    H152679   1.775   2.687  13.049 -0.3030  1.6855  0.5427
10396TIP3    H252680   1.826   2.654  13.188  0.1541  1.0262  0.2249
10397TIP3   OH252681   2.898   3.239  13.375 -0.1720  0.2695  0.3147
10397TIP3    H152682   2.961   3.232  13.446 -1.3363 -0.9792  1.2344
10397TIP3    H252683   2.917   3.164  13.318  0.2834  0.8542 -0.3054
10398TIP3   OH252684   6.178   1.229   2.761 -0.7377  0.4711  0.1236
10398TIP3    H152685   6.094   1.274   2.754 -1.8770 -1.5622  0.6127
10398TIP3    H252686   6.197   1.199   2.672 -0.9701  0.1117  0.1981
10399TIP3   OH252687   4.064   2.563  14.645 -0.0524 -0.0716 -0.1812
10399TIP3    H152688   4.147   2.550  14.690  0.6281 -0.9401 -1.6738
10399TIP3    H252689   4.071   2.511  14.565 -1.8040  0.3064 -0.6038
10400TIP3   OH252690   5.257   4.286  15.068  0.0748 -0.4134 -0.0610
10400TIP3    H152691   5.227   4.362  15.118  1.3900  1.4126 -1.9083
10400TIP3    H252692   5.243   4.311  14.976 -0.6967 -2.9650 -0.6865
10401TIP3   OH252693   1.695   1.460   6.704 -0.1106 -0.1382  0.0438
10401TIP3    H152694   1.739   1.392   6.652 -1.0604 -0.2147 -0.6650
10401TIP3    H252695   1.736   1.542   6.675  2.4379 -0.5213  2.2944
10402TIP3   OH252696   3.467   3.339  10.881 -0.0275  0.3954  0.3760
10402TIP3    H152697   3.493   3.307  10.795  0.8004  2.5400 -0.2043
10402TIP3    H252698   3.549   3.348  10.929 -0.3796  0.3083  0.9973
10403TIP3   OH252699   0.477   5.554   2.182  0.1216  0.0227 -0.7441
10403TIP3    H152700   0.455   5.631   2.235 -1.1503 -0.5795 -0.3555
10403TIP3    H252701   0.519   5.494   2.243  0.3854  0.0969 -0.8560
10404TIP3   OH252702   3.213   0.836  10.991 -0.2349  0.0602 -0.3352
10404TIP3    H152703   3.126   0.815  11.025 -0.0989 -0.6155 -0.3867
10404TIP3    H252704   3.272   0.823  11.066 -0.3478  1.9612  0.1033
10405TIP3   OH252705   5.714   4.331  11.764  0.3976  0.5943 -0.0239
10405TIP3    H152706   5.710   4.389  11.688 -0.0575 -0.9652 -1.2045
10405TIP3    H252707   5.629   4.287  11.766  1.4289 -1.4826 -0.3071
10406TIP3   OH252708   2.388   6.732   4.167 -0.0701  0.4975 -0.5375
10406TIP3    H152709   2.390   6.657   4.107  2.0250  1.0810 -1.2409
10406TIP3    H252710   2.309   6.718   4.220 -1.6708 -0.3204 -3.0407
10407TIP3   OH252711   1.384   5.535   2.117  0.1278  0.1593 -0.1631
10407TIP3    H152712   1.385   5.593   2.041  0.1579  0.3315 -0.0327
10407TIP3    H252713   1.416   5.451   2.083 -1.3492 -0.2096 -0.6840
10408TIP3   OH252714   2.699   5.955  16.241  0.3532  0.5732  0.1795
10408TIP3    H152715   2.782   5.919  16.271 -0.1074  0.1669  1.0082
10408TIP3    H252716   2.658   5.989  16.321 -1.3237 -1.3862  0.1951
10409TIP3   OH252717   5.226   0.332  15.082 -0.1487  0.5164  0.2722
10409TIP3    H152718   5.265   0.418  15.064  0.2207  0.0678 -1.1231
10409TIP3    H252719   5.182   0.308  15.001  0.0626 -0.7892  0.5299
10410TIP3   OH252720   2.814   3.179  13.920 -0.4449  0.9278 -0.3438
10410TIP3    H152721   2.824   3.241  13.848  0.3477  1.6906  0.4032
10410TIP3    H252722   2.728   3.140  13.906 -1.1104  2.4426 -0.6407
10411TIP3   OH252723   3.823   6.557   2.189 -0.4138  0.0642 -0.6537
10411TIP3    H152724   3.761   6.568   2.117 -0.1034 -1.7616 -1.2189
10411TIP3    H252725   3.900   6.518   2.148 -0.4783 -1.6229  0.7749
10412TIP3   OH252726   5.281   5.398  14.690  0.0394  0.8444 -0.0284
10412TIP3    H152727   5.228   5.333  14.643  1.4729 -0.2883 -0.0896
10412TIP3    H252728   5.339   5.434  14.623  0.2666  1.1415  0.3293
10413TIP3   OH252729   0.038   6.736   4.796 -0.5508 -0.1594 -0.6382
10413TIP3    H152730   0.047   6.751   4.702 -1.1337 -0.6627 -0.7755
10413TIP3    H252731   0.114   6.682   4.819  0.1948  0.8816 -0.6026
10414TIP3   OH252732   6.253   0.785   4.548 -0.2573 -0.1427 -0.1584
10414TIP3    H152733   6.167   0.816   4.577 -0.2819 -0.7628  0.4392
10414TIP3    H252734   6.239   0.693   4.526  0.6516 -0.7107  1.6318
10415TIP3   OH252735   4.607   3.496   6.434 -0.1260  0.3113  0.2777
10415TIP3    H152736   4.525   3.450   6.452 -1.5332  2.6514  0.0661
10415TIP3    H252737   4.633   3.532   6.519 -0.3128  1.1551 -0.0243
10416TIP3   OH252738   4.407   1.191   5.701  0.6518  0.5694 -0.0331
10416TIP3    H152739   4.484   1.176   5.755  0.0078  0.1518  0.7852
10416TIP3    H252740   4.435   1.171   5.612  2.0713  2.4356 -0.0295
10417TIP3   OH252741   0.196   6.313   0.664 -0.3085  0.0252 -0.2826
10417TIP3    H152742   0.252   6.382   0.629 -0.5846  0.0776 -0.6317
10417TIP3    H252743   0.158   6.271   0.586 -0.1350 -0.5258 -0.0732
10418TIP3   OH252744   6.104   4.031   6.331 -0.9545 -0.1747 -0.0131
10418TIP3    H152745   6.120   4.017   6.237 -1.2295 -0.6326  0.0031
10418TIP3    H252746   6.046   3.959   6.355  1.0100 -1.4589  1.0228
10419TIP3   OH252747   3.551   1.711  16.911 -0.0966  0.9565 -0.1642
10419TIP3    H152748   3.624   1.769  16.930  0.4397 -0.0708  0.9921
10419TIP3    H252749   3.521   1.680  16.997 -1.2561  0.6044 -0.6795
10420TIP3   OH252750   2.227   5.146  16.613  0.2105 -0.0320  0.3539
10420TIP3    H152751   2.176   5.082  16.563  0.8642 -1.4135  1.4257
10420TIP3    H252752   2.223   5.113  16.703  3.6615 -0.6253  0.3368
10421TIP3   OH252753   2.396   0.575   4.099  0.4284 -0.0473 -0.0809
10421TIP3    H152754   2.418   0.647   4.159  0.3221 -1.3622  1.5764
10421TIP3    H252755   2.304   0.556   4.117  0.1756  0.0421 -1.2233
10422TIP3   OH252756   0.686   5.738  13.943 -0.7175 -0.0381 -0.1738
10422TIP3    H152757   0.693   5.756  14.037  0.7419  0.3281 -0.3398
10422TIP3    H252758   0.750   5.668  13.927  0.5901  1.3824 -1.2663
10423TIP3   OH252759   1.524   2.994  10.722 -0.2167  0.1028  0.2301
10423TIP3    H152760   1.478   3.054  10.662 -0.0929  0.2821  0.3135
10423TIP3    H252761   1.458   2.969  10.786 -0.6353 -0.9278 -0.5941
10424TIP3   OH252762   1.759   5.997   2.784 -0.0575  0.1525 -0.5157
10424TIP3    H152763   1.854   6.001   2.797  0.0748  1.3335 -1.7407
10424TIP3    H252764   1.745   5.920   2.730  0.2092  0.0096 -0.3841
10425TIP3   OH252765   1.172   6.818   4.274 -0.0874  0.0664 -0.9082
10425TIP3    H152766   1.138   6.876   4.206  1.7601  0.1466 -1.7974
10425TIP3    H252767   1.134   6.852   4.356 -1.9614  0.2449 -1.8191
10426TIP3   OH252768   3.304   5.560   2.820 -0.1117 -0.2028  0.3459
10426TIP3    H152769   3.277   5.629   2.880  0.8896  0.3361  0.1851
10426TIP3    H252770   3.347   5.606   2.748 -1.5332 -0.8207 -0.9158
10427TIP3   OH252771   1.420   0.406   2.805 -0.4417 -0.4643 -0.0223
10427TIP3    H152772   1.444   0.408   2.898 -1.8937 -0.1276  0.3592
10427TIP3    H252773   1.395   0.496   2.785  1.2228 -0.2390 -1.1150
10428TIP3   OH252774   0.084   4.738  12.310  0.3331  0.3359  0.4425
10428TIP3    H152775   0.017   4.773  12.251 -1.3962  0.2471  2.3216
10428TIP3    H252776   0.160   4.722  12.253 -1.5175 -0.4174 -1.8955
10429TIP3   OH252777   3.905   3.543  16.813  0.1381  0.1130  0.0984
10429TIP3    H152778   3.844   3.569  16.743 -0.2703  0.4113  0.5615
10429TIP3    H252779   3.991   3.568  16.779  0.0318 -0.5299 -0.6632
10430TIP3   OH252780   4.554   3.537   2.120  0.0617 -0.2963  0.1528
10430TIP3    H152781   4.603   3.544   2.202 -2.2931  2.1581  1.4201
10430TIP3    H252782   4.608   3.584   2.056  0.6515  0.0587  0.8998
10431TIP3   OH252783   3.523   1.815   4.920  0.1077  0.3321  0.2566
10431TIP3    H152784   3.543   1.722   4.928 -0.0063  0.3009  0.1728
10431TIP3    H252785   3.606   1.855   4.892  0.0406  0.1940 -0.1453
10432TIP3   OH252786   1.511   2.054   2.853 -0.6428 -0.4086 -0.2011
10432TIP3    H152787   1.469   2.126   2.901 -0.2762  0.5992 -1.3716
10432TIP3    H252788   1.439   2.008   2.812 -0.9525 -1.2131  1.2178
10433TIP3   OH252789   0.398   1.193  12.996 -0.4488  0.1707  0.4859
10433TIP3    H152790   0.372   1.285  12.992  3.0200  1.2693  1.0948
10433TIP3    H252791   0.389   1.162  12.906  2.8578  2.5355 -0.7665
10434TIP3   OH252792   3.356   5.747   0.667 -0.0863 -0.6801  0.0728
10434TIP3    H152793   3.372   5.840   0.684 -0.6304 -0.4960 -0.4129
10434TIP3    H252794   3.363   5.706   0.753 -1.4034  0.0467  0.5475
10435TIP3   OH252795   4.637   1.303  14.947  0.0827 -0.3165 -0.1776
10435TIP3    H152796   4.546   1.278  14.933 -0.4416  1.2475  0.3310
10435TIP3    H252797   4.641   1.325  15.041  0.9434 -0.2351 -0.2322
10436TIP3   OH252798   1.129   4.836   6.464  0.3680  0.2793 -0.3912
10436TIP3    H152799   1.122   4.786   6.383  1.9778 -0.5153 -0.0482
10436TIP3    H252800   1.178   4.914   6.440 -0.9172  1.0297 -0.6155
10437TIP3   OH252801   1.500   6.700  11.398 -0.1432 -0.3601 -0.4705
10437TIP3    H152802   1.507   6.749  11.480 -1.0455 -1.5746  0.3626
10437TIP3    H252803   1.568   6.632  11.406  1.4983  1.0580 -1.8690
10438TIP3   OH252804   4.386   0.096   6.198  0.0154  0.8117 -0.2499
10438TIP3    H152805   4.460   0.154   6.219 -0.0075  0.6591  0.2572
10438TIP3    H252806   4.331   0.099   6.276  0.3369 -0.3876  0.0342
10439TIP3   OH252807   5.266   3.294   1.325 -1.0003  0.5710  0.0659
10439TIP3    H152808   5.310   3.279   1.242  1.2663  0.9413  1.1613
10439TIP3    H252809   5.255   3.389   1.330 -1.4387  0.5232  0.0476
10440TIP3   OH252810   0.210   1.996  13.942  0.3981  0.0390  0.0283
10440TIP3    H152811   0.135   2.048  13.971 -0.2346 -1.2470  0.7170
10440TIP3    H252812   0.196   1.910  13.981  2.0281 -0.3256 -0.1739
10441TIP3   OH252813   3.900   2.307  11.477 -0.1368 -0.6432  0.2760
10441TIP3    H152814   3.913   2.342  11.565  1.7397  1.0183 -0.6278
10441TIP3    H252815   3.806   2.315  11.461  0.0003  2.4009  0.7796
10442TIP3   OH252816   4.245   5.070   3.596 -0.4427  0.1734 -0.3787
10442TIP3    H152817   4.266   5.010   3.524  0.7107  0.6813 -0.4745
10442TIP3    H252818   4.158   5.044   3.625 -0.0356 -1.4231 -0.5601
10443TIP3   OH252819   5.692   1.042   2.670  0.1319  0.0351 -0.1139
10443TIP3    H152820   5.652   1.030   2.756 -1.7269 -0.3770 -1.0086
10443TIP3    H252821   5.785   1.024   2.684  0.1112  1.5006  2.1126
10444TIP3   OH252822   5.163   3.074  11.270  0.3916 -0.3798  0.0341
10444TIP3    H152823   5.163   3.025  11.352  0.8837 -0.1387  0.1800
10444TIP3    H252824   5.222   3.148  11.286  0.1730 -0.1102 -0.4035
10445TIP3   OH252825   2.812   3.722   4.317 -0.8237 -0.1330  0.5371
10445TIP3    H152826   2.891   3.669   4.324 -1.0294 -0.6281 -0.7780
10445TIP3    H252827   2.740   3.659   4.323 -1.0841  0.0914 -0.1881
10446TIP3   OH252828   0.869   2.759  15.513 -0.4104  0.0172  0.0270
10446TIP3    H152829   0.958   2.753  15.545  0.1871 -0.3854 -1.6706
10446TIP3    H252830   0.859   2.685  15.453 -1.2714  1.0737 -1.1813
10447TIP3   OH252831   3.744   6.588   0.509  0.2344  0.5749 -0.2433
10447TIP3    H152832   3.668   6.539   0.540  2.3050 -2.1960  0.6692
10447TIP3    H252833   3.736   6.674   0.550 -1.4562 -0.2788  1.2882
10448TIP3   OH252834   3.395   3.328   3.850 -0.2744  0.0951 -0.2618
10448TIP3    H152835   3.346   3.308   3.929 -1.3005 -0.8262 -1.1151
10448TIP3    H252836   3.357   3.411   3.819 -0.9637 -0.3508 -0.6370
10449TIP3   OH252837   0.064   2.867  13.922 -0.1166 -0.8579  0.2444
10449TIP3    H152838   0.098   2.945  13.878  1.1287 -1.0880  0.7748
10449TIP3    H252839   0.015   2.901  13.997 -0.9211 -0.5345 -0.4124
10450TIP3   OH252840   3.151   3.910  16.220 -0.2293 -0.4944  0.3956
10450TIP3    H152841   3.091   3.982  16.199  0.7649  0.3503  0.4383
10450TIP3    H252842   3.209   3.945  16.287  0.6423 -1.1417  0.0008
10451TIP3   OH252843   4.450   5.004  14.673  0.0701  0.1479  0.0358
10451TIP3    H152844   4.518   5.029  14.735 -1.4928  2.2796  0.9585
10451TIP3    H252845   4.373   4.986  14.727 -0.2961 -1.5899 -1.0319
10452TIP3   OH252846   4.151   0.235  12.890 -0.0325  0.2891 -0.6278
10452TIP3    H152847   4.167   0.234  12.796 -0.9230 -1.9267 -0.7942
10452TIP3    H252848   4.204   0.163  12.924  0.9842  1.6391  0.7127
10453TIP3   OH252849   3.491   1.529   4.981  0.3971 -0.1666  0.1111
10453TIP3    H152850   3.407   1.499   4.947  0.8429  0.4452 -1.5684
10453TIP3    H252851   3.552   1.519   4.908  1.4287  0.9778  0.7889
10454TIP3   OH252852   6.762   5.582   5.479  0.3910  0.2168  0.2975
10454TIP3    H152853   6.742   5.501   5.525 -1.5394 -0.4365 -1.5999
10454TIP3    H252854   6.818   5.631   5.540 -0.7163 -1.2994  2.6177
10455TIP3   OH252855   6.592   2.606   4.041  0.4620 -0.2551  0.5337
10455TIP3    H152856   6.622   2.583   4.129  1.7182 -0.9093 -0.0518
10455TIP3    H252857   6.665   2.654   4.003  0.5768 -1.4178 -0.7385
10456TIP3   OH252858   4.792   0.016   3.559  0.1080 -0.2518 -0.3915
10456TIP3    H152859   4.718  -0.003   3.617  0.3841  0.2054  0.1201
10456TIP3    H252860   4.762  -0.011   3.472 -0.4589 -0.5727 -0.0995
10457TIP3   OH252861   5.418   0.969  15.781  0.0219  0.2477  0.0739
10457TIP3    H152862   5.479   0.919  15.728 -0.3553 -1.1223  0.8914
10457TIP3    H252863   5.432   1.060  15.755  1.1507 -0.2190 -1.0052
10458TIP3   OH252864   3.617   4.695  14.513 -0.7279  0.1863 -0.4537
10458TIP3    H152865   3.566   4.647  14.578 -0.9768  0.0232 -0.7678
10458TIP3    H252866   3.557   4.762  14.481  0.1997  1.9098  1.3178
10459TIP3   OH252867   5.645   5.101  16.262 -0.3561 -0.0380 -0.1091
10459TIP3    H152868   5.587   5.172  16.292 -0.1366 -0.2217  0.7572
10459TIP3    H252869   5.688   5.070  16.341  1.9142  0.9635 -0.9155
10460TIP3   OH252870   3.750   6.251   4.600  0.0031 -0.5016  0.4328
10460TIP3    H152871   3.724   6.249   4.508  0.4855  2.0011  0.1947
10460TIP3    H252872   3.719   6.168   4.636  0.3283 -1.7659 -2.1193
10461TIP3   OH252873   2.057   0.895  16.269 -0.0301 -0.4189 -0.4525
10461TIP3    H152874   2.127   0.869  16.210 -0.4820  0.6126 -1.4582
10461TIP3    H252875   2.100   0.947  16.337  0.5486 -1.9442  0.3648
10462TIP3   OH252876   0.822   4.380  14.329  0.3527 -0.3388  0.1172
10462TIP3    H152877   0.899   4.343  14.287 -0.3454 -1.8782  0.1653
10462TIP3    H252878   0.787   4.442  14.264 -0.9058 -2.9235 -1.7597
10463TIP3   OH252879   3.412   4.792   3.988 -0.3082 -0.1168  0.5783
10463TIP3    H152880   3.469   4.785   3.912  0.6287 -2.5675  1.4647
10463TIP3    H252881   3.378   4.881   3.984  0.9844  0.3147 -1.7992
10464TIP3   OH252882   2.558   0.405   2.513  0.3502  0.4185 -0.1306
10464TIP3    H152883   2.565   0.328   2.571  0.1751  1.2103  0.9572
10464TIP3    H252884   2.645   0.414   2.475  0.0755 -0.9747 -1.1091
10465TIP3   OH252885   4.079   6.789  14.364  0.5297 -0.2496 -0.3930
10465TIP3    H152886   4.019   6.851  14.406  0.2644  0.5801 -1.9753
10465TIP3    H252887   4.153   6.783  14.425 -1.2459 -1.4966  1.7139
10466TIP3   OH252888   4.754   4.627  14.282 -0.1153  0.4588  0.4794
10466TIP3    H152889   4.725   4.558  14.342  1.9954 -1.0563 -0.1555
10466TIP3    H252890   4.779   4.580  14.202  0.6956  2.0371 -0.2177
10467TIP3   OH252891   2.478   4.345  15.117 -0.1444  0.1103 -0.7343
10467TIP3    H152892   2.436   4.259  15.110 -1.4267  0.6661 -0.2357
10467TIP3    H252893   2.563   4.327  15.156 -0.9803 -0.8129  0.7534
10468TIP3   OH252894   6.759   3.394   5.987 -0.1555 -0.1820  0.9017
10468TIP3    H152895   6.679   3.361   5.947 -0.5346  1.5047  0.2430
10468TIP3    H252896   6.792   3.459   5.925  1.2277 -0.1900  1.6042
10469TIP3   OH252897   1.273   5.274  14.950  0.7340  0.6170  0.5904
10469TIP3    H152898   1.240   5.312  14.868  2.5179 -1.2450 -1.0495
10469TIP3    H252899   1.319   5.347  14.993 -0.3904  1.6700  0.0411
10470TIP3   OH252900   3.953   1.700  13.422 -0.4139 -0.3422  0.0106
10470TIP3    H152901   3.903   1.754  13.483  0.9949  2.6541 -1.4019
10470TIP3    H252902   3.915   1.612  13.431 -1.0166  0.2468  4.3195
10471TIP3   OH252903   6.143   1.343   4.251  0.6561  0.0709  0.2654
10471TIP3    H152904   6.052   1.314   4.247  0.6072  0.2528  0.0850
10471TIP3    H252905   6.184   1.282   4.311  0.9210 -1.3418 -1.3149
10472TIP3   OH252906   2.036   0.563   6.108  0.3435  0.2804 -0.4077
10472TIP3    H152907   1.985   0.485   6.087  0.0725  0.6442 -1.1021
10472TIP3    H252908   2.057   0.602   6.023 -0.8764  1.8464 -0.0182
10473TIP3   OH252909   1.125   1.719   4.686 -0.2702  0.4680  0.4290
10473TIP3    H152910   1.194   1.744   4.747 -0.1573  0.3806  0.3371
10473TIP3    H252911   1.046   1.760   4.721 -0.4058 -0.4786  1.2314
10474TIP3   OH252912   1.923   4.866  17.000  0.2841  0.8078  0.3390
10474TIP3    H152913   1.979   4.789  16.987  0.8457  1.0979  0.9781
10474TIP3    H252914   1.953   4.929  16.935  0.4185  0.8090  0.4004
10475TIP3   OH252915   2.306   0.381   6.334  0.0219  0.9780  0.4494
10475TIP3    H152916   2.221   0.345   6.358 -0.2521  1.0415 -0.4229
10475TIP3    H252917   2.293   0.420   6.248  1.0859  0.4306  0.0249
10476TIP3   OH252918   3.513   1.874   3.362 -0.0432  0.1250  0.1518
10476TIP3    H152919   3.494   1.801   3.304 -1.2219  1.2043 -0.8594
10476TIP3    H252920   3.597   1.853   3.402 -0.3045 -1.7001 -0.2321
10477TIP3   OH252921   2.472   5.287   2.466 -0.8729  0.6748 -0.4425
10477TIP3    H152922   2.506   5.212   2.515 -0.3391  1.0672 -0.2062
10477TIP3    H252923   2.470   5.257   2.375 -0.2170  0.5272 -0.4124
10478TIP3   OH252924   5.662   6.226  10.841 -0.0547 -0.2075 -0.1897
10478TIP3    H152925   5.571   6.204  10.822 -0.8745  2.1711  0.7460
10478TIP3    H252926   5.704   6.143  10.862 -2.2509 -1.1990  0.3034
10479TIP3   OH252927   4.469   3.256   6.065 -0.1993 -0.1375 -0.6737
10479TIP3    H152928   4.483   3.227   5.975 -0.1980  0.1255 -0.7571
10479TIP3    H252929   4.494   3.180   6.118  0.2327 -0.1422 -0.8762
10480TIP3   OH252930   5.837   4.514   1.298  0.1943  0.4839  0.1128
10480TIP3    H152931   5.757   4.559   1.268 -0.2519  0.5922  1.4319
10480TIP3    H252932   5.806   4.451   1.364  1.0857 -0.1835 -0.0962
10481TIP3   OH252933   5.904   6.423  11.741  0.1482  0.1332 -0.2389
10481TIP3    H152934   5.976   6.407  11.680  0.0532 -0.9189 -0.0900
10481TIP3    H252935   5.833   6.366  11.709  0.1011 -0.4321  0.8419
10482TIP3   OH252936   6.262   3.005  12.131 -0.0534  0.2875  0.4510
10482TIP3    H152937   6.267   3.092  12.171  1.2334 -0.5357  2.1413
10482TIP3    H252938   6.295   3.018  12.042  0.0843  1.5392  0.6746
10483TIP3   OH252939   5.780   2.876  15.811 -0.0547  0.0657  0.5622
10483TIP3    H152940   5.798   2.828  15.892  0.2380  1.5908  1.4259
10483TIP3    H252941   5.722   2.818  15.761 -3.0245  0.4962  3.3426
10484TIP3   OH252942   4.794   5.669  11.553  0.4844  0.0027 -0.1421
10484TIP3    H152943   4.749   5.585  11.552  0.1456  0.1746  0.8670
10484TIP3    H252944   4.883   5.648  11.580  0.1141  0.0988  1.2014
10485TIP3   OH252945   6.666   2.398  12.281 -0.1530  0.0555  0.1941
10485TIP3    H152946   6.675   2.431  12.370  1.2463 -1.0891  0.5017
10485TIP3    H252947   6.662   2.477  12.227  0.5423  0.7518  1.1318
10486TIP3   OH252948   3.503   2.775  12.863  0.0710  0.5430 -0.1314
10486TIP3    H152949   3.508   2.768  12.768  0.1547 -0.0088 -0.0874
10486TIP3    H252950   3.476   2.865  12.879  0.7205  0.8383 -0.6597
10487TIP3   OH252951   5.402   5.884   2.376 -0.1308  0.1107 -0.0737
10487TIP3    H152952   5.390   5.878   2.470 -2.3672  0.0290 -0.3369
10487TIP3    H252953   5.496   5.893   2.364  0.1031  0.9827  2.2149
10488TIP3   OH252954   0.833   5.523  17.275 -0.2480  0.1107 -0.2066
10488TIP3    H152955   0.742   5.533  17.247 -1.2483  1.3600  3.2073
10488TIP3    H252956   0.842   5.430  17.296 -0.3609 -0.2438 -1.6789
10489TIP3   OH252957   5.869   2.949   4.603 -0.1264  0.1576 -0.6471
10489TIP3    H152958   5.935   2.905   4.551  1.0289  1.9221 -0.7358
10489TIP3    H252959   5.909   3.034   4.626 -1.5098  0.3739  1.1126
10490TIP3   OH252960   5.272   1.478   3.116  0.3931  0.6641  0.1856
10490TIP3    H152961   5.348   1.536   3.106 -0.2265  1.5617  0.6846
10490TIP3    H252962   5.207   1.514   3.056 -0.0213  0.5235  0.5541
10491TIP3   OH252963   0.254   2.839   3.903 -0.2170  0.0006 -0.3080
10491TIP3    H152964   0.229   2.748   3.891  0.2266 -0.4967  2.3283
10491TIP3    H252965   0.349   2.837   3.912  0.1049  1.0611 -2.8650
10492TIP3   OH252966   6.640   5.595   3.361  0.2395  0.2950  0.3110
10492TIP3    H152967   6.631   5.502   3.341 -1.8136  0.5467  0.0086
10492TIP3    H252968   6.632   5.600   3.456  3.1895 -0.1204  0.6412
10493TIP3   OH252969   5.363   0.227  12.031 -0.1399  0.1408  0.1935
10493TIP3    H152970   5.345   0.166  11.959  0.3358  1.5707 -1.1698
10493TIP3    H252971   5.449   0.263  12.011 -0.2723  1.0145  1.1630
10494TIP3   OH252972   1.597   5.369   0.367 -0.0590 -0.0509 -0.0377
10494TIP3    H152973   1.517   5.411   0.334  0.7376  0.0998 -1.8658
10494TIP3    H252974   1.650   5.355   0.289  1.6134 -0.3541  1.1285
10495TIP3   OH252975   5.477   4.008   6.127  0.4120 -0.0265  0.1036
10495TIP3    H152976   5.520   3.947   6.187 -0.6696 -0.5080  0.3960
10495TIP3    H252977   5.427   3.952   6.068 -0.0037  0.5426 -0.0858
10496TIP3   OH252978   0.399   4.538   1.044  0.2562  0.3486  0.6770
10496TIP3    H152979   0.397   4.620   1.093 -1.3370  1.5450 -1.3189
10496TIP3    H252980   0.325   4.487   1.080 -1.6899  1.7275 -1.2442
10497TIP3   OH252981   3.443   4.354  14.511  0.5877  0.5368 -0.5457
10497TIP3    H152982   3.379   4.306  14.565  0.4750  0.5401 -0.6756
10497TIP3    H252983   3.507   4.288  14.486  1.1752  0.7409  0.4031
10498TIP3   OH252984   3.456   6.421   4.472  0.1616 -0.0357 -0.3538
10498TIP3    H152985   3.428   6.479   4.401 -4.2411 -1.0429  0.4660
10498TIP3    H252986   3.440   6.333   4.439  0.6438 -0.5875  0.8723
10499TIP3   OH252987   6.487   2.620   5.644  0.1249  0.0021  0.3700
10499TIP3    H152988   6.553   2.687   5.624 -0.4844  0.4762 -0.0509
10499TIP3    H252989   6.424   2.665   5.701 -0.6349 -0.0216 -0.4419
10500TIP3   OH252990   3.003   0.539  17.007  0.1530  0.2972  0.0406
10500TIP3    H152991   3.051   0.622  17.004 -0.8809  0.9109  0.4307
10500TIP3    H252992   2.925   0.553  16.955  0.7611 -0.9665 -1.2595
10501TIP3   OH252993   6.687   4.244  12.909 -0.7471  0.3443 -0.5637
10501TIP3    H152994   6.616   4.305  12.889 -0.8260  0.8717  1.2333
10501TIP3    H252995   6.652   4.189  12.978 -1.0523 -2.4682 -2.8851
10502TIP3   OH252996   5.327   0.659  16.057  0.0963 -0.1642  0.0736
10502TIP3    H152997   5.392   0.696  15.998  1.2507  1.3033  2.1951
10502TIP3    H252998   5.378   0.629  16.132 -1.3922 -1.5704  0.5510
10503TIP3   OH252999   4.347   4.298   3.067  0.5411  0.7282  0.1342
10503TIP3    H153000   4.310   4.350   2.996  0.7742  0.9006  0.1390
10503TIP3    H253001   4.433   4.337   3.083  1.9401 -1.4438 -1.8158
10504TIP3   OH253002   1.588   1.289  14.950  0.2340 -0.3438  0.3251
10504TIP3    H153003   1.620   1.314  14.863 -0.4372 -2.7378 -0.6278
10504TIP3    H253004   1.494   1.304  14.947  0.6215  3.1020  1.9210
10505TIP3   OH253005   4.949   2.792  13.005 -0.1343  0.2286  0.0368
10505TIP3    H153006   4.949   2.817  13.098  0.7299  0.5649 -0.0471
10505TIP3    H253007   4.869   2.830  12.970  0.2864  1.3854  0.3087
10506TIP3   OH253008   5.343   1.121   2.506 -0.2167  0.0966 -0.3737
10506TIP3    H153009   5.298   1.205   2.495 -0.2583  0.2136  0.6429
10506TIP3    H253010   5.273   1.056   2.503 -0.3483  0.2086  0.2825
10507TIP3   OH253011   5.822   1.987   1.166 -0.1364  0.3193  0.0868
10507TIP3    H153012   5.852   2.078   1.157 -1.6111  0.8193  0.0776
10507TIP3    H253013   5.897   1.940   1.201 -0.0593  2.0230  2.3576
10508TIP3   OH253014   5.774   4.466  15.859 -0.1843  0.4110  0.4761
10508TIP3    H153015   5.836   4.464  15.787 -0.4663  0.1254  0.2407
10508TIP3    H253016   5.751   4.558  15.868 -1.5292  0.2280 -0.9937
10509TIP3   OH253017   6.626   0.419   5.245 -0.1704  0.7235  0.4655
10509TIP3    H153018   6.628   0.449   5.335 -0.1755  0.2731  0.6167
10509TIP3    H253019   6.697   0.355   5.239 -0.5720  0.2912  0.3172
10510TIP3   OH253020   6.630   2.388   2.078  0.1851 -0.3559 -0.5182
10510TIP3    H153021   6.639   2.349   1.991 -0.3847 -0.1711 -0.6627
10510TIP3    H253022   6.545   2.432   2.075  0.8845  1.0347 -0.4193
10511TIP3   OH253023   1.192   3.703  14.465  0.5267 -0.6593  0.0727
10511TIP3    H153024   1.176   3.623  14.416 -2.0858  0.4934 -1.0382
10511TIP3    H253025   1.236   3.674  14.545  2.3841 -2.8445 -1.6653
10512TIP3   OH253026   4.267   0.762  14.829 -0.5400  0.1760  0.4619
10512TIP3    H153027   4.268   0.834  14.891 -1.1577  1.7113 -1.2768
10512TIP3    H253028   4.359   0.736  14.821 -0.4667 -0.1359  2.0783
10513TIP3   OH253029   5.863   2.352  15.697  0.3929 -0.0191  0.3231
10513TIP3    H153030   5.807   2.430  15.688  1.0687  0.3451 -0.7692
10513TIP3    H253031   5.943   2.374  15.649  1.2529 -0.7585  1.4046
10514TIP3   OH253032   0.803   6.136   2.322 -0.0685  0.2084  0.3529
10514TIP3    H153033   0.875   6.098   2.272  1.4054  2.7748  0.4200
10514TIP3    H253034   0.728   6.131   2.263  1.0172  0.7729 -1.1252
10515TIP3   OH253035   6.064   6.374   6.560 -0.3689  0.2024  0.2924
10515TIP3    H153036   6.112   6.301   6.522  1.0569  0.3447  1.7700
10515TIP3    H253037   5.989   6.334   6.604  0.1523 -0.3487  0.6995
10516TIP3   OH253038   6.447   1.260  15.107  0.2120 -0.2997 -0.3443
10516TIP3    H153039   6.414   1.341  15.148  2.2366  1.0272 -1.2592
10516TIP3    H253040   6.372   1.228  15.056 -0.9526  0.4070  0.8764
10517TIP3   OH253041   2.047   2.188   2.218  0.6764 -0.6685 -0.2114
10517TIP3    H153042   2.015   2.234   2.141 -1.2107  0.6079  1.2948
10517TIP3    H253043   2.102   2.117   2.183 -1.2016 -0.9272 -2.7339
10518TIP3   OH253044   1.322   2.156   4.507  0.6094 -0.0490 -0.2718
10518TIP3    H153045   1.297   2.064   4.516 -1.1509  0.6522  2.7404
10518TIP3    H253046   1.258   2.193   4.446  0.5424 -0.5307 -0.4915
10519TIP3   OH253047   3.706   0.273  16.072  0.4906 -0.3360 -0.3559
10519TIP3    H153048   3.664   0.328  16.005 -0.2845 -0.8961 -0.3363
10519TIP3    H253049   3.680   0.314  16.155 -1.5274 -1.7080 -0.2702
10520TIP3   OH253050   1.831   5.915  12.214  0.3257  0.3945 -0.4192
10520TIP3    H153051   1.807   5.873  12.132  0.8558 -0.4109 -0.1788
10520TIP3    H253052   1.912   5.961  12.195  0.9269 -0.5194 -0.1453
10521TIP3   OH253053   2.132   0.923   0.985 -0.3510 -0.0117  0.4204
10521TIP3    H153054   2.040   0.948   0.975 -0.7191 -1.4943 -0.1177
10521TIP3    H253055   2.130   0.827   0.984  1.2299 -0.0483  0.1412
10522TIP3   OH253056   2.681   6.594  14.245  0.0162  0.2590  0.8032
10522TIP3    H153057   2.633   6.531  14.192  0.5990 -0.7161  1.3978
10522TIP3    H253058   2.642   6.587  14.332  1.0581 -0.3916  1.2407
10523TIP3   OH253059   2.200   2.933  16.321  0.0427 -0.3508 -0.2361
10523TIP3    H153060   2.251   2.888  16.254  0.0039 -0.9795  0.1476
10523TIP3    H253061   2.249   2.918  16.402  0.3144  0.7583 -0.1836
10524TIP3   OH253062   6.133   5.870  13.984  0.1806 -0.0450 -0.1318
10524TIP3    H153063   6.083   5.884  13.904  1.6791 -1.5579 -1.3497
10524TIP3    H253064   6.075   5.901  14.054 -2.0802 -0.9068 -1.5780
10525TIP3   OH253065   2.114   3.524   0.878  0.3281  0.0481  0.2986
10525TIP3    H153066   2.023   3.496   0.864  0.4446  0.2955 -1.0140
10525TIP3    H253067   2.149   3.461   0.940 -0.6313 -0.2784  0.5275
10526TIP3   OH253068   1.308   1.668   4.207  0.1116 -0.0222 -0.1953
10526TIP3    H153069   1.397   1.683   4.238  0.0551 -0.7273  0.3111
10526TIP3    H253070   1.308   1.577   4.177 -0.3782  0.0440 -0.4009
10527TIP3   OH253071   6.107   6.640   3.466 -0.0321  0.8143  0.4017
10527TIP3    H153072   6.103   6.568   3.403  0.4219  0.4381  0.7919
10527TIP3    H253073   6.200   6.662   3.471 -0.3383  2.4266 -0.8180
10528TIP3   OH253074   6.201   4.824   3.617 -0.1857 -0.3086  0.0438
10528TIP3    H153075   6.171   4.783   3.699  2.7157  0.9980  1.8472
10528TIP3    H253076   6.284   4.780   3.598  0.0413  0.6520 -1.2229
10529TIP3   OH253077   2.351   1.149  17.163 -0.0195  0.5910 -0.9211
10529TIP3    H153078   2.284   1.081  17.170 -0.2913  0.6169 -2.8361
10529TIP3    H253079   2.320   1.205  17.092  1.8338  0.8097 -1.5802
10530TIP3   OH253080   5.765   3.010  16.865  0.1921  0.2796  0.1298
10530TIP3    H153081   5.860   3.017  16.858  0.0424  0.6506 -1.8994
10530TIP3    H253082   5.732   3.049  16.783 -1.8669  3.6894  2.4389
10531TIP3   OH253083   0.317   5.235   2.504  0.0116  0.0699  0.1802
10531TIP3    H153084   0.313   5.309   2.565 -0.7673  0.2698 -0.1039
10531TIP3    H253085   0.226   5.207   2.495  0.1348 -0.0418 -0.7979
10532TIP3   OH253086   4.896   0.674   1.082 -0.1967  0.4970  0.1411
10532TIP3    H153087   4.855   0.634   1.005  1.0684 -0.0502 -0.2452
10532TIP3    H253088   4.845   0.639   1.156  0.6404 -1.5412 -0.2101
10533TIP3   OH253089   1.855   1.565  15.980 -0.0822 -0.0362  0.1005
10533TIP3    H153090   1.771   1.608  15.964  0.0844  0.2330 -0.0607
10533TIP3    H253091   1.832   1.475  16.001 -0.3954 -0.0314 -0.2138
10534TIP3   OH253092   5.630   5.912  14.408 -0.0487  0.2263  0.1525
10534TIP3    H153093   5.562   5.883  14.469  0.7808 -0.2160  0.8931
10534TIP3    H253094   5.641   5.838  14.348 -0.8022  0.6258 -0.4714
10535TIP3   OH253095   6.419   0.830  12.484  0.3914 -0.5759  0.1688
10535TIP3    H153096   6.373   0.794  12.408  2.2991 -1.6523 -0.5186
10535TIP3    H253097   6.450   0.915  12.454 -2.3287  0.8066  1.1116
10536TIP3   OH253098   2.184   6.622  13.835 -0.2468 -0.2164 -0.0381
10536TIP3    H153099   2.271   6.655  13.815 -0.6463  1.3546  0.7310
10536TIP3    H253100   2.124   6.679  13.787 -0.8816 -0.9029 -0.0780
10537TIP3   OH253101   0.305   5.296  17.206  0.1090  0.1125 -0.0980
10537TIP3    H153102   0.343   5.253  17.129 -0.4948  0.9032 -0.8557
10537TIP3    H253103   0.340   5.248  17.280 -0.5496 -1.6761 -0.9175
10538TIP3   OH253104   5.089   5.365  11.762 -0.4688 -0.3282 -0.0601
10538TIP3    H153105   5.074   5.362  11.668  0.4058  0.6399 -0.2412
10538TIP3    H253106   5.148   5.292  11.780  2.7378  1.9677 -0.9296
10539TIP3   OH253107   0.002   4.572  14.469 -0.4173  0.7273 -0.5693
10539TIP3    H153108  -0.084   4.599  14.500 -0.6213  0.7190 -1.1093
10539TIP3    H253109   0.055   4.651  14.473 -0.8645  1.0994 -1.6357
10540TIP3   OH253110   4.550   3.761  16.800 -0.2186 -0.4988 -0.7440
10540TIP3    H153111   4.488   3.689  16.812 -1.7070  1.0411  1.1978
10540TIP3    H253112   4.585   3.776  16.887  2.2926 -0.7642 -1.6741
10541TIP3   OH253113   0.836   2.266  10.478 -0.0440 -0.1522 -0.5391
10541TIP3    H153114   0.752   2.249  10.436 -0.4402 -2.1415  0.9551
10541TIP3    H253115   0.825   2.233  10.568  2.1442  0.0486 -0.1586
10542TIP3   OH253116   0.077   1.300  16.093  0.1218 -0.0309  0.3236
10542TIP3    H153117   0.168   1.315  16.070 -0.0011  0.8792  0.4301
10542TIP3    H253118   0.080   1.232  16.160  0.7317  0.0899  0.4207
10543TIP3   OH253119   6.013   1.445   3.615 -0.2709 -0.4016 -0.0519
10543TIP3    H153120   5.987   1.409   3.700 -0.1397 -0.3710  0.0008
10543TIP3    H253121   6.028   1.369   3.560  0.7129 -0.4435  0.2660
10544TIP3   OH253122   3.706   3.920  10.242  0.5700  0.1571 -0.1524
10544TIP3    H153123   3.782   3.946  10.295  0.1760 -1.9960  1.5697
10544TIP3    H253124   3.631   3.936  10.299 -0.0174 -0.5386 -0.7237
10545TIP3   OH253125   3.730   2.735   6.424 -0.3747  0.6184 -0.1167
10545TIP3    H153126   3.691   2.733   6.512 -2.7976 -1.4043 -1.1915
10545TIP3    H253127   3.766   2.824   6.416 -0.0635  0.8159  2.9278
10546TIP3   OH253128   3.750   2.685   0.852 -0.4112 -0.4048  0.0017
10546TIP3    H153129   3.803   2.707   0.928 -1.8626 -1.9619  1.5120
10546TIP3    H253130   3.813   2.676   0.780  1.1349 -0.3900  1.3330
10547TIP3   OH253131   2.204   4.012   0.200 -0.0074 -0.5111  0.4354
10547TIP3    H153132   2.127   3.978   0.245 -0.1959 -2.3106 -1.1901
10547TIP3    H253133   2.169   4.060   0.125  0.4426 -1.1872 -0.2132
10548TIP3   OH253134   6.125   0.193   6.319 -0.2878  0.5874 -0.0791
10548TIP3    H153135   6.209   0.148   6.328 -0.5834  0.1982  0.8653
10548TIP3    H253136   6.125   0.258   6.389 -0.2007  1.5333 -0.9460
10549TIP3   OH253137   5.846   5.545  16.157  0.1893  0.2294  0.2765
10549TIP3    H153138   5.928   5.576  16.198  1.4671  0.6653 -2.4728
10549TIP3    H253139   5.789   5.622  16.158  0.9756  0.8460 -0.5912
10550TIP3   OH253140   0.931   0.831  14.405  0.0301 -0.2313 -0.0973
10550TIP3    H153141   0.894   0.782  14.478 -0.7618 -1.2972 -1.1964
10550TIP3    H253142   1.005   0.877  14.443 -2.7293  2.4518  2.3106
10551TIP3   OH253143   0.604   4.784   1.507 -0.0157  0.2059  0.3813
10551TIP3    H153144   0.568   4.776   1.595  1.3339  1.0544  1.0270
10551TIP3    H253145   0.641   4.698   1.488 -0.8828 -0.1723  0.3715
10552TIP3   OH253146   6.074   2.582   0.304  1.0839  0.9265 -0.1100
10552TIP3    H153147   6.108   2.600   0.216  0.7690  0.5911 -0.3036
10552TIP3    H253148   6.042   2.666   0.336 -0.3931  0.7165 -1.0092
10553TIP3   OH253149   6.120   1.475   3.113  0.1668  0.1001  0.3237
10553TIP3    H153150   6.200   1.503   3.157 -0.4732  0.1064  1.5057
10553TIP3    H253151   6.116   1.380   3.129  1.1192 -0.3125 -1.6885
10554TIP3   OH253152   5.471   3.975   2.360 -0.5446  0.3660 -0.5181
10554TIP3    H153153   5.533   3.973   2.287 -1.0992 -2.3751 -0.9597
10554TIP3    H253154   5.385   3.969   2.320 -0.8812 -0.5604  0.3055
10555TIP3   OH253155   0.042   3.564  13.294 -0.3295 -0.7179 -0.4574
10555TIP3    H153156   0.034   3.476  13.330  0.1177 -0.5250  0.1220
10555TIP3    H253157  -0.035   3.611  13.326 -0.1114 -0.6466 -0.0334
10556TIP3   OH253158   5.724   3.383   5.192  0.1201  0.2869  0.0080
10556TIP3    H153159   5.634   3.398   5.223  0.1034 -0.1328  0.1626
10556TIP3    H253160   5.756   3.312   5.247  0.8021  0.9393  0.4561
10557TIP3   OH253161   4.438   4.678   1.262 -0.4204 -0.1950  0.4574
10557TIP3    H153162   4.464   4.672   1.170 -1.7764 -1.4177  0.1507
10557TIP3    H253163   4.387   4.599   1.279  0.0411 -0.1317  2.3456
10558TIP3   OH253164   3.544   1.931  14.322  0.1173 -0.7625  0.2438
10558TIP3    H153165   3.488   1.917  14.398  0.4840  0.0078  0.6659
10558TIP3    H253166   3.526   1.857  14.264 -0.4129 -1.1719  0.9305
10559TIP3   OH253167   6.049   5.115   0.552 -0.1089 -0.4455  0.4594
10559TIP3    H153168   5.975   5.122   0.612  0.3768  3.3691  0.7378
10559TIP3    H253169   6.019   5.158   0.472  1.8240  1.3156  0.6341
10560TIP3   OH253170   0.920   3.389  11.554 -0.0948 -0.0428 -0.2449
10560TIP3    H153171   0.889   3.300  11.572 -1.4110  0.6798  1.2517
10560TIP3    H253172   0.972   3.382  11.474 -0.0964 -2.1710 -0.0678
10561TIP3   OH253173   2.928   6.722   4.500 -0.5063 -0.5734 -0.0946
10561TIP3    H153174   2.896   6.681   4.580  0.0437 -1.1413 -0.1670
10561TIP3    H253175   2.976   6.653   4.454  0.1662  0.0552 -0.3560
10562TIP3   OH253176   4.021   5.999   2.260 -0.7866 -0.3411  0.2204
10562TIP3    H153177   3.971   5.979   2.181 -0.2292 -0.6930 -0.0509
10562TIP3    H253178   4.044   5.913   2.296 -0.1084 -0.1936  0.1575
10563TIP3   OH253179   3.971   2.789  14.562 -1.1746 -0.7970 -0.6881
10563TIP3    H153180   4.036   2.828  14.504 -1.1304  0.2372  0.0401
10563TIP3    H253181   4.012   2.708  14.593  0.2539  0.4053  0.6560
10564TIP3   OH253182   3.433   0.485   0.420  0.3396 -0.5621 -0.1380
10564TIP3    H153183   3.385   0.566   0.436 -1.3932 -1.8503  1.4583
10564TIP3    H253184   3.381   0.440   0.353  2.0834  0.2495 -2.1014
10565TIP3   OH253185   5.880   3.592  13.633 -0.5222 -0.0758 -0.2734
10565TIP3    H153186   5.960   3.644  13.632 -0.3666 -0.2860  0.8153
10565TIP3    H253187   5.850   3.593  13.542  0.9729 -0.4008 -0.7884
10566TIP3   OH253188   3.856   4.512  11.646 -0.3351 -0.1282  0.0176
10566TIP3    H153189   3.795   4.513  11.572  1.4764  0.4739 -1.4957
10566TIP3    H253190   3.812   4.562  11.715 -1.9745 -0.5813 -0.6772
10567TIP3   OH253191   3.776   2.025   3.786 -0.2711  0.4904  0.1016
10567TIP3    H153192   3.774   1.929   3.787 -0.6739  0.4974  0.1269
10567TIP3    H253193   3.715   2.049   3.716 -0.8429  0.7447  0.6858
10568TIP3   OH253194   1.335   3.505  12.344 -0.3966 -0.7937 -0.8488
10568TIP3    H153195   1.358   3.415  12.324  0.8244 -0.3295 -1.5604
10568TIP3    H253196   1.287   3.535  12.267 -0.3265 -0.6621 -0.8408
10569TIP3   OH253197   2.945   1.677   4.487  0.3742 -0.3412 -0.4447
10569TIP3    H153198   2.946   1.624   4.407 -1.2223 -1.8831  0.5194
10569TIP3    H253199   2.852   1.694   4.503  0.7185  0.4245  0.7892
10570TIP3   OH253200   4.235   0.604   6.411 -0.0238 -0.3161 -0.0120
10570TIP3    H153201   4.259   0.628   6.321 -0.6268 -0.5096 -0.2297
10570TIP3    H253202   4.170   0.534   6.400 -1.3534  0.8044  0.5430
10571TIP3   OH253203   2.607   4.531   1.569  0.2341  0.9266  0.0834
10571TIP3    H153204   2.557   4.521   1.488  0.3823  0.7760  0.0109
10571TIP3    H253205   2.686   4.578   1.542  0.9194 -0.3369 -0.0940
10572TIP3   OH253206   6.445   0.321   3.364 -0.0115 -0.0167  0.6133
10572TIP3    H153207   6.493   0.404   3.364  0.7870 -0.4481  2.8989
10572TIP3    H253208   6.435   0.299   3.456 -2.6638 -1.0899  0.1228
10573TIP3   OH253209   2.959   1.225   1.651 -0.6013  0.3885 -0.2639
10573TIP3    H153210   3.047   1.209   1.686 -0.2008 -0.6697 -1.7092
10573TIP3    H253211   2.902   1.220   1.728  0.3193 -1.4193  0.3398
10574TIP3   OH253212   1.758   5.732  12.919 -0.4402  0.3555 -0.4770
10574TIP3    H153213   1.740   5.668  12.850  0.5865 -1.4390  0.8884
10574TIP3    H253214   1.705   5.704  12.993 -1.3090  2.1123 -0.4060
10575TIP3   OH253215   2.189   2.812   0.247 -0.1164 -0.1861 -0.0788
10575TIP3    H153216   2.175   2.717   0.242 -1.0461 -0.0820  0.3321
10575TIP3    H253217   2.234   2.835   0.166  1.1397 -1.1526  0.3332
10576TIP3   OH253218   6.766   4.040   1.139  0.2892 -0.3954  0.3428
10576TIP3    H153219   6.766   3.955   1.096 -0.5641 -0.4046  0.3600
10576TIP3    H253220   6.733   4.023   1.227  1.5127 -0.2829  0.8398
10577TIP3   OH253221   6.700   5.087   5.264  0.2701  0.4833  0.2368
10577TIP3    H153222   6.741   5.027   5.326  0.2366  0.7215  0.4902
10577TIP3    H253223   6.756   5.165   5.266 -0.5917  1.0852  1.1047
10578TIP3   OH253224   5.634   5.716  16.157 -0.2977  0.0557 -0.2045
10578TIP3    H153225   5.584   5.635  16.169 -0.8608  0.5718  1.0672
10578TIP3    H253226   5.568   5.785  16.158  0.4998  0.8478  2.6755
10579TIP3   OH253227   6.398   3.909   4.332 -0.3327 -0.1706  0.5480
10579TIP3    H153228   6.461   3.840   4.351 -0.1120  0.2061  1.2198
10579TIP3    H253229   6.353   3.923   4.415 -0.4482  0.4222  0.3862
10580TIP3   OH253230   2.593   1.689  14.244  0.0657  0.1047  0.2336
10580TIP3    H153231   2.507   1.721  14.219  0.5434  0.2652 -1.2553
10580TIP3    H253232   2.652   1.722  14.175  1.1731 -0.7079  0.7778
10581TIP3   OH253233   0.714   4.583  11.253 -0.1672 -0.0176  0.0090
10581TIP3    H153234   0.633   4.632  11.267 -0.0756 -0.1089  0.8762
10581TIP3    H253235   0.692   4.521  11.183 -1.1360 -0.6871  0.8912
10582TIP3   OH253236   6.345   4.547  11.993  0.4745  0.3368  0.8335
10582TIP3    H153237   6.314   4.587  11.912  1.7965  0.4584  0.3711
10582TIP3    H253238   6.279   4.481  12.015  0.2339  0.1404 -0.4743
10583TIP3   OH253239   2.411   4.781  17.018 -0.3281  0.2574  0.5646
10583TIP3    H153240   2.412   4.870  17.055  1.2301  0.3187  0.3719
10583TIP3    H253241   2.499   4.767  16.986 -0.7673 -1.1045 -0.0715
10584TIP3   OH253242   6.432   6.534   1.571 -0.7309  0.1788 -0.0187
10584TIP3    H153243   6.525   6.518   1.587 -1.1833 -3.2043 -0.3212
10584TIP3    H253244   6.430   6.604   1.506  1.6111  0.0479 -0.2699
10585TIP3   OH253245   0.730   5.176  16.447  0.0564 -0.7096  0.5186
10585TIP3    H153246   0.779   5.120  16.387  1.4421  1.2659 -0.2705
10585TIP3    H253247   0.790   5.248  16.467 -2.3534  1.5748 -0.1501
10586TIP3   OH253248   4.849   2.573  13.233  0.4090 -0.5525  0.2390
10586TIP3    H153249   4.917   2.545  13.171  1.4564 -3.0811  2.4191
10586TIP3    H253250   4.876   2.661  13.260  0.7314 -0.0180 -1.7556
10587TIP3   OH253251   3.206   5.242  12.505 -0.1566 -0.0410  0.0335
10587TIP3    H153252   3.282   5.192  12.475 -0.0750 -0.8722  1.5427
10587TIP3    H253253   3.131   5.194  12.471 -0.0381 -0.2198  0.0243
10588TIP3   OH253254   0.166   4.988   0.302  0.5418 -0.0156  0.4883
10588TIP3    H153255   0.115   4.908   0.296 -0.6693  0.7961 -0.2523
10588TIP3    H253256   0.136   5.030   0.382 -0.9455  1.1081 -0.6241
10589TIP3   OH253257   2.752   1.969  11.080 -0.3775  0.1286 -0.6331
10589TIP3    H153258   2.748   2.031  11.008  0.2900  2.3629  1.2035
10589TIP3    H253259   2.839   1.981  11.118  0.0945 -2.5522 -0.7424
10590TIP3   OH253260   2.129   2.979  12.022 -0.2872 -0.0319 -1.0051
10590TIP3    H153261   2.124   3.049  11.958  1.3996 -0.1109 -1.2372
10590TIP3    H253262   2.218   2.983  12.056 -1.3014  0.3844  1.7829
10591TIP3   OH253263   3.692   2.268   5.345 -0.3830 -0.3473  0.0670
10591TIP3    H153264   3.636   2.276   5.423 -1.7679 -1.5334 -0.7959
10591TIP3    H253265   3.652   2.198   5.294  1.6687 -0.9127 -0.7747
10592TIP3   OH253266   4.674   4.670  17.110 -0.5543 -0.5521  0.8490
10592TIP3    H153267   4.592   4.669  17.062 -1.1554  2.2634  1.6996
10592TIP3    H253268   4.712   4.756  17.090  2.7252 -2.1851 -0.3836
10593TIP3   OH253269   5.969   6.563  14.887  0.1180  0.0413 -0.2203
10593TIP3    H153270   5.973   6.603  14.974 -0.4506  3.1837 -1.5590
10593TIP3    H253271   5.876   6.570  14.862  0.1974 -1.2155 -0.9176
10594TIP3   OH253272   4.782   2.475  14.476  0.8256 -0.6085 -0.0971
10594TIP3    H153273   4.841   2.465  14.550  2.0380  0.7302 -0.8495
10594TIP3    H253274   4.824   2.541  14.420 -0.4277 -1.0349 -1.5987
10595TIP3   OH253275   1.436   0.095   0.230  0.2631 -0.2334  0.2558
10595TIP3    H153276   1.490   0.021   0.258 -0.2268 -0.4028  0.7640
10595TIP3    H253277   1.380   0.114   0.305  1.0170  1.2528  0.4519
10596TIP3   OH253278   2.073   1.612   2.861  0.4954  0.5163 -0.2663
10596TIP3    H153279   1.981   1.621   2.886  0.7573  0.8579  0.5980
10596TIP3    H253280   2.096   1.697   2.823  0.7338  0.7790  0.4600
10597TIP3   OH253281   6.266   4.446   4.663 -0.3865 -0.2054  0.1507
10597TIP3    H153282   6.250   4.452   4.757  1.2232  0.1897  0.4129
10597TIP3    H253283   6.329   4.516   4.645  0.6895 -1.4144 -0.9070
10598TIP3   OH253284   6.531   2.889  13.561 -0.4247 -0.2296  0.0045
10598TIP3    H153285   6.592   2.952  13.600 -0.9296 -0.6537  1.4900
10598TIP3    H253286   6.500   2.933  13.481 -0.6694  1.3617  0.9543
10599TIP3   OH253287   0.576   5.040   3.596  0.9459 -0.1197 -0.0200
10599TIP3    H153288   0.639   4.998   3.653  0.3920  0.1223  0.7893
10599TIP3    H253289   0.615   5.038   3.509  1.6295 -0.8308  0.3103
10600TIP3   OH253290   4.630   4.346  11.866 -0.2648  0.1838  0.3494
10600TIP3    H153291   4.535   4.353  11.867 -0.2242  0.6941  0.4657
10600TIP3    H253292   4.647   4.254  11.846 -0.7867 -0.0655  1.0507
10601TIP3   OH253293   5.347   6.375  12.273 -0.3495 -0.0123  0.5493
10601TIP3    H153294   5.328   6.465  12.297  1.3907  0.4220  0.3761
10601TIP3    H253295   5.433   6.378  12.231 -0.1209 -1.7881  0.8148
10602TIP3   OH253296   3.985   3.749   1.086  0.1401 -0.0890 -0.0395
10602TIP3    H153297   3.997   3.836   1.122 -0.2201  0.1018 -0.3717
10602TIP3    H253298   3.924   3.761   1.013 -0.0819 -0.6459  0.0481
10603TIP3   OH253299   4.412   5.694  15.662  0.7355 -0.2130 -0.1654
10603TIP3    H153300   4.341   5.636  15.688  1.3571 -1.1681 -0.6020
10603TIP3    H253301   4.382   5.732  15.579 -0.1812  0.9947  0.7054
10604TIP3   OH253302   3.570   2.195   5.638 -0.3097 -0.1743 -0.5445
10604TIP3    H153303   3.599   2.104   5.640  0.3262  0.0003 -1.6140
10604TIP3    H253304   3.475   2.191   5.653 -0.2302 -0.9786 -0.2553
10605TIP3   OH253305   0.867   0.701   3.230  0.5218  0.5295 -0.2052
10605TIP3    H153306   0.909   0.640   3.169  1.5872 -0.7532  1.7741
10605TIP3    H253307   0.934   0.720   3.295 -0.2653  2.7279 -0.0177
10606TIP3   OH253308   3.895   5.788   0.134 -0.2142 -0.9198  0.4038
10606TIP3    H153309   3.932   5.700   0.132  2.1562  0.0297  0.9669
10606TIP3    H253310   3.944   5.833   0.202  0.5465  1.6850 -1.8133
10607TIP3   OH253311   3.132   4.107  12.672  0.2221  0.1413 -0.2954
10607TIP3    H153312   3.040   4.104  12.646  0.7621 -1.0273 -2.1405
10607TIP3    H253313   3.129   4.106  12.768 -1.6237 -1.9858 -0.3360
10608TIP3   OH253314   1.348   3.645   3.862 -0.1329  0.4534  0.5411
10608TIP3    H153315   1.265   3.647   3.814  0.0727 -0.1013  0.1517
10608TIP3    H253316   1.330   3.594   3.940 -1.2064  3.6710  2.4936
10609TIP3   OH253317   6.208   0.113  12.023  0.0407  0.2984 -0.0840
10609TIP3    H153318   6.214   0.197  11.979  1.4705  1.1212  1.6335
10609TIP3    H253319   6.209   0.134  12.116 -0.3782 -1.5608  0.3682
10610TIP3   OH253320   0.434   4.560  16.070  0.3989 -0.0928  0.0469
10610TIP3    H153321   0.489   4.595  16.000  1.2820 -1.9186 -0.1890
10610TIP3    H253322   0.479   4.481  16.099 -0.5696 -0.0084  1.8813
10611TIP3   OH253323   1.890   2.398  15.663  0.0454 -0.0208  0.6272
10611TIP3    H153324   1.877   2.456  15.588 -0.0409  0.8614  1.3101
10611TIP3    H253325   1.910   2.313  15.625 -3.4794 -0.4563 -0.4992
10612TIP3   OH253326   4.033   3.104   5.441  0.2129  0.2533  0.3890
10612TIP3    H153327   3.953   3.060   5.470  0.1652  0.6091  0.8128
10612TIP3    H253328   4.094   3.033   5.421 -0.2310 -0.0230 -0.0112
10613TIP3   OH253329   5.129   4.565   2.551 -0.1797 -0.1576  0.0437
10613TIP3    H153330   5.173   4.603   2.476  0.5902  0.2247  0.6837
10613TIP3    H253331   5.175   4.483   2.568 -0.4162 -0.2939  0.0432
10614TIP3   OH253332   5.373   4.845   0.760 -0.1338  0.2635 -0.0688
10614TIP3    H153333   5.277   4.855   0.757 -0.1419  0.0577 -0.5521
10614TIP3    H253334   5.394   4.797   0.680  0.1951 -1.2512  0.9230
10615TIP3   OH253335   6.283   3.740   2.811 -0.3247 -0.1407  0.2662
10615TIP3    H153336   6.357   3.687   2.779 -0.4723  0.3555 -0.9121
10615TIP3    H253337   6.210   3.678   2.815  0.0443 -0.5370  1.0292
10616TIP3   OH253338   1.964   5.840  14.724  0.2890  0.4964 -0.4640
10616TIP3    H153339   1.882   5.843  14.774  1.6295  0.2727  1.8433
10616TIP3    H253340   1.943   5.790  14.646 -2.0590  1.4188 -0.4420
10617TIP3   OH253341   0.346   3.189  16.986  0.3046  0.1940 -0.4116
10617TIP3    H153342   0.288   3.119  16.956 -0.4585 -0.3725  2.2394
10617TIP3    H253343   0.303   3.270  16.958  0.1032 -0.3443 -1.6518
10618TIP3   OH253344   6.070   2.780   0.553 -0.7024 -0.2095 -0.3569
10618TIP3    H153345   6.053   2.856   0.497 -0.9373 -0.4997 -0.6764
10618TIP3    H253346   6.139   2.809   0.612  0.3710 -0.2925 -1.5671
10619TIP3   OH253347   5.194   1.482   1.145  0.0971  0.2612 -0.0913
10619TIP3    H153348   5.263   1.418   1.161  0.6766  0.0910 -3.0624
10619TIP3    H253349   5.230   1.565   1.177  0.3801 -0.3722  1.2991
10620TIP3   OH253350   1.369   1.425   4.062  0.0028  0.5441 -0.0447
10620TIP3    H153351   1.359   1.437   3.968  1.5054 -1.8030 -0.5508
10620TIP3    H253352   1.459   1.394   4.073  0.1462  1.6619  2.2571
10621TIP3   OH253353   4.260   3.829   5.670  0.2573 -0.2309  0.0126
10621TIP3    H153354   4.343   3.869   5.646  0.0308  0.3496  0.1926
10621TIP3    H253355   4.274   3.796   5.759  0.9543 -1.9908 -0.7103
10622TIP3   OH253356   5.595   5.380  15.645 -0.5328 -0.3946  0.4571
10622TIP3    H153357   5.579   5.329  15.566  1.1036  1.3996 -1.0907
10622TIP3    H253358   5.669   5.336  15.687 -1.2478 -1.2036  0.8954
10623TIP3   OH253359   4.142   2.694   0.979  0.4968 -0.2701 -0.2944
10623TIP3    H153360   4.178   2.685   1.067 -0.8585 -0.8102  0.2207
10623TIP3    H253361   4.182   2.623   0.928  1.3637  0.1116 -0.1487
10624TIP3   OH253362   3.792   0.234   3.046  0.2434  0.2367 -0.3519
10624TIP3    H153363   3.866   0.269   3.095  0.6310 -1.0174 -0.0103
10624TIP3    H253364   3.764   0.306   2.990  2.9865  0.1243 -1.9356
10625TIP3   OH253365   4.858   4.936  14.738  0.4401 -0.1189 -0.4340
10625TIP3    H153366   4.769   4.972  14.744  0.5730  0.1574 -0.0371
10625TIP3    H253367   4.915   5.013  14.748  0.7272 -0.4035  0.1038
10626TIP3   OH253368   6.669   4.580   5.191  0.0033  0.2855 -0.5089
10626TIP3    H153369   6.696   4.558   5.280  1.5358 -1.0604 -1.2696
10626TIP3    H253370   6.581   4.542   5.182  0.3650 -0.6949  0.0205
10627TIP3   OH253371   3.444   0.638  15.257  0.7276  0.5765 -0.0255
10627TIP3    H153372   3.366   0.632  15.200 -0.2104  2.5521  0.9895
10627TIP3    H253373   3.490   0.716  15.225  0.5898  1.2617  1.4276
10628TIP3   OH253374   0.748   4.980   4.173 -0.2327 -0.4237  1.0727
10628TIP3    H153375   0.700   4.916   4.120 -1.1012  0.8437  0.3090
10628TIP3    H253376   0.680   5.030   4.218  0.4343  0.0590  1.5534
10629TIP3   OH253377   5.874   1.012   5.409 -0.7124  0.2262 -0.2677
10629TIP3    H153378   5.873   0.931   5.359 -1.0931 -0.7921  1.3753
10629TIP3    H253379   5.853   0.986   5.499 -0.8990  2.1360  0.2707
10630TIP3   OH253380   3.412   2.358  16.695  0.0176 -0.7623 -0.1201
10630TIP3    H153381   3.369   2.294  16.752  0.2734 -1.3074 -0.5352
10630TIP3    H253382   3.360   2.357  16.615  0.5332 -1.0990 -0.4584
10631TIP3   OH253383   6.126   0.536  12.363  1.2185 -0.5147 -0.0242
10631TIP3    H153384   6.065   0.477  12.407  0.6050  1.0020  1.2050
10631TIP3    H253385   6.209   0.522  12.409  1.3299 -1.1707 -0.4192
10632TIP3   OH253386   3.165   4.355   4.547 -0.8025 -0.2545  0.6994
10632TIP3    H153387   3.200   4.354   4.457 -0.2964 -1.2885  0.9050
10632TIP3    H253388   3.124   4.441   4.555  2.6354  1.4833  0.7765
10633TIP3   OH253389   5.435   3.934  14.166 -0.1565  0.4303 -1.1389
10633TIP3    H153390   5.491   3.957  14.240 -0.8741 -1.4881  0.0289
10633TIP3    H253391   5.359   3.990  14.176 -0.9086 -0.8217  0.4461
10634TIP3   OH253392   3.877   2.309   0.801 -0.7163  0.5672 -0.0204
10634TIP3    H153393   3.783   2.308   0.820 -0.5479 -0.4301  0.7950
10634TIP3    H253394   3.882   2.302   0.706 -1.4747  1.0966 -0.1107
10635TIP3   OH253395   3.046   3.331  12.082  0.0421  0.0676 -0.7627
10635TIP3    H153396   2.954   3.311  12.103 -1.3069  3.4331 -3.0921
10635TIP3    H253397   3.069   3.266  12.015 -0.3937 -1.2065  0.2889
10636TIP3   OH253398   2.082   3.065   5.971 -0.0102 -0.0516  0.3741
10636TIP3    H153399   2.042   2.993   5.921 -0.5220  1.9846 -2.2909
10636TIP3    H253400   2.008   3.113   6.007  0.2106  0.9554 -0.5159
10637TIP3   OH253401   3.096   0.281  14.538 -0.4945  0.2730  0.1112
10637TIP3    H153402   3.051   0.348  14.487  0.0073 -0.3942 -1.2526
10637TIP3    H253403   3.076   0.302  14.629  0.9609  3.2022 -0.1922
10638TIP3   OH253404   3.722   3.358  17.098  0.3505 -0.1127 -0.4013
10638TIP3    H153405   3.804   3.311  17.118 -0.1599 -0.7640  0.1834
10638TIP3    H253406   3.738   3.447  17.128  0.0339 -0.7825  1.8333
10639TIP3   OH253407   5.797   3.442  11.955  0.7312  0.0850  0.2226
10639TIP3    H153408   5.881   3.445  11.910  0.4044  1.9401 -0.2963
10639TIP3    H253409   5.794   3.521  12.008 -0.8455  0.2510 -0.0792
10640TIP3   OH253410   4.872   3.474   1.563 -0.3059 -0.6674 -0.3614
10640TIP3    H153411   4.943   3.513   1.614 -0.7449  0.2532 -0.4434
10640TIP3    H253412   4.896   3.490   1.471  0.2511 -1.9089 -0.4459
10641TIP3   OH253413   2.001   0.027  12.942  0.2787  0.4902 -0.1098
10641TIP3    H153414   1.978   0.118  12.959 -0.7529 -0.0601  1.4736
10641TIP3    H253415   2.075   0.033  12.881  0.2815  2.3769  0.0410
10642TIP3   OH253416   3.330   1.489  15.336  0.6118  0.0364 -0.1416
10642TIP3    H153417   3.399   1.425  15.356  1.8051  1.3505  0.0779
10642TIP3    H253418   3.329   1.494  15.240  0.8175  0.0034 -0.1467
10643TIP3   OH253419   4.081   6.751   1.387 -0.2862  0.2503 -0.4439
10643TIP3    H153420   4.061   6.820   1.323 -0.1039 -0.2750 -1.0810
10643TIP3    H253421   4.106   6.676   1.333  0.0139 -0.1560  0.2551
10644TIP3   OH253422   0.581   5.402  17.236 -0.4960 -0.4872 -0.3067
10644TIP3    H153423   0.632   5.329  17.201 -0.2623 -0.3758 -0.2026
10644TIP3    H253424   0.507   5.360  17.281 -0.0633 -0.6916  0.2308
10645TIP3   OH253425   2.785   4.502   5.157 -0.3550 -0.5022  0.1801
10645TIP3    H153426   2.725   4.431   5.179 -0.3897 -0.3082  0.7053
10645TIP3    H253427   2.779   4.563   5.230 -0.3769  0.0782 -0.3047
10646TIP3   OH253428   3.629   2.497   5.168 -0.4548 -0.6736 -0.0385
10646TIP3    H153429   3.600   2.433   5.103 -1.5064 -1.7821  1.4941
10646TIP3    H253430   3.622   2.451   5.252  0.8797  0.7325  0.8683
10647TIP3   OH253431   1.006   4.206   1.024  0.1682 -0.6779 -0.2436
10647TIP3    H153432   0.946   4.238   1.092  1.0218 -1.4132  0.8683
10647TIP3    H253433   0.971   4.243   0.943 -1.2491 -0.3153  0.5040
10648TIP3   OH253434   2.798   5.156  15.370  0.1889 -0.6143  0.3037
10648TIP3    H153435   2.781   5.152  15.464 -1.5311 -0.0770  0.0442
10648TIP3    H253436   2.841   5.241  15.357  2.1713 -1.5274  0.8457
10649TIP3   OH253437   3.674   2.814  15.991  0.2086  0.6361  0.3209
10649TIP3    H153438   3.635   2.896  16.022  0.7059  1.0968 -0.2570
10649TIP3    H253439   3.735   2.841  15.922 -2.0314 -0.5163 -2.1860
10650TIP3   OH253440   1.254   5.854   3.382  0.0461 -0.1595  0.3256
10650TIP3    H153441   1.160   5.845   3.367 -0.3344 -0.0073  2.3805
10650TIP3    H253442   1.284   5.767   3.406 -0.5500  0.6346  4.3926
10651TIP3   OH253443   4.048   5.784  14.813  0.5306 -0.1072  0.1194
10651TIP3    H153444   4.040   5.873  14.849 -2.4923 -0.2012 -0.2044
10651TIP3    H253445   3.998   5.729  14.873  0.9911 -1.3324 -0.6025
10652TIP3   OH253446   5.633   0.204  13.925  0.1188  0.5366  0.1504
10652TIP3    H153447   5.609   0.270  13.860  0.5823  0.5339 -0.0276
10652TIP3    H253448   5.573   0.131  13.909 -0.0264  0.6939 -0.0217
10653TIP3   OH253449   0.874   3.738  11.778  0.2600 -0.3013  0.2274
10653TIP3    H153450   0.850   3.771  11.865 -0.8417 -0.6201  0.0534
10653TIP3    H253451   0.903   3.815  11.730  0.5810 -0.0737  0.7799
10654TIP3   OH253452   5.299   3.910  15.841  0.4323  0.4544 -0.4371
10654TIP3    H153453   5.361   3.843  15.813  0.2109 -0.3315  0.8719
10654TIP3    H253454   5.214   3.879  15.810  0.0297 -0.9784  1.9607
10655TIP3   OH253455   5.140   3.001  12.091 -0.3820  0.0050 -0.0179
10655TIP3    H153456   5.094   3.083  12.074  0.5964  0.0319 -2.8086
10655TIP3    H253457   5.187   3.016  12.172 -1.7460  1.5266  0.5200
10656TIP3   OH253458   3.906   4.622  12.242  0.2349  0.6195 -0.8002
10656TIP3    H153459   3.828   4.587  12.199  1.5449 -1.1643 -1.7713
10656TIP3    H253460   3.914   4.711  12.209 -0.6962  0.4010 -1.6232
10657TIP3   OH253461   0.428   3.491   4.454 -0.1576  0.7753  0.0061
10657TIP3    H153462   0.345   3.474   4.496  1.2041  0.1946  2.5357
10657TIP3    H253463   0.445   3.413   4.401  0.5989 -0.8780  2.5684
10658TIP3   OH253464   6.289   5.416  14.471  0.2323  0.1227 -0.2795
10658TIP3    H153465   6.208   5.427  14.523  0.3031  0.3485 -0.2132
10658TIP3    H253466   6.337   5.497  14.486 -0.0882  0.5047 -1.3063
10659TIP3   OH253467   0.115   0.919  16.889 -0.5617 -0.0903  0.3633
10659TIP3    H153468   0.158   0.928  16.804  0.6616  2.0601  1.1601
10659TIP3    H253469   0.036   0.869  16.871  0.3328 -0.8035 -1.8101
10660TIP3   OH253470   2.071   6.096  15.772  0.2738  0.0417  0.5402
10660TIP3    H153471   1.985   6.068  15.740 -0.1178  0.1690  1.4632
10660TIP3    H253472   2.124   6.016  15.772 -0.5192 -0.5029  2.1299
10661TIP3   OH253473   6.590   0.151   5.936  0.0588 -0.5728  0.4214
10661TIP3    H153474   6.661   0.209   5.908 -0.3766 -0.1973  0.0953
10661TIP3    H253475   6.608   0.134   6.029  1.2628 -1.4758  0.0426
10662TIP3   OH253476   0.887   3.790   5.720 -0.3901  0.1830 -0.1136
10662TIP3    H153477   0.849   3.865   5.675 -0.1598  0.5594  0.3203
10662TIP3    H253478   0.914   3.824   5.805 -2.2059 -0.8674  0.9240
10663TIP3   OH253479   1.487   1.064   1.996 -0.1453  0.3064  0.2441
10663TIP3    H153480   1.556   1.053   1.932 -0.4075  2.9626 -0.5425
10663TIP3    H253481   1.510   1.143   2.044 -2.8010  1.4833 -0.3089
10664TIP3   OH253482   3.641   1.980   5.888 -0.4482 -0.2836 -0.1439
10664TIP3    H153483   3.714   2.041   5.875 -1.2288  1.5927  3.4340
10664TIP3    H253484   3.679   1.908   5.938 -0.9624  0.6748  1.6855
10665TIP3   OH253485   5.828   6.535   0.568 -0.5571  0.2549  0.2453
10665TIP3    H153486   5.787   6.596   0.507 -0.2157 -1.0522 -1.3486
10665TIP3    H253487   5.757   6.504   0.623 -0.7689  1.8943  0.9161
10666TIP3   OH253488   6.207   2.956   3.242  0.3550  0.3187 -0.3841
10666TIP3    H153489   6.251   2.978   3.324  2.1039 -0.1061 -1.1889
10666TIP3    H253490   6.216   3.034   3.188 -1.2302  0.7787 -0.0114
10667TIP3   OH253491   1.850   6.180   5.937  0.4383  0.3706  0.0458
10667TIP3    H153492   1.769   6.186   5.988  1.1291  1.4336  1.0576
10667TIP3    H253493   1.885   6.270   5.938  1.9065 -0.1896  0.0842
10668TIP3   OH253494   2.210   6.497   6.717  0.4828 -0.5450  0.3127
10668TIP3    H153495   2.173   6.441   6.786 -1.2408  0.3588  0.1454
10668TIP3    H253496   2.157   6.576   6.720 -0.3372 -0.9203 -2.7900
10669TIP3   OH253497   2.007   2.837   4.723  0.7354 -0.5726  0.2355
10669TIP3    H153498   1.973   2.760   4.677  0.0476  0.0315 -0.2836
10669TIP3    H253499   2.100   2.839   4.701  0.3773 -0.1607 -1.3702
10670TIP3   OH253500   1.769   0.729   1.811  0.5016  0.2496 -0.2338
10670TIP3    H153501   1.802   0.640   1.801 -0.1951  0.1900 -2.2497
10670TIP3    H253502   1.674   0.721   1.802  0.4136  1.1460 -0.1397
10671TIP3   OH253503   0.236   2.126  16.967 -0.1906 -0.1653  0.1014
10671TIP3    H153504   0.273   2.063  16.905 -0.6598 -1.2152  0.8676
10671TIP3    H253505   0.141   2.113  16.961 -0.2936  0.5825  0.1425
10672TIP3   OH253506   3.080   3.506   3.839 -0.0211 -0.2759 -0.4181
10672TIP3    H153507   3.014   3.444   3.807 -0.8147  0.1552  0.3421
10672TIP3    H253508   3.037   3.592   3.832  0.0535 -0.0954  1.0691
10673TIP3   OH253509   2.152   3.718   5.599 -0.8252  0.4810 -0.0123
10673TIP3    H153510   2.238   3.745   5.630 -1.6377  1.6621  1.2732
10673TIP3    H253511   2.165   3.699   5.506  0.6271  1.5631 -0.0483
10674TIP3   OH253512   3.250   4.201  14.643  0.1311 -0.0324  0.3609
10674TIP3    H153513   3.215   4.113  14.633 -2.0199  0.5580  2.3205
10674TIP3    H253514   3.200   4.255  14.581  1.3607 -0.1411 -0.7494
10675TIP3   OH253515   3.058   5.611  12.085 -0.0477  0.1616  0.0187
10675TIP3    H153516   3.093   5.588  11.999  2.0800  0.6153  0.7485
10675TIP3    H253517   3.009   5.693  12.069 -1.3264 -0.7819 -1.1048
10676TIP3   OH253518   1.881   1.365   5.175  0.4095  0.2386  0.9546
10676TIP3    H153519   1.920   1.296   5.122  0.6914 -0.4614  2.0473
10676TIP3    H253520   1.852   1.321   5.254 -2.8125  0.6898  0.1033
10677TIP3   OH253521   2.458   4.608   2.162 -0.2560 -0.3949  0.1171
10677TIP3    H153522   2.443   4.575   2.074 -1.4541 -1.5140  0.7240
10677TIP3    H253523   2.446   4.531   2.218  0.4795  0.3100  1.2494
10678TIP3   OH253524   1.981   5.736   0.934 -0.1215 -0.2532 -0.1522
10678TIP3    H153525   1.890   5.740   0.905  0.1487  2.7231 -0.7373
10678TIP3    H253526   2.004   5.643   0.929 -3.2083 -1.0717  0.3547
10679TIP3   OH253527   2.464   0.197   1.479  0.1609  0.1229  0.3483
10679TIP3    H153528   2.519   0.134   1.527  2.9749  0.2497 -2.5391
10679TIP3    H253529   2.452   0.157   1.393 -2.9757  0.9083  0.3409
10680TIP3   OH253530   5.211   2.350  13.604  0.3755 -0.0901 -0.1807
10680TIP3    H153531   5.216   2.440  13.634  0.0059  0.3282 -1.3386
10680TIP3    H253532   5.274   2.345  13.531 -0.7413 -0.3273 -1.1514
10681TIP3   OH253533   3.551   6.148  14.551  0.3550  0.2446 -0.0289
10681TIP3    H153534   3.597   6.218  14.504 -0.8223  2.0030  1.3791
10681TIP3    H253535   3.549   6.178  14.642  1.6690 -2.6138  0.9907
10682TIP3   OH253536   3.675   0.349   5.172 -0.5710 -0.1410  0.3138
10682TIP3    H153537   3.588   0.335   5.210 -0.2864 -2.2606  0.2474
10682TIP3    H253538   3.721   0.403   5.237 -1.0634 -1.2471  1.6112
10683TIP3   OH253539   2.383   3.982  10.924 -0.1981 -0.0001 -0.5151
10683TIP3    H153540   2.358   3.929  10.848 -0.9614  0.9670 -0.9523
10683TIP3    H253541   2.378   4.072  10.892 -0.1640  0.3898  0.5843
10684TIP3   OH253542   0.554   5.383   6.330  1.0697  0.2498 -0.2054
10684TIP3    H153543   0.599   5.300   6.342  0.2138  0.0543  1.7735
10684TIP3    H253544   0.462   5.358   6.319  0.6683  1.0020  1.4541
10685TIP3   OH253545   6.785   3.535  12.435  0.0658  0.1715 -0.3002
10685TIP3    H153546   6.828   3.501  12.357 -0.5876  0.4187 -0.7719
10685TIP3    H253547   6.856   3.574  12.486  0.6374 -0.8639 -0.3024
10686TIP3   OH253548   0.702   6.445  17.048  0.6706  0.0485  0.3369
10686TIP3    H153549   0.633   6.467  16.985  0.8186 -1.7845 -0.4970
10686TIP3    H253550   0.758   6.383  17.001  2.4403  0.8956  1.2828
10687TIP3   OH253551   1.440   0.201  12.623  0.6358 -0.0331  0.4983
10687TIP3    H153552   1.470   0.151  12.699 -2.3357  0.1243  1.8702
10687TIP3    H253553   1.479   0.157  12.548  0.5709 -2.5493  1.8830
10688TIP3   OH253554   3.529   1.450   6.234  0.8912  0.0912 -0.0985
10688TIP3    H153555   3.529   1.527   6.178  1.5397  0.3115  0.2028
10688TIP3    H253556   3.591   1.390   6.191 -0.9688 -0.9951 -1.3332
10689TIP3   OH253557   5.557   3.591  12.183  0.2930  0.0433  0.1228
10689TIP3    H153558   5.583   3.618  12.095  0.3034 -1.6619 -0.4260
10689TIP3    H253559   5.496   3.659  12.212 -0.6783  0.0075 -1.7060
10690TIP3   OH253560   5.050   5.798  12.335  0.0722  0.1022  0.2732
10690TIP3    H153561   5.093   5.739  12.398  0.8744 -1.4550 -1.6845
10690TIP3    H253562   5.076   5.764  12.249 -2.3562  1.1867 -0.9205
10691TIP3   OH253563   1.471   0.256   4.046  0.3096 -0.5533 -0.3012
10691TIP3    H153564   1.476   0.171   4.091  2.0945  0.3094  1.2046
10691TIP3    H253565   1.507   0.319   4.109 -1.6893  1.4655 -1.1121
10692TIP3   OH253566   6.792   4.087  12.076  0.1439  0.0935 -0.2003
10692TIP3    H153567   6.886   4.092  12.060  0.4803 -0.8091  1.3561
10692TIP3    H253568   6.783   4.106  12.170 -1.2534  0.4478 -0.4010
10693TIP3   OH253569   0.561   3.688  16.006  0.1012 -0.4657 -0.4899
10693TIP3    H153570   0.521   3.654  15.926 -0.5871 -0.2660 -0.2292
10693TIP3    H253571   0.652   3.657  16.002 -0.4783 -2.2251 -0.3196
10694TIP3   OH253572   1.768   0.429  14.194 -0.7902 -0.2791 -0.2030
10694TIP3    H153573   1.821   0.375  14.254 -0.6108  0.3062  0.1644
10694TIP3    H253574   1.694   0.458  14.247  0.3736  1.8526  0.3237
10695TIP3   OH253575   3.333   0.047  10.831 -0.4261  0.6210  0.2483
10695TIP3    H153576   3.401  -0.020  10.843  1.7556  2.9820  1.7505
10695TIP3    H253577   3.335   0.066  10.737 -0.7198 -0.9954 -0.1177
10696TIP3   OH253578   5.104   4.161   2.443 -0.3947 -0.7161  0.7942
10696TIP3    H153579   5.135   4.179   2.532 -0.5451 -0.0032  0.7046
10696TIP3    H253580   5.046   4.234   2.422 -1.4525 -1.5723  0.6228
10697TIP3   OH253581   3.229   5.618   3.822  0.2049  0.1400 -0.0389
10697TIP3    H153582   3.177   5.684   3.779 -1.3841 -1.2545 -0.2986
10697TIP3    H253583   3.318   5.632   3.789  0.5108  4.0653  2.2438
10698TIP3   OH253584   6.280   6.197  15.787  0.2800 -0.0791  0.3025
10698TIP3    H153585   6.340   6.125  15.805 -1.4163 -1.8166 -0.8070
10698TIP3    H253586   6.215   6.191  15.858 -0.5896 -0.4687 -0.5179
10699TIP3   OH253587   5.918   0.615   1.408 -0.4741 -0.1121 -0.0631
10699TIP3    H153588   5.912   0.629   1.313 -3.4572 -0.3161  0.0467
10699TIP3    H253589   6.002   0.654   1.433  2.1036 -3.2964 -3.2984
10700TIP3   OH253590   3.339   3.648  13.131 -0.3160 -0.0381  0.5519
10700TIP3    H153591   3.396   3.571  13.128 -0.1835  0.0449  0.9478
10700TIP3    H253592   3.384   3.713  13.077  0.1880  0.1798  1.2382
10701TIP3   OH253593   4.663   0.646   3.177  0.1073  0.6931  0.2962
10701TIP3    H153594   4.715   0.582   3.129  1.7988  1.0545  1.6079
10701TIP3    H253595   4.681   0.628   3.269 -3.0742  0.0201  0.8664
10702TIP3   OH253596   0.327   2.108   4.315 -0.1448 -0.7415 -0.2768
10702TIP3    H153597   0.299   2.147   4.232 -0.2649  0.1243  0.1717
10702TIP3    H253598   0.422   2.100   4.307  0.0199  0.7715  0.1137
10703TIP3   OH253599   2.105   4.211  14.980 -0.0138 -0.1959 -0.0972
10703TIP3    H153600   2.109   4.299  15.017  0.8195  0.0010 -0.6397
10703TIP3    H253601   2.101   4.225  14.885  0.4930 -0.7511 -0.2027
10704TIP3   OH253602   5.789   2.056   3.045  0.2054  0.0369 -0.3600
10704TIP3    H153603   5.768   2.012   3.127  1.5085 -0.2432 -0.1580
10704TIP3    H253604   5.885   2.058   3.043  0.1888 -0.1192 -1.9621
10705TIP3   OH253605   1.627   5.228   5.611 -0.4166 -0.2079  0.6572
10705TIP3    H153606   1.535   5.249   5.596 -0.7152 -1.0239  1.3572
10705TIP3    H253607   1.653   5.179   5.533 -1.3046 -2.3077  1.6764
10706TIP3   OH253608   4.304   5.185   0.081 -0.2688  0.3227  0.5562
10706TIP3    H153609   4.356   5.261   0.055 -1.4116  1.1814  0.7288
10706TIP3    H253610   4.316   5.179   0.176  1.2080 -0.7764  0.3187
10707TIP3   OH253611   6.790   6.482   3.894  0.0344  0.1363 -0.0062
10707TIP3    H153612   6.702   6.481   3.856 -0.1585  1.1327  0.3877
10707TIP3    H253613   6.779   6.449   3.983 -0.1443  1.2823  0.4170
10708TIP3   OH253614   3.783   5.984   3.776  0.4506 -0.1540  0.2151
10708TIP3    H153615   3.774   6.067   3.822 -0.0908  0.3273 -0.7461
10708TIP3    H253616   3.760   6.004   3.685 -1.4620 -1.7148  0.3244
10709TIP3   OH253617   4.482   1.310  13.186  0.1015  0.0761  0.7238
10709TIP3    H153618   4.435   1.272  13.112  0.2640  1.3002 -0.0299
10709TIP3    H253619   4.538   1.240  13.218  0.8785 -0.1321 -1.0514
10710TIP3   OH253620   6.193   4.832  12.424 -0.2925  0.0427  0.6344
10710TIP3    H153621   6.148   4.909  12.391  0.5401  0.4198  0.3658
10710TIP3    H253622   6.238   4.795  12.348 -0.3967 -0.5041  0.8345
10711TIP3   OH253623   2.290   6.026  14.856  0.0917 -0.5978  0.0391
10711TIP3    H153624   2.266   5.991  14.770  2.1514 -0.5604 -0.5742
10711TIP3    H253625   2.383   6.048  14.848 -0.2610  1.6319  1.5400
10712TIP3   OH253626   4.633   3.461  13.390 -0.1862  0.0344  0.3706
10712TIP3    H153627   4.659   3.377  13.427 -1.6135 -0.3658  0.4728
10712TIP3    H253628   4.575   3.439  13.318  0.3716  0.9071 -0.3641
10713TIP3   OH253629   6.760   2.447   0.021 -0.2907  0.1395 -0.1264
10713TIP3    H153630   6.779   2.426   0.113 -3.2187 -1.4791  0.1875
10713TIP3    H253631   6.736   2.363  -0.018  1.1077  0.7796 -2.4618
10714TIP3   OH253632   0.501   1.926   1.416 -0.2023 -0.0142  0.2400
10714TIP3    H153633   0.411   1.924   1.383 -0.2545 -0.9964  0.4401
10714TIP3    H253634   0.508   1.850   1.473 -0.2168  1.8289  2.8002
10715TIP3   OH253635   0.669   5.652   4.030 -0.3110  0.1023  0.5027
10715TIP3    H153636   0.609   5.706   4.082 -1.8542 -0.3359 -0.7705
10715TIP3    H253637   0.666   5.692   3.943 -0.9023 -1.5700 -0.2714
10716TIP3   OH253638   1.868   5.574  14.592 -0.3171  0.2863  0.2501
10716TIP3    H153639   1.855   5.484  14.563 -0.3534  0.5356 -0.5128
10716TIP3    H253640   1.833   5.576  14.681 -0.3627 -0.4381  0.2497
10717TIP3   OH253641   3.388   5.307   4.913 -0.3742 -0.1622 -0.0952
10717TIP3    H153642   3.463   5.324   4.857 -0.2478 -0.4763 -0.0218
10717TIP3    H253643   3.356   5.394   4.938  0.8784 -0.0222  1.1116
10718TIP3   OH253644   1.944   0.823  15.814 -0.4017  0.0253 -0.0809
10718TIP3    H153645   1.915   0.866  15.894  1.8580  2.0244 -0.2815
10718TIP3    H253646   2.008   0.758  15.842  0.5268  0.8532 -0.2764
10719TIP3   OH253647   6.446   6.358  12.508  0.0714  0.0741  0.2260
10719TIP3    H153648   6.512   6.298  12.542  0.2124 -0.6021 -1.2152
10719TIP3    H253649   6.374   6.302  12.480  0.2172  0.5587 -1.1490
10720TIP3   OH253650   0.246   3.731   2.989 -0.7957  0.3716 -0.2038
10720TIP3    H153651   0.248   3.713   3.083  0.1092  0.7452 -0.1492
10720TIP3    H253652   0.161   3.773   2.975 -0.0501  2.2573  0.8093
10721TIP3   OH253653   0.320   2.818  16.623  0.2325 -0.0994 -0.2491
10721TIP3    H153654   0.266   2.851  16.551 -1.8953  2.2388  2.3060
10721TIP3    H253655   0.406   2.804  16.585 -0.5917  2.0217 -3.0091
10722TIP3   OH253656   3.523   1.383   5.605 -0.2078  0.2238  0.6711
10722TIP3    H153657   3.553   1.320   5.670  0.2032 -1.1197 -0.7652
10722TIP3    H253658   3.428   1.380   5.611 -0.1761 -0.1066  1.0369
10723TIP3   OH253659   3.415   2.362  14.354 -0.3220  0.2626  0.0090
10723TIP3    H153660   3.383   2.274  14.373  2.1273 -0.3391  1.5738
10723TIP3    H253661   3.505   2.363  14.388 -0.0800  3.1557 -0.5792
10724TIP3   OH253662   6.144   5.840  15.752 -0.4228  0.3012 -0.6233
10724TIP3    H153663   6.159   5.748  15.774 -1.6681  0.3066  0.2799
10724TIP3    H253664   6.120   5.881  15.835  1.1245  1.6691 -0.8041
10725TIP3   OH253665   2.189   4.993  13.380 -0.0418  0.0058 -0.4641
10725TIP3    H153666   2.100   4.964  13.398  0.0229 -0.3128 -0.6588
10725TIP3    H253667   2.178   5.066  13.318 -0.1585 -0.1609 -0.6399
10726TIP3   OH253668   3.106   2.236  13.065 -0.8381  0.3072  0.0275
10726TIP3    H153669   3.100   2.192  12.980 -1.3217 -1.1357  0.7929
10726TIP3    H253670   3.190   2.208  13.100 -1.1836 -0.0830  0.5505
10727TIP3   OH253671   2.360   4.371  10.451  0.2520  0.5065  0.3820
10727TIP3    H153672   2.319   4.427  10.385 -0.1602 -0.2510 -0.0169
10727TIP3    H253673   2.452   4.365  10.425  0.4561  1.6107  0.8567
10728TIP3   OH253674   6.745   0.956   0.515  0.6759  0.0452 -0.2841
10728TIP3    H153675   6.679   1.025   0.523 -0.7849 -1.2009 -1.4884
10728TIP3    H253676   6.696   0.877   0.492  2.5043 -1.0470 -0.5584
10729TIP3   OH253677   6.546   2.686  11.779 -0.2023 -0.5446 -0.1415
10729TIP3    H153678   6.534   2.771  11.738  3.1722  0.1137  0.1034
10729TIP3    H253679   6.520   2.623  11.712  0.9738  0.6168 -1.7297
10730TIP3   OH253680   6.229   3.629  15.319 -0.3420  0.3044  0.1355
10730TIP3    H153681   6.291   3.558  15.302  0.2492  0.9762 -0.6018
10730TIP3    H253682   6.160   3.589  15.371 -0.0155 -0.8096 -0.2625
10731TIP3   OH253683   6.363   2.101  16.233 -0.6461  0.1486 -0.2889
10731TIP3    H153684   6.293   2.049  16.274 -1.4393  0.9593 -0.5796
10731TIP3    H253685   6.319   2.147  16.161  0.2040  0.6257 -0.5122
10732TIP3   OH253686   5.267   3.665  12.043  0.2581  0.1659 -0.1658
10732TIP3    H153687   5.247   3.704  11.958 -0.2449  0.6720  0.1802
10732TIP3    H253688   5.183   3.632  12.074  0.8693 -2.2265 -0.9573
10733TIP3   OH253689   3.794   0.361  15.685 -0.9835  0.7761 -0.4943
10733TIP3    H153690   3.707   0.398  15.697 -1.2454  0.9016 -2.5943
10733TIP3    H253691   3.838   0.421  15.624  0.3506  0.3722  0.0515
10734TIP3   OH253692   4.842   5.354  12.999  0.4293 -0.3109 -0.1250
10734TIP3    H153693   4.899   5.429  12.992  0.1700 -0.2798 -2.0869
10734TIP3    H253694   4.833   5.339  13.094 -1.4245  3.5590  0.4127
10735TIP3   OH253695   6.813   5.249  10.550  0.1382 -0.1113 -0.0325
10735TIP3    H153696   6.884   5.308  10.572 -0.2061  0.6551 -0.9440
10735TIP3    H253697   6.845   5.200  10.474 -0.4736  0.5591 -0.7331
10736TIP3   OH253698   6.179   6.063   6.235 -0.1385  0.6082 -0.5619
10736TIP3    H153699   6.195   6.150   6.197  1.7867  0.4171 -0.2586
10736TIP3    H253700   6.228   6.003   6.178 -1.6616 -0.3174 -0.9150
10737TIP3   OH253701   0.889   3.182  16.492  0.0730  0.7037 -0.5594
10737TIP3    H153702   0.959   3.245  16.471  0.2540  0.7295  0.1213
10737TIP3    H253703   0.935   3.099  16.506  0.0616  0.9096  0.7540
10738TIP3   OH253704   5.035   0.416   3.776  0.6672 -0.4248  0.1405
10738TIP3    H153705   4.995   0.331   3.795 -0.0482 -0.2500 -0.5477
10738TIP3    H253706   5.122   0.410   3.815  1.3934 -2.2247 -1.6390
10739TIP3   OH253707   1.519   5.636  16.354 -0.6061 -0.6342 -0.6918
10739TIP3    H153708   1.477   5.698  16.294 -2.1124 -2.8390 -1.9811
10739TIP3    H253709   1.499   5.671  16.441 -1.1402  0.8635 -1.3990
10740TIP3   OH253710   3.457   4.867  16.894 -0.0026 -0.5173 -0.2882
10740TIP3    H153711   3.363   4.868  16.873  0.1013  0.3127 -0.7458
10740TIP3    H253712   3.497   4.817  16.823  0.0337  0.0881 -0.6974
10741TIP3   OH253713   5.418   3.591  10.790  0.1001 -0.0614  0.3879
10741TIP3    H153714   5.324   3.573  10.790  0.0610  0.1087 -1.5668
10741TIP3    H253715   5.458   3.508  10.819 -0.6911  0.2442  2.4338
10742TIP3   OH253716   2.463   3.962   0.304 -0.4233  0.5740  0.2992
10742TIP3    H153717   2.375   3.961   0.266 -0.6261  0.7447  0.7628
10742TIP3    H253718   2.489   4.054   0.301 -0.3475  0.5549  0.3650
10743TIP3   OH253719   5.272   6.629   1.875 -1.1649 -0.1196 -0.2710
10743TIP3    H153720   5.363   6.620   1.846 -1.8204 -0.7812 -2.1695
10743TIP3    H253721   5.245   6.540   1.897 -0.8793  0.2872  1.8630
10744TIP3   OH253722   3.396   3.190  14.889 -0.1200 -0.2136 -0.4469
10744TIP3    H153723   3.440   3.136  14.823 -1.5760 -1.0880 -0.7226
10744TIP3    H253724   3.390   3.134  14.966 -1.4762 -0.3925 -0.6758
10745TIP3   OH253725   4.207   0.565   3.845 -0.5629  0.7811  0.0858
10745TIP3    H153726   4.231   0.476   3.820  0.4664  0.4481  2.0971
10745TIP3    H253727   4.268   0.621   3.797 -0.5174  0.3376 -0.3724
10746TIP3   OH253728   0.232   6.785   5.862 -0.5154 -0.1314 -0.3603
10746TIP3    H153729   0.251   6.877   5.843 -3.1852 -0.0130 -2.7679
10746TIP3    H253730   0.312   6.739   5.839  0.9527  1.5983  1.1513
10747TIP3   OH253731   5.454   2.846  16.310  0.3758 -0.3114  0.2845
10747TIP3    H153732   5.420   2.907  16.375  0.2772  0.4240 -0.4435
10747TIP3    H253733   5.518   2.898  16.260  0.6827 -0.9552  0.0079
10748TIP3   OH253734   3.270   0.923  16.184 -0.7458  0.1658  0.1722
10748TIP3    H153735   3.321   0.890  16.258 -0.6259 -0.2893 -0.1105
10748TIP3    H253736   3.300   0.871  16.109  0.8461  2.2413 -0.6697
10749TIP3   OH253737   4.415   5.618   4.506 -0.7593 -0.3203  0.2239
10749TIP3    H153738   4.419   5.532   4.548 -0.9585 -0.7462 -0.6345
10749TIP3    H253739   4.497   5.661   4.532  1.5465 -2.4660 -3.0230
10750TIP3   OH253740   2.174   4.100  15.595  0.7165 -0.0584  0.1034
10750TIP3    H153741   2.110   4.032  15.617  0.3600 -0.6034 -2.4592
10750TIP3    H253742   2.121   4.175  15.567  1.1465  0.3264  0.3186
10751TIP3   OH253743   4.188   3.653   5.463 -0.6021  0.0295  0.4260
10751TIP3    H153744   4.124   3.595   5.503  0.1785 -0.3844  1.0801
10751TIP3    H253745   4.194   3.728   5.523 -0.4063  0.0216  0.4177
10752TIP3   OH253746   4.887   0.467   5.551  0.1784 -0.1848  0.3712
10752TIP3    H153747   4.898   0.372   5.541  0.9801 -0.2204  1.4723
10752TIP3    H253748   4.964   0.495   5.600  1.0263  1.3868 -1.7871
10753TIP3   OH253749   5.080   4.668  11.237 -0.3076  0.1730  0.2931
10753TIP3    H153750   5.129   4.743  11.201  0.0345 -0.3652 -0.3747
10753TIP3    H253751   5.146   4.599  11.246 -0.6673 -0.1157  0.7126
10754TIP3   OH253752   6.744   5.111  14.766 -0.4252  0.2941 -0.2099
10754TIP3    H153753   6.817   5.111  14.828 -0.7155 -1.2914  0.1712
10754TIP3    H253754   6.781   5.148  14.685  0.0092  2.1828  0.8278
10755TIP3   OH253755   0.761   1.967  12.354  0.7370 -0.9030 -0.2177
10755TIP3    H153756   0.819   1.945  12.281  1.2260  0.8745 -0.3829
10755TIP3    H253757   0.796   2.049  12.389  0.0667 -1.3451  1.5490
10756TIP3   OH253758   0.201   5.871  11.876 -0.0314 -0.5459  0.6195
10756TIP3    H153759   0.210   5.818  11.955  0.6182 -3.1771 -1.1375
10756TIP3    H253760   0.109   5.861  11.851 -0.0201 -0.4882  0.5545
10757TIP3   OH253761   6.089   0.381  15.743  0.0341  0.6318  0.1414
10757TIP3    H153762   6.076   0.445  15.673 -0.4784  0.4900  0.0990
10757TIP3    H253763   6.001   0.367  15.778 -0.0871 -1.1633 -0.8223
10758TIP3   OH253764   6.271   1.491   2.836 -0.2549  0.0875  0.2674
10758TIP3    H153765   6.246   1.400   2.823  0.9552 -0.0958 -0.8983
10758TIP3    H253766   6.197   1.542   2.802 -0.1687 -0.4565 -0.7517
10759TIP3   OH253767   2.087   3.178   4.709  0.1271  0.3115  0.0896
10759TIP3    H153768   2.161   3.155   4.766  1.7466 -0.1063 -2.1320
10759TIP3    H253769   2.027   3.103   4.716  1.5660 -0.9441 -0.7913
10760TIP3   OH253770   0.020   1.070   4.076  0.5493 -0.1059 -0.0311
10760TIP3    H153771   0.058   1.010   4.140 -0.6688 -0.3105  0.5080
10760TIP3    H253772  -0.034   1.130   4.127  1.5427  1.2985 -0.6033
10761TIP3   OH253773   4.709   2.966   3.873  0.3226  0.2329  0.2928
10761TIP3    H153774   4.631   3.000   3.916  0.1362  0.3764 -0.1542
10761TIP3    H253775   4.779   3.027   3.898 -0.0828  1.1800 -0.8042
10762TIP3   OH253776   4.473   4.209   5.035  0.0152  0.3512 -0.2029
10762TIP3    H153777   4.377   4.210   5.039  0.0305 -0.5230  0.6169
10762TIP3    H253778   4.494   4.266   4.961 -1.1551  0.0936 -0.7582
10763TIP3   OH253779   1.512   4.476   2.691  0.4130  0.7183  0.1968
10763TIP3    H153780   1.452   4.453   2.761 -0.7408 -2.0021 -1.6232
10763TIP3    H253781   1.599   4.470   2.730 -0.3052  1.5299  1.9739
10764TIP3   OH253782   6.370   1.121  15.648  0.5920  0.3027 -0.0998
10764TIP3    H153783   6.359   1.194  15.586 -1.1773  0.4304  0.3474
10764TIP3    H253784   6.369   1.043  15.592 -0.4901  0.4493 -0.3067
10765TIP3   OH253785   2.697   0.680   5.406  0.6993 -0.3544 -0.0062
10765TIP3    H153786   2.728   0.723   5.486  0.3819 -0.1820  0.0249
10765TIP3    H253787   2.628   0.738   5.373 -0.8183 -1.6185  0.8769
10766TIP3   OH253788   0.784   5.882  11.329 -0.2986  0.7854 -0.5376
10766TIP3    H153789   0.785   5.895  11.424 -0.4786 -0.9051 -0.2806
10766TIP3    H253790   0.862   5.928  11.298 -0.0707  1.0930  0.4743
10767TIP3   OH253791   4.722   6.469   2.212 -1.2600  0.3038  0.0720
10767TIP3    H153792   4.816   6.458   2.200 -1.3584  1.0194 -1.4773
10767TIP3    H253793   4.684   6.390   2.173 -1.4099  1.1196 -1.4807
10768TIP3   OH253794   5.643   3.779  12.420 -0.5223  0.5726  0.5058
10768TIP3    H153795   5.657   3.685  12.431  0.0013  0.5754 -0.0706
10768TIP3    H253796   5.727   3.819  12.445 -0.0237  0.7230 -1.3465
10769TIP3   OH253797   3.293   6.297  12.960 -0.9808 -0.0795  0.6200
10769TIP3    H153798   3.331   6.225  13.010 -0.1154  0.3310  0.5617
10769TIP3    H253799   3.364   6.326  12.902 -1.8667 -0.3176 -0.5887
10770TIP3   OH253800   6.812   1.275  13.673 -0.2773  0.0389 -0.0508
10770TIP3    H153801   6.726   1.235  13.660  0.3538 -1.1392 -0.6944
10770TIP3    H253802   6.855   1.220  13.738  0.8672 -0.8042 -1.4635
10771TIP3   OH253803   2.148   5.035   0.374  0.2090 -0.5271 -0.5045
10771TIP3    H153804   2.074   5.090   0.400 -0.8724 -2.1075 -0.1459
10771TIP3    H253805   2.207   5.094   0.329 -0.4195  1.1510  0.8153
10772TIP3   OH253806   1.730   0.565  11.590 -0.9085  0.0660 -0.4628
10772TIP3    H153807   1.667   0.495  11.608  1.1140 -1.7385 -0.1383
10772TIP3    H253808   1.789   0.527  11.524  0.6916  1.1538  0.3226
10773TIP3   OH253809   4.096   4.827  13.545 -0.4251 -0.2478 -0.1758
10773TIP3    H153810   4.053   4.912  13.531 -2.9654 -1.0630  2.1657
10773TIP3    H253811   4.189   4.847  13.552 -0.8583  2.1658 -0.9499
10774TIP3   OH253812   3.579   4.504  14.291  0.3979 -0.2953 -0.1242
10774TIP3    H153813   3.537   4.438  14.346 -0.6548  1.1071  0.8088
10774TIP3    H253814   3.610   4.571  14.353  1.3753  0.1271 -1.0453
10775TIP3   OH253815   4.843   2.079  11.482  0.3169 -0.5055 -0.3589
10775TIP3    H153816   4.765   2.046  11.527  0.4519 -1.7101 -0.9894
10775TIP3    H253817   4.822   2.073  11.389  1.5553 -1.8799 -0.5786
10776TIP3   OH253818   3.036   3.281  14.277  0.0422 -0.3444 -0.6694
10776TIP3    H153819   3.001   3.325  14.354 -0.5942 -0.7329 -0.7338
10776TIP3    H253820   2.963   3.228  14.244  1.0021 -1.9927 -0.1954
10777TIP3   OH253821   6.462   0.298  12.240 -0.1191 -0.1018  0.4174
10777TIP3    H153822   6.492   0.309  12.149 -0.9774 -1.7358 -0.0859
10777TIP3    H253823   6.541   0.310  12.293  0.2239  1.7723 -0.4644
10778TIP3   OH253824   5.350   2.767   2.509  0.1528 -0.1797 -0.4300
10778TIP3    H153825   5.430   2.816   2.494 -1.0352  2.1124  0.4475
10778TIP3    H253826   5.376   2.675   2.503  2.2191  0.5494 -3.1427
10779TIP3   OH253827   0.089   5.741   5.684 -0.0481  0.2168  0.0419
10779TIP3    H153828   0.061   5.832   5.672  0.5198  0.3344 -0.3560
10779TIP3    H253829   0.143   5.743   5.763 -0.3164  0.1639  0.2284
10780TIP3   OH253830   0.471   2.460  14.409 -0.4599 -0.0005 -0.8436
10780TIP3    H153831   0.397   2.455  14.349 -0.9791  0.3567 -0.2304
10780TIP3    H253832   0.432   2.475  14.495  0.3269  0.3893 -0.5470
10781TIP3   OH253833   1.924   4.664  12.682 -0.6523  0.4850 -0.2294
10781TIP3    H153834   1.832   4.672  12.708 -0.1656 -1.1260  2.1579
10781TIP3    H253835   1.959   4.594  12.737  2.0324  1.1144 -1.0442
10782TIP3   OH253836   1.389   5.687  11.426 -0.2793 -0.1618 -0.3437
10782TIP3    H153837   1.347   5.606  11.399 -0.4229 -0.5668  1.0311
10782TIP3    H253838   1.375   5.747  11.353 -1.6963 -0.8342 -0.6427
10783TIP3   OH253839   2.434   5.438   0.259  0.9158  0.7476 -0.3362
10783TIP3    H153840   2.502   5.427   0.325  1.7943  0.2823 -1.3049
10783TIP3    H253841   2.363   5.381   0.287  1.7458 -0.3222 -0.3969
10784TIP3   OH253842   5.728   3.384   4.918  0.1863 -0.5566 -0.1495
10784TIP3    H153843   5.646   3.358   4.876  1.4298 -2.1946 -1.6482
10784TIP3    H253844   5.711   3.372   5.012 -1.3665 -0.6132 -0.4252
10785TIP3   OH253845   2.636   2.653  12.845  0.0400 -0.4903  0.5337
10785TIP3    H153846   2.715   2.687  12.887  0.5000 -2.8760  1.7123
10785TIP3    H253847   2.663   2.634  12.755  1.1223 -2.2314  1.2028
10786TIP3   OH253848   4.085   4.693   1.477  0.6102  0.6835  0.0677
10786TIP3    H153849   4.163   4.746   1.463  1.1345 -0.5106 -1.6254
10786TIP3    H253850   4.015   4.757   1.493  1.2626  1.8710 -1.7454
10787TIP3   OH253851   0.433   3.904  11.661  0.3968  0.9024  0.0794
10787TIP3    H153852   0.402   3.898  11.752 -0.6342  1.0804 -0.2494
10787TIP3    H253853   0.354   3.888  11.608  1.3574 -1.1400 -0.7937
10788TIP3   OH253854   5.253   6.377   1.951  0.0387  0.2526 -0.2027
10788TIP3    H153855   5.315   6.318   1.993  0.1582 -0.0577 -0.8144
10788TIP3    H253856   5.228   6.333   1.870 -2.8789 -0.7716  1.1883
10789TIP3   OH253857   6.016   4.310   2.956 -0.0342  0.6144  0.4331
10789TIP3    H153858   5.990   4.301   2.865  3.0833 -1.4327 -0.3087
10789TIP3    H253859   6.015   4.404   2.973 -0.8133  0.9874 -1.6327
10790TIP3   OH253860   0.890   0.902   4.627  0.9094 -0.0382  0.5604
10790TIP3    H153861   0.961   0.840   4.645  1.0837  0.1299  0.4579
10790TIP3    H253862   0.874   0.893   4.533 -0.9813 -1.9566  1.0294
10791TIP3   OH253863   2.149   0.496  13.234 -0.3851  0.4031 -0.4568
10791TIP3    H153864   2.124   0.523  13.323 -1.4100 -0.3833 -0.4945
10791TIP3    H253865   2.200   0.570  13.200  0.1457  0.6431  0.8362
10792TIP3   OH253866   4.223   3.518   1.866 -0.2545 -0.9950 -0.5541
10792TIP3    H153867   4.317   3.533   1.867 -0.2122 -1.1787 -1.4510
10792TIP3    H253868   4.184   3.604   1.855 -0.1896 -0.9334 -0.3052
10793TIP3   OH253869   2.220   3.285   5.710 -0.2866  0.4332 -0.2215
10793TIP3    H153870   2.162   3.353   5.675  0.5433  1.0754 -0.3868
10793TIP3    H253871   2.196   3.206   5.663 -2.0308  0.3465  0.7612
10794TIP3   OH253872   5.388   0.843   2.039 -0.1518 -0.1850 -0.3423
10794TIP3    H153873   5.313   0.901   2.035  0.6870  0.9386  0.0283
10794TIP3    H253874   5.354   0.762   2.077 -1.2954  0.0888 -0.7544
10795TIP3   OH253875   0.439   5.561  16.961 -0.5088  0.5363  0.1154
10795TIP3    H153876   0.475   5.616  16.891  1.2819 -2.5762 -1.5014
10795TIP3    H253877   0.368   5.512  16.918  1.1860 -2.0558  0.1848
10796TIP3   OH253878   0.798   4.120  13.525 -0.1856 -0.3270  0.0383
10796TIP3    H153879   0.829   4.139  13.614 -0.9498 -1.8137  0.6458
10796TIP3    H253880   0.704   4.141  13.528 -0.5731 -1.9720  0.0878
10797TIP3   OH253881   4.336   0.088   0.638 -1.0378  0.4389 -0.3427
10797TIP3    H153882   4.431   0.076   0.641 -1.1654 -0.4670  0.0271
10797TIP3    H253883   4.325   0.182   0.620 -0.0902  0.8432  1.1270
10798TIP3   OH253884   4.144   4.551  12.120 -0.6208  0.3182 -0.0130
10798TIP3    H153885   4.068   4.594  12.158 -1.2218 -0.8711  0.1630
10798TIP3    H253886   4.216   4.569  12.182 -0.8953  0.9541  0.1172
10799TIP3   OH253887   5.406   2.681   5.413 -0.3409 -0.4628  0.0219
10799TIP3    H153888   5.311   2.672   5.426 -0.5208 -0.0598 -0.9455
10799TIP3    H253889   5.415   2.763   5.364  0.6086  0.1773  1.2253
10800TIP3   OH253890   6.204   4.975  13.896 -0.0634 -0.3967 -0.5154
10800TIP3    H153891   6.160   4.997  13.814  2.8663  0.5366 -1.9054
10800TIP3    H253892   6.250   5.056  13.920 -0.5661 -0.7920  1.8609
10801TIP3   OH253893   3.320   2.524   1.044 -0.6747  0.0464 -0.3891
10801TIP3    H153894   3.387   2.519   0.976  0.4995 -0.4853  0.7819
10801TIP3    H253895   3.254   2.583   1.008  1.6497  2.6881 -0.5458
10802TIP3   OH253896   1.762   5.584   6.174  0.3149  0.6726 -0.4151
10802TIP3    H153897   1.816   5.662   6.184  2.0794 -0.5608 -0.0295
10802TIP3    H253898   1.732   5.587   6.083  1.2165  1.2540 -0.6982
10803TIP3   OH253899   3.016   0.080  17.050  0.0647 -0.0466  0.4037
10803TIP3    H153900   2.972   0.095  17.133  2.1250 -0.3575  1.5761
10803TIP3    H253901   3.087   0.144  17.048  0.0202 -0.0220 -1.1284
10804TIP3   OH253902   0.943   2.553  16.783  0.5778  0.0961 -0.5290
10804TIP3    H153903   0.891   2.480  16.818 -1.5910  1.2113 -1.3377
10804TIP3    H253904   1.003   2.512  16.721  0.3172 -1.1661  0.0303
10805TIP3   OH253905   2.314   3.085   4.541 -0.6414 -0.7840 -0.1962
10805TIP3    H153906   2.384   3.040   4.493 -0.6492 -2.1270  1.0035
10805TIP3    H253907   2.237   3.031   4.528 -0.7051 -1.0243  1.0964
10806TIP3   OH253908   3.615   2.333   3.666  0.4973 -0.3473  0.7088
10806TIP3    H153909   3.626   2.409   3.722 -0.1860 -0.5887  1.1782
10806TIP3    H253910   3.686   2.340   3.602  1.5721 -0.3151  1.8709
10807TIP3   OH253911   3.729   6.373   1.579 -0.4064 -0.3731  0.4312
10807TIP3    H153912   3.815   6.330   1.580 -1.0576 -1.7396 -0.2465
10807TIP3    H253913   3.749   6.467   1.578  1.1126 -0.6796 -1.1831
10808TIP3   OH253914   3.695   2.773  14.855  0.1340  0.2739 -0.2205
10808TIP3    H153915   3.723   2.856  14.815 -0.4991  1.4589  1.7195
10808TIP3    H253916   3.661   2.798  14.941  0.9721 -2.1339  0.8615
10809TIP3   OH253917   1.798   1.808   1.042 -0.1537 -0.0034  0.7705
10809TIP3    H153918   1.742   1.858   0.983 -1.3351 -1.1736  0.8720
10809TIP3    H253919   1.764   1.825   1.129 -0.9108 -1.3567  0.7663
10810TIP3   OH253920   2.306   4.009   4.002 -0.7600  0.1740 -0.0218
10810TIP3    H153921   2.293   4.075   4.071  0.8269 -1.0241  1.4586
10810TIP3    H253922   2.223   3.961   3.999 -0.3371 -0.7512  2.1475
10811TIP3   OH253923   2.134   2.224   5.815 -0.0523 -0.2810 -0.0003
10811TIP3    H153924   2.086   2.299   5.850 -2.2756 -1.2186 -0.9770
10811TIP3    H253925   2.226   2.251   5.818 -0.6068  1.5134  1.9735
10812TIP3   OH253926   6.403   2.997   2.207  0.5117 -0.1979 -0.3595
10812TIP3    H153927   6.358   3.001   2.291  1.1433  0.6402 -0.0549
10812TIP3    H253928   6.333   2.984   2.143  0.0786 -1.3671  0.3326
10813TIP3   OH253929   1.181   3.294  11.223 -0.2125 -0.0586  0.5529
10813TIP3    H153930   1.272   3.285  11.251 -0.4690  0.2139  1.5051
10813TIP3    H253931   1.177   3.250  11.138  0.9105  0.3426  0.2870
10814TIP3   OH253932   6.391   2.167   0.765  0.0089  0.0630 -0.2281
10814TIP3    H153933   6.413   2.203   0.679  2.1618  0.3418  0.4062
10814TIP3    H253934   6.394   2.072   0.753  1.8657  0.0878 -0.1202
10815TIP3   OH253935   1.679   0.295  16.931  0.0567  0.3763  0.3716
10815TIP3    H153936   1.748   0.258  16.986  1.1655  0.0674 -1.2046
10815TIP3    H253937   1.636   0.360  16.987  0.0518 -1.1417  2.1616
10816TIP3   OH253938   0.535   3.123  12.771 -0.2200 -0.5654  0.6145
10816TIP3    H153939   0.608   3.088  12.721 -1.6056 -1.1886 -1.0312
10816TIP3    H253940   0.575   3.158  12.851  1.9136 -0.4008 -0.4942
10817TIP3   OH253941   1.176   6.195   5.124  0.3327 -0.6923 -0.5506
10817TIP3    H153942   1.176   6.205   5.029 -1.3698  1.1067 -0.3808
10817TIP3    H253943   1.247   6.251   5.154  0.3392 -0.6177 -0.7049
10818TIP3   OH253944   4.272   5.306   0.846 -0.7632  0.0861  0.1060
10818TIP3    H153945   4.323   5.378   0.883 -0.0207  0.2107 -1.1407
10818TIP3    H253946   4.181   5.328   0.868 -0.4897  1.0600  0.3101
10819TIP3   OH253947   4.589   6.629   3.519  0.0910 -0.5632 -0.0988
10819TIP3    H153948   4.535   6.555   3.543 -0.7339 -0.5663 -1.8827
10819TIP3    H253949   4.669   6.590   3.482  0.3706 -0.5536  0.4868
10820TIP3   OH253950   4.087   4.849   5.112 -0.3048  0.3602 -0.2287
10820TIP3    H153951   4.052   4.773   5.159 -1.4682  0.6079 -0.6862
10820TIP3    H253952   4.172   4.864   5.152  0.5315 -2.0105 -1.0182
10821TIP3   OH253953   0.370   6.339   4.885  0.0616 -0.0975 -0.1174
10821TIP3    H153954   0.326   6.423   4.870  1.2580  0.5291 -0.1400
10821TIP3    H253955   0.425   6.354   4.962  0.6995 -0.7070 -0.4522
10822TIP3   OH253956   0.455   5.856  14.914  0.4655 -0.3936  0.1731
10822TIP3    H153957   0.382   5.869  14.974 -0.9933  2.5816 -2.1057
10822TIP3    H253958   0.442   5.769  14.878 -1.7633 -0.0466  0.1093
10823TIP3   OH253959   5.979   0.175  15.387  0.4166  0.2825 -0.1544
10823TIP3    H153960   6.030   0.185  15.306  0.3414 -0.2349 -0.2677
10823TIP3    H253961   5.899   0.130  15.360  0.7579 -0.6351  0.3450
10824TIP3   OH253962   3.985   4.074  13.551 -0.1734 -0.2337  0.2634
10824TIP3    H153963   3.975   4.014  13.477 -1.1436 -0.6354  0.7072
10824TIP3    H253964   3.924   4.040  13.617  0.7535  0.0708  1.2748
10825TIP3   OH253965   1.052   2.047  16.150  0.6414  0.6475  0.3131
10825TIP3    H153966   1.114   2.102  16.102  1.9769  1.3620  2.7942
10825TIP3    H253967   1.099   1.966  16.167 -1.2821 -1.3779 -3.2201
10826TIP3   OH253968   1.591   3.215  16.747 -0.3231  0.8167 -0.2353
10826TIP3    H153969   1.639   3.287  16.789 -0.1419  0.4748  0.1464
10826TIP3    H253970   1.530   3.185  16.814 -0.5644  0.7703 -0.4754
10827TIP3   OH253971   6.303   3.063   0.824 -0.3505 -0.5598  0.0775
10827TIP3    H153972   6.260   3.147   0.805  1.1419  0.0381 -0.6968
10827TIP3    H253973   6.380   3.062   0.767 -0.7051 -2.7559 -0.3894
10828TIP3   OH253974   1.932   3.612   2.943  0.4363  0.9419 -0.3560
10828TIP3    H153975   1.922   3.651   2.856 -0.6850  0.4945 -0.4413
10828TIP3    H253976   1.850   3.564   2.957  0.8241  0.5831  0.7314
10829TIP3   OH253977   2.836   5.402   4.344 -0.0765  0.3448 -0.3773
10829TIP3    H153978   2.777   5.445   4.406  1.7589  0.5272  1.3100
10829TIP3    H253979   2.809   5.310   4.344  0.3671  0.2111  1.2486
10830TIP3   OH253980   4.714   6.544  16.441 -0.1322 -0.2127  0.1205
10830TIP3    H153981   4.742   6.635  16.449 -1.0452 -0.1083  2.5259
10830TIP3    H253982   4.644   6.535  16.506 -0.5185 -2.4503 -0.5742
10831TIP3   OH253983   1.664   4.287  10.941 -0.0216  0.1940 -0.8478
10831TIP3    H153984   1.700   4.359  10.992  1.1062 -0.7683 -0.2524
10831TIP3    H253985   1.733   4.264  10.880  0.7857 -2.2429  0.8897
10832TIP3   OH253986   5.542   6.134  10.375  0.1595  0.0775  0.4165
10832TIP3    H153987   5.532   6.222  10.339 -2.3468 -1.0651 -1.9304
10832TIP3    H253988   5.508   6.140  10.464 -0.9709  1.2928 -0.0740
10833TIP3   OH253989   5.727   5.277  15.310  0.6899  0.3795  0.1831
10833TIP3    H153990   5.743   5.215  15.381  0.0662  0.0387  0.0191
10833TIP3    H253991   5.716   5.223  15.232  0.4512  0.7085 -0.0132
10834TIP3   OH253992   5.252   5.562   2.889 -0.1410  0.2159 -0.0060
10834TIP3    H153993   5.189   5.631   2.867 -2.1725 -1.6658 -0.3489
10834TIP3    H253994   5.215   5.522   2.968  1.2506 -0.2133  0.4378
10835TIP3   OH253995   5.820   4.876   6.032  0.0015 -0.2093  0.1322
10835TIP3    H153996   5.800   4.969   6.028 -1.2374 -0.5395 -2.6284
10835TIP3    H253997   5.906   4.872   6.074  0.2012  2.1858  0.0409
10836TIP3   OH253998   1.185   4.369  12.356 -0.6934  0.4750  0.0156
10836TIP3    H153999   1.139   4.452  12.348 -0.9597  0.6945  3.0272
10836TIP3    H254000   1.212   4.366  12.448  3.5321 -0.5975 -1.1549
10837TIP3   OH254001   6.791   4.110   0.766  0.2044  0.0359  0.5579
10837TIP3    H154002   6.818   4.173   0.699  0.8399  2.0444  2.6361
10837TIP3    H254003   6.776   4.163   0.845 -1.3570 -2.1494  1.8064
10838TIP3   OH254004   0.905   3.008   0.550 -0.0990  0.0203 -0.1711
10838TIP3    H154005   0.820   2.994   0.509  0.2730  1.7044 -1.5810
10838TIP3    H254006   0.889   3.075   0.616  0.2274  0.7165 -0.7933
10839TIP3   OH254007   4.724   3.618   2.672  0.1094 -0.6601 -0.0184
10839TIP3    H154008   4.676   3.540   2.703  2.6737 -2.1954  0.2172
10839TIP3    H254009   4.656   3.685   2.661 -2.3330 -3.2175 -1.2535
10840TIP3   OH254010   3.860   6.150   1.824 -0.3028 -0.0405 -0.6278
10840TIP3    H154011   3.823   6.165   1.911  2.0448 -0.0096  0.3927
10840TIP3    H254012   3.875   6.238   1.789  1.6768 -0.0052  0.2392
10841TIP3   OH254013   0.809   2.176  11.697 -0.2654  0.4019 -0.9283
10841TIP3    H154014   0.889   2.126  11.683 -1.1242 -1.0523 -0.7995
10841TIP3    H254015   0.825   2.227  11.776  0.5975  0.2651 -1.0130
10842TIP3   OH254016   5.024   6.530  14.019  0.3811 -0.1388 -0.1766
10842TIP3    H154017   5.058   6.595  13.958 -0.1134 -0.2610 -0.5828
10842TIP3    H254018   5.097   6.513  14.079  0.9152 -0.1300 -0.8221
10843TIP3   OH254019   0.124   6.155  14.813  0.1199 -0.8845  0.0940
10843TIP3    H154020   0.117   6.061  14.829 -1.1675 -0.7283  0.5285
10843TIP3    H254021   0.069   6.171  14.737 -1.0115 -0.2393  1.0326
10844TIP3   OH254022   6.202   4.877  11.754 -0.1455 -0.2523 -0.0511
10844TIP3    H154023   6.210   4.918  11.668 -1.3954  1.1697  0.4951
10844TIP3    H254024   6.110   4.885  11.776  0.3560  0.3111  1.8764
10845TIP3   OH254025   2.870   2.398  14.577  0.7724  0.5022  0.6753
10845TIP3    H154026   2.863   2.316  14.626 -0.1172  0.0528 -0.1823
10845TIP3    H254027   2.892   2.370  14.488  0.1247  1.1858  0.3028
10846TIP3   OH254028   6.538   5.487  10.685  0.1203  0.2360 -0.6256
10846TIP3    H154029   6.580   5.555  10.738 -0.9381  1.1823 -0.9863
10846TIP3    H254030   6.545   5.408  10.738 -1.5112  1.3109  1.2774
10847TIP3   OH254031   3.172   2.935  11.163  0.0044  0.1511  0.3123
10847TIP3    H154032   3.198   2.959  11.073 -0.3457 -0.8244 -0.0547
10847TIP3    H254033   3.207   3.006  11.217 -0.6379  1.2621 -0.7001
10848TIP3   OH254034   2.635   5.469  16.469 -0.2159  0.0960  0.4732
10848TIP3    H154035   2.562   5.455  16.530 -0.6797  2.4866  0.5449
10848TIP3    H254036   2.701   5.515  16.521  0.1476  0.5058 -0.3432
10849TIP3   OH254037   5.020   5.128  15.575  0.0472  0.5102 -0.5211
10849TIP3    H154038   4.947   5.136  15.514 -0.9956 -0.1048  0.6136
10849TIP3    H254039   4.983   5.154  15.660  0.5393 -1.9213  0.4837
10850TIP3   OH254040   1.743   3.914   3.717  0.2193 -0.0369  0.2342
10850TIP3    H154041   1.658   3.870   3.717  0.1607  0.0320  2.0646
10850TIP3    H254042   1.748   3.956   3.632 -0.8904 -1.3587 -0.5073
10851TIP3   OH254043   4.557   3.725  13.987  0.2709 -0.2402 -0.1276
10851TIP3    H154044   4.502   3.778  13.928  0.5202 -0.0347 -0.1792
10851TIP3    H254045   4.552   3.770  14.071 -1.0571 -1.2151  0.3209
10852TIP3   OH254046   5.372   2.875  16.637  0.5325  0.3709  0.0320
10852TIP3    H154047   5.441   2.814  16.662  0.3244  0.1226  0.0056
10852TIP3    H254048   5.343   2.915  16.719 -1.2844 -1.6427  0.4174
10853TIP3   OH254049   6.660   0.921  11.399 -0.0202  0.5174 -0.5973
10853TIP3    H154050   6.724   0.977  11.443  0.7127  2.1679 -3.6243
10853TIP3    H254051   6.582   0.925  11.455  0.7898  2.6785  0.4398
10854TIP3   OH254052   5.096   0.163   3.011  0.2702 -0.4447 -0.1183
10854TIP3    H154053   5.132   0.223   2.945  0.7234 -0.3138  0.2419
10854TIP3    H254054   5.023   0.120   2.967 -0.5261  0.9025 -0.1623
10855TIP3   OH254055   2.070   2.914   3.988  0.2218 -0.2395  0.3574
10855TIP3    H154056   2.011   2.912   3.913 -0.6964  0.7340  1.0378
10855TIP3    H254057   2.013   2.931   4.063  1.4410  1.4590  0.9318
10856TIP3   OH254058   0.490   1.992  12.702  0.4724 -0.1162  0.0370
10856TIP3    H154059   0.396   2.001  12.719  0.6033  0.6562  0.3546
10856TIP3    H254060   0.504   1.897  12.696 -0.2180 -0.2581  0.6138
10857TIP3   OH254061   4.017   2.426  13.078 -0.3882  0.3706  0.1624
10857TIP3    H154062   4.008   2.511  13.121  3.3404  0.6843  0.4500
10857TIP3    H254063   4.012   2.363  13.149  0.8651  0.5893  0.4419
10858TIP3   OH254064   1.590   0.573  12.682  0.1067  0.4023  0.2279
10858TIP3    H154065   1.537   0.506  12.724 -1.2580  0.7942 -0.8482
10858TIP3    H254066   1.669   0.579  12.737  0.6161 -2.6086 -0.0986
10859TIP3   OH254067   1.602   6.362   5.209 -0.1105 -0.3803 -0.3028
10859TIP3    H154068   1.574   6.449   5.237  1.1985 -0.0427  0.0105
10859TIP3    H254069   1.604   6.367   5.113 -0.3882 -0.1821 -0.3001
10860TIP3   OH254070   6.135   2.919  15.391 -0.0279 -0.3238 -0.1945
10860TIP3    H154071   6.158   2.986  15.455  0.4152 -0.5327 -0.1344
10860TIP3    H254072   6.094   2.968  15.319 -1.2155 -0.1761  0.5714
10861TIP3   OH254073   4.540   4.942   1.107 -0.3893  0.6125 -0.1205
10861TIP3    H154074   4.592   5.019   1.129  0.7071 -0.3854  0.8812
10861TIP3    H254075   4.548   4.885   1.184 -0.8508 -0.6675 -1.0053
10862TIP3   OH254076   1.827   1.287  16.587 -0.0577 -0.1850  0.4796
10862TIP3    H154077   1.774   1.366  16.573  0.7219  0.1619 -0.5994
10862TIP3    H254078   1.763   1.217  16.600 -0.7848  0.2554 -0.6447
10863TIP3   OH254079   4.496   1.776  12.109 -0.1939  0.7705  0.5075
10863TIP3    H154080   4.462   1.769  12.020 -0.5659  1.0551  0.6278
10863TIP3    H254081   4.443   1.714  12.159  0.3281  0.2661  0.4405
10864TIP3   OH254082   6.029   4.119   1.787  0.7762  0.0548 -0.2641
10864TIP3    H154083   6.118   4.114   1.823  1.3103 -0.5179 -1.6171
10864TIP3    H254084   6.034   4.186   1.720 -0.4115  1.6808  1.2416
10865TIP3   OH254085   2.955   6.290   4.653  0.3866 -0.3435  0.4167
10865TIP3    H154086   2.993   6.360   4.706 -0.5984  1.7536 -1.5581
10865TIP3    H254087   2.879   6.260   4.703 -0.4843  1.5408  0.2599
10866TIP3   OH254088   3.491   3.938  12.337  0.2122 -0.3440 -0.1001
10866TIP3    H154089   3.416   3.980  12.296  1.4922  1.1283 -0.9996
10866TIP3    H254090   3.504   3.857  12.287 -1.6357 -1.3282  0.9820
10867TIP3   OH254091   0.754   0.650   2.744 -0.3535  0.0506  0.0197
10867TIP3    H154092   0.704   0.650   2.662  0.9903  0.9634 -0.8140
10867TIP3    H254093   0.807   0.570   2.740 -0.3229  0.0700  0.0428
10868TIP3   OH254094   4.204   3.157   2.765 -0.0194 -0.5981  0.0051
10868TIP3    H154095   4.149   3.109   2.827 -0.8866  0.4731  0.0750
10868TIP3    H254096   4.232   3.235   2.812 -0.7290  0.2517 -0.9559
10869TIP3   OH254097   4.328   1.948   2.031  0.0332  0.0091 -0.5298
10869TIP3    H154098   4.361   1.966   1.943 -1.8647 -1.2172 -1.5309
10869TIP3    H254099   4.372   1.867   2.057  0.1606  0.0558 -0.6003
10870TIP3   OH254100   5.076   0.443  13.152 -0.0971 -1.0876  0.1311
10870TIP3    H154101   5.158   0.490  13.136  0.1303 -1.6631 -0.4032
10870TIP3    H254102   5.100   0.374  13.213 -0.0628 -1.6071 -0.4637
10871TIP3   OH254103   4.329   4.025   3.152  0.3920  0.3517 -0.3618
10871TIP3    H154104   4.333   4.110   3.108  0.9890  1.4951  1.8030
10871TIP3    H254105   4.243   4.024   3.194 -0.1168 -0.6639 -1.4057
10872TIP3   OH254106   3.935   4.287   0.090 -0.0959  0.2637 -0.3919
10872TIP3    H154107   3.904   4.362   0.039  1.4969  1.3448  0.1874
10872TIP3    H254108   3.856   4.252   0.131 -1.0967  0.5861 -2.0158
10873TIP3   OH254109   4.134   0.914  16.511 -0.2423  0.0545 -0.1398
10873TIP3    H154110   4.201   0.847  16.522  0.7540  1.1517  0.5828
10873TIP3    H254111   4.141   0.968  16.589 -1.6375  0.4850 -0.2966
10874TIP3   OH254112   5.401   3.748   1.126 -0.5893  0.7671  0.0936
10874TIP3    H154113   5.490   3.782   1.114 -0.4813  1.4192  2.3829
10874TIP3    H254114   5.370   3.729   1.038  1.9919  0.0992 -0.7208
10875TIP3   OH254115   1.132   3.959  14.327  0.3714 -0.2389 -0.2722
10875TIP3    H154116   1.108   3.979  14.418  2.0889  1.9068 -0.2568
10875TIP3    H254117   1.171   3.872  14.332 -0.1446 -0.4164  0.9386
10876TIP3   OH254118   2.600   6.091  14.744  0.2547 -0.0577  0.3927
10876TIP3    H154119   2.594   6.114  14.651  0.0353 -0.7863  0.2197
10876TIP3    H254120   2.625   6.172  14.788 -0.9299  0.6177 -0.1414
10877TIP3   OH254121   2.665   6.755  15.530  0.2611 -0.1701  0.5720
10877TIP3    H154122   2.656   6.850  15.541 -1.5968  0.0544 -2.1684
10877TIP3    H254123   2.575   6.724  15.521  0.9362 -1.9424 -0.2106
10878TIP3   OH254124   2.613   0.792  12.997 -0.1572 -0.3982  0.5147
10878TIP3    H154125   2.704   0.822  13.002 -0.4140  0.1721  1.9125
10878TIP3    H254126   2.605   0.755  12.909  1.1969  0.2828  0.0915
10879TIP3   OH254127   5.206   0.005  11.265 -0.4414  0.2398  0.2034
10879TIP3    H154128   5.201  -0.080  11.311  0.0047  0.7478  1.2149
10879TIP3    H254129   5.244  -0.016  11.180  1.8170 -0.2769  1.3075
10880TIP3   OH254130   3.012   6.284  11.859  0.3070  0.0455  0.7183
10880TIP3    H154131   2.958   6.265  11.936  0.9135  1.3205  1.4787
10880TIP3    H254132   3.101   6.292  11.893  0.5087  1.1073 -0.0210
10881TIP3   OH254133   3.435   1.434  15.812  0.2450  0.2104  0.2517
10881TIP3    H154134   3.357   1.381  15.826  1.0191 -1.5271 -1.6518
10881TIP3    H254135   3.503   1.390  15.864  0.6570 -0.0513 -0.5097
10882TIP3   OH254136   6.531   1.296   5.022  0.0102 -0.7204  0.1458
10882TIP3    H154137   6.475   1.226   4.990  1.0612 -0.9741 -1.1995
10882TIP3    H254138   6.614   1.283   4.977  0.7809  0.3400  1.2225
10883TIP3   OH254139   2.292   4.112   3.310 -0.1312 -0.8129 -0.1779
10883TIP3    H154140   2.282   4.182   3.374  2.7510 -0.7021  0.2043
10883TIP3    H254141   2.344   4.045   3.355 -1.2849 -2.4219 -1.1515
10884TIP3   OH254142   5.776   1.707   3.238 -0.7021  0.0888 -0.1010
10884TIP3    H154143   5.871   1.713   3.230 -0.7451  0.7400 -0.1079
10884TIP3    H254144   5.755   1.619   3.206  0.1034 -0.8004  1.7663
10885TIP3   OH254145   0.060   0.159   0.849  0.4332  0.3149  0.1378
10885TIP3    H154146   0.003   0.090   0.882 -0.8750  1.1616 -0.3055
10885TIP3    H254147   0.013   0.240   0.868  2.2458  1.1370  1.2549
10886TIP3   OH254148   2.834   1.516  10.526 -0.4412 -0.0837  0.3386
10886TIP3    H154149   2.845   1.443  10.465 -0.3806  1.7689 -1.9133
10886TIP3    H254150   2.920   1.526  10.568  0.0025 -0.2597 -0.5282
10887TIP3   OH254151   5.879   6.194   3.494 -0.0292 -0.0853  0.2709
10887TIP3    H154152   5.848   6.232   3.577  0.8540  2.9649 -0.7177
10887TIP3    H254153   5.938   6.123   3.521  0.2463  0.8611  2.2793
10888TIP3   OH254154   4.945   6.008  17.022 -0.4495  0.5796  0.3455
10888TIP3    H154155   4.987   6.052  17.097  2.4370  1.4051 -1.6779
10888TIP3    H254156   4.971   5.917  17.030 -0.9910  0.4701  0.8989
10889TIP3   OH254157   1.193   4.927   5.732 -0.0160 -0.1590 -0.1167
10889TIP3    H154158   1.107   4.898   5.763 -0.8449 -0.1254 -2.3207
10889TIP3    H254159   1.190   5.023   5.739 -0.7027 -0.0715 -1.5617
10890TIP3   OH254160   4.935   1.425  14.386 -0.6688 -0.4963 -0.8948
10890TIP3    H154161   4.900   1.452  14.301  0.4740 -2.2351 -1.9539
10890TIP3    H254162   4.876   1.354  14.413 -1.3332  0.3946  0.0192
10891TIP3   OH254163   0.570   1.327  16.116  0.2404 -0.5298  0.2098
10891TIP3    H154164   0.499   1.287  16.166 -1.5912  1.1062 -1.0611
10891TIP3    H254165   0.596   1.259  16.053  1.3725 -1.9541  2.1567
10892TIP3   OH254166   3.800   1.674   4.097  0.0776  0.0388 -0.3288
10892TIP3    H154167   3.799   1.647   4.006  0.0989  0.4273 -0.4435
10892TIP3    H254168   3.841   1.760   4.097 -0.3467  0.2456 -0.0077
10893TIP3   OH254169   6.051   2.740   4.535  0.0261 -0.1291 -0.3098
10893TIP3    H154170   6.048   2.648   4.562 -0.1407 -0.3714 -1.1278
10893TIP3    H254171   6.113   2.741   4.463  1.6621  0.7834  1.0943
10894TIP3   OH254172   2.467   0.221  14.896 -0.0512 -0.9674 -0.3246
10894TIP3    H154173   2.491   0.313  14.893  0.1191 -1.0416 -2.1465
10894TIP3    H254174   2.377   0.220  14.927  0.1537 -0.2415  0.3089
10895TIP3   OH254175   1.923   3.733   2.674 -0.2090  0.3746 -0.3508
10895TIP3    H154176   1.983   3.746   2.601 -2.6163 -1.2029 -2.6574
10895TIP3    H254177   1.841   3.705   2.634 -1.5887 -0.5402  2.9482
10896TIP3   OH254178   3.044   4.709  11.214 -0.3350 -0.4881 -0.2082
10896TIP3    H154179   3.087   4.708  11.300 -2.7621  0.0940  1.0715
10896TIP3    H254180   2.951   4.708  11.234 -1.0427  3.1515 -2.7470
10897TIP3   OH254181   2.202   2.497   0.329  0.3449  0.4796 -0.3041
10897TIP3    H154182   2.243   2.445   0.261 -1.2068  0.3861 -1.1904
10897TIP3    H254183   2.191   2.437   0.403  2.5419  0.7346  0.2442
10898TIP3   OH254184   1.998   0.442  17.054  0.3210 -0.5656  0.4135
10898TIP3    H154185   1.992   0.376  16.984 -1.2314  0.1253 -0.1331
10898TIP3    H254186   1.910   0.479  17.059  0.6462  0.0270  2.1415
10899TIP3   OH254187   1.879   6.580  13.936  0.1040  0.2829 -0.5234
10899TIP3    H154188   1.793   6.537  13.935  0.4618 -0.4247 -0.5222
10899TIP3    H254189   1.895   6.605  13.845  0.5427 -0.8643 -0.7701
10900TIP3   OH254190   0.376   0.531   2.755  0.0848 -0.2340  0.0486
10900TIP3    H154191   0.350   0.597   2.819 -1.8152 -0.9479  0.0236
10900TIP3    H254192   0.347   0.566   2.671  1.1855 -0.0232 -0.2548
10901TIP3   OH254193   1.294   3.001  12.721  0.6841 -0.2254  0.0715
10901TIP3    H154194   1.294   3.092  12.690  1.0741 -0.9679 -2.2053
10901TIP3    H254195   1.227   2.958  12.669  1.0105 -1.4183  0.6195
10902TIP3   OH254196   6.814   3.057  14.583 -0.0207 -0.1062 -0.4144
10902TIP3    H154197   6.773   3.052  14.497  2.2633 -0.8502 -1.4980
10902TIP3    H254198   6.809   2.968  14.617  3.0867 -0.8318 -1.7328
10903TIP3   OH254199   6.642   1.904   2.474 -0.3366 -0.0717 -0.5190
10903TIP3    H154200   6.713   1.967   2.466 -0.3095  0.1760  1.4006
10903TIP3    H254201   6.684   1.819   2.461 -0.1477  0.2200 -1.8627
10904TIP3   OH254202   0.060   6.801   4.154 -0.2277  0.3820 -0.2542
10904TIP3    H154203   0.094   6.793   4.065  1.4693 -0.3732  0.4448
10904TIP3    H254204  -0.022   6.850   4.144  0.2040  0.7565 -2.1625
10905TIP3   OH254205   5.533   3.817  14.800  0.2826  0.1918  0.3756
10905TIP3    H154206   5.550   3.816  14.895 -1.3369 -0.0798  0.6769
10905TIP3    H254207   5.459   3.876  14.790  1.0792  1.0059 -0.8609
10906TIP3   OH254208   6.534   3.678  12.380 -0.2495 -1.0072 -0.3786
10906TIP3    H154209   6.609   3.619  12.381 -2.7710 -4.3758  1.9002
10906TIP3    H254210   6.472   3.637  12.320 -1.1293  0.5711 -0.5737
10907TIP3   OH254211   5.681   1.440   5.315  0.1087 -0.5703 -0.2140
10907TIP3    H154212   5.701   1.397   5.231  1.9988  1.6647 -0.9461
10907TIP3    H254213   5.766   1.446   5.359 -0.5556  0.1453  0.9709
10908TIP3   OH254214   2.213   2.724  17.077 -0.1505  0.1861 -0.2025
10908TIP3    H154215   2.146   2.786  17.049  0.2994 -0.3084 -2.4497
10908TIP3    H254216   2.183   2.639  17.043  0.5266 -0.4048  0.6452
10909TIP3   OH254217   0.493   3.728  15.207 -0.6869  0.1477  0.0326
10909TIP3    H154218   0.551   3.727  15.131 -0.6456 -0.5237  0.0685
10909TIP3    H254219   0.541   3.778  15.273 -0.6193  0.5261 -0.3000
10910TIP3   OH254220   6.724   0.980   0.826  0.4170  0.0569  0.6284
10910TIP3    H154221   6.734   0.995   0.920  0.7374  0.1684  0.5763
10910TIP3    H254222   6.724   1.067   0.788  3.2945 -0.0656  0.2254
10911TIP3   OH254223   6.161   0.334  11.260 -0.0345  0.3576 -0.3069
10911TIP3    H154224   6.066   0.331  11.247  0.0067 -0.4387 -0.4989
10911TIP3    H254225   6.197   0.336  11.171  0.1743 -1.9296 -0.3167
10912TIP3   OH254226   2.518   2.447  12.204 -0.3481 -0.1640 -0.2408
10912TIP3    H154227   2.457   2.456  12.131  1.8271 -1.4753 -2.3028
10912TIP3    H254228   2.507   2.357  12.234  0.9751 -0.6048 -1.0334
10913TIP3   OH254229   4.774   0.156  14.705  0.1150 -0.4084  0.4040
10913TIP3    H154230   4.856   0.204  14.714  1.7751 -3.1862  0.6251
10913TIP3    H254231   4.747   0.172  14.614  0.5386  1.0216  0.5109
10914TIP3   OH254232   2.679   3.977  16.732 -0.4630  0.1831  0.6759
10914TIP3    H154233   2.734   3.900  16.719 -0.6155  0.0625  0.7436
10914TIP3    H254234   2.618   3.977  16.659 -0.4871  0.2186  0.6944
10915TIP3   OH254235   3.169   6.521  16.323  0.4409  0.2936  0.9503
10915TIP3    H154236   3.187   6.553  16.235 -1.7642  1.8935  1.0156
10915TIP3    H254237   3.168   6.600  16.377  0.0524 -0.4765  2.0850
10916TIP3   OH254238   2.206   3.994  14.378  0.3709  0.5946  0.0589
10916TIP3    H154239   2.127   4.049  14.375 -0.0010  0.1424  1.3050
10916TIP3    H254240   2.275   4.054  14.405  0.2311  0.7430  0.0931
10917TIP3   OH254241   0.788   4.005  11.883 -0.0456  0.1856 -0.2241
10917TIP3    H154242   0.712   4.061  11.872  1.2427  1.9406 -0.2856
10917TIP3    H254243   0.816   4.019  11.973  0.2937 -0.3626 -0.2389
10918TIP3   OH254244   1.351   1.276  11.300  0.0061 -0.5700 -0.5220
10918TIP3    H154245   1.365   1.183  11.315 -0.3917 -0.2553  1.9592
10918TIP3    H254246   1.438   1.311  11.283  0.4408 -1.0523  0.6587
10919TIP3   OH254247   1.450   2.635   4.096 -0.1311  0.3786 -0.1487
10919TIP3    H154248   1.545   2.623   4.106 -0.4377 -1.7300  0.5843
10919TIP3    H254249   1.429   2.594   4.012 -0.1340  2.4846 -1.1858
10920TIP3   OH254250   6.567   0.965   5.258 -0.4559  0.6682  0.5480
10920TIP3    H154251   6.538   0.876   5.279  0.9655 -0.3738 -1.8001
10920TIP3    H254252   6.490   1.019   5.276 -1.8256 -1.2228  0.5156
10921TIP3   OH254253   6.583   5.723  16.768 -0.5079  0.2723  0.4233
10921TIP3    H154254   6.574   5.818  16.763 -2.4412  0.1465  1.1293
10921TIP3    H254255   6.544   5.691  16.687  1.5401  0.1359 -0.5399
10922TIP3   OH254256   3.376   1.074  14.304 -0.1793  0.3065  0.1377
10922TIP3    H154257   3.399   1.035  14.220  0.8486  0.6000  0.2633
10922TIP3    H254258   3.419   1.018  14.369  0.7772  1.2563  0.3472
10923TIP3   OH254259   6.531   6.796  14.812 -0.2765 -0.1841 -0.4061
10923TIP3    H154260   6.437   6.815  14.813 -0.0981  0.7324  1.3261
10923TIP3    H254261   6.572   6.882  14.814  0.5893 -0.6157  0.4884
10924TIP3   OH254262   2.501   2.816   2.021  0.1540 -0.3098 -0.2720
10924TIP3    H154263   2.554   2.855   2.090  0.2067  0.1344 -0.5641
10924TIP3    H254264   2.492   2.724   2.047 -0.2663 -0.0239  0.5922
10925TIP3   OH254265   0.973   3.926  13.522 -0.2892 -0.0064  0.3133
10925TIP3    H154266   0.890   3.967  13.497 -0.0927  0.6506  0.7269
10925TIP3    H254267   1.016   3.907  13.438 -0.3438  0.7180  0.1164
10926TIP3   OH254268   5.354   2.613  16.940  0.0806  0.3258 -0.1849
10926TIP3    H154269   5.417   2.683  16.924  0.2741 -0.1273 -1.4238
10926TIP3    H254270   5.312   2.598  16.855  0.7379 -1.7354 -0.1669
10927TIP3   OH254271   5.333   2.397  12.708  0.1372  0.2967  0.3461
10927TIP3    H154272   5.343   2.483  12.668 -3.1525  1.1603  1.1868
10927TIP3    H254273   5.284   2.346  12.643 -2.9672  0.9109  2.1104
10928TIP3   OH254274   3.300   0.829  11.925  0.1451  0.2951  0.3357
10928TIP3    H154275   3.267   0.917  11.910 -1.3915  0.0473  1.9940
10928TIP3    H254276   3.221   0.774  11.923  0.9494 -0.8701  0.4599
10929TIP3   OH254277   0.358   1.870  11.002  0.4387 -0.5939 -0.1510
10929TIP3    H154278   0.310   1.788  11.006  2.1291 -1.5436  1.9661
10929TIP3    H254279   0.307   1.925  10.943 -0.6556 -3.1933 -1.7396
10930TIP3   OH254280   6.543   6.106   1.047  0.0458  0.1865  0.5630
10930TIP3    H154281   6.620   6.083   1.099  0.5254  1.5325  0.4603
10930TIP3    H254282   6.562   6.073   0.960 -0.0858 -0.6731  0.8503
10931TIP3   OH254283   4.833   2.358   6.147  0.4172  0.7151 -0.3116
10931TIP3    H154284   4.787   2.349   6.230  0.9217  1.9234  0.1147
10931TIP3    H254285   4.765   2.351   6.080 -0.3804  2.3658  0.2976
10932TIP3   OH254286   3.133   1.277   3.106  0.3267  0.2537  0.4737
10932TIP3    H154287   3.052   1.277   3.157 -0.5705  3.9542 -0.7557
10932TIP3    H254288   3.203   1.272   3.171 -0.8513 -1.8460  1.6225
10933TIP3   OH254289   0.371   4.445   5.308 -0.2757 -0.6939 -0.0262
10933TIP3    H154290   0.453   4.408   5.341  0.5261  0.7016 -0.3817
10933TIP3    H254291   0.398   4.524   5.261 -1.9071  0.2133  0.5299
10934TIP3   OH254292   2.836   2.953  17.083  0.4241 -0.1429  0.1047
10934TIP3    H154293   2.890   2.949  17.162  2.1538  0.7606 -1.0030
10934TIP3    H254294   2.841   2.864  17.046  2.0405  0.1800 -0.5289
10935TIP3   OH254295   0.513   1.405   3.641  0.1912  0.1637  0.3032
10935TIP3    H154296   0.546   1.488   3.605 -1.7078  1.0830  0.6127
10935TIP3    H254297   0.497   1.351   3.564 -0.1138  0.6760  0.0069
10936TIP3   OH254298   3.439   0.454  13.155  0.2975  0.5120  0.5669
10936TIP3    H154299   3.506   0.507  13.112  0.6673  0.1103  0.6442
10936TIP3    H254300   3.448   0.367  13.116  0.2408  0.2954  1.0350
10937TIP3   OH254301   0.322   0.080   4.040  0.3579 -0.1028  0.5222
10937TIP3    H154302   0.359   0.119   3.961  1.2660 -1.8824  0.0392
10937TIP3    H254303   0.320   0.151   4.104 -0.7560  1.4583 -1.2079
10938TIP3   OH254304   3.326   0.635   4.819  0.3172 -0.4070  0.5000
10938TIP3    H154305   3.380   0.592   4.885 -1.0619  0.1328  2.0251
10938TIP3    H254306   3.247   0.581   4.813  0.0509  0.0320 -0.0467
10939TIP3   OH254307   5.425   4.213  11.532  1.0993 -0.2001 -0.1924
10939TIP3    H154308   5.449   4.294  11.578 -0.3466  0.7690 -1.1077
10939TIP3    H254309   5.368   4.242  11.461 -1.5331 -2.2684  1.0059
10940TIP3   OH254310   0.257   0.247  17.040  0.0084 -0.4275  0.3798
10940TIP3    H154311   0.168   0.282  17.048  0.4565  0.4807  1.5997
10940TIP3    H254312   0.285   0.231  17.130  1.0309 -0.8400  0.0001
10941TIP3   OH254313   3.828   6.303   5.493 -0.2655  0.0695 -0.7341
10941TIP3    H154314   3.744   6.341   5.521  0.2208  1.0237 -0.5529
10941TIP3    H254315   3.833   6.321   5.399  0.7644  2.0424 -0.3300
10942TIP3   OH254316   5.757   2.708  16.139  0.0619 -0.9100  0.0298
10942TIP3    H154317   5.674   2.685  16.096  0.0127 -3.8866  1.5291
10942TIP3    H254318   5.738   2.698  16.233  2.0044 -1.2246  0.4019
10943TIP3   OH254319   3.883   3.582  11.182  0.3634 -0.5787  0.2202
10943TIP3    H154320   3.905   3.516  11.117  0.4066 -0.1929 -0.1565
10943TIP3    H254321   3.948   3.570  11.252  1.4452  0.1914 -0.6301
10944TIP3   OH254322   1.643   4.467   2.138 -0.6812 -0.5408  0.7984
10944TIP3    H154323   1.621   4.445   2.048  1.5836  0.3244  0.0039
10944TIP3    H254324   1.641   4.383   2.185  1.4271 -1.5027 -0.7841
10945TIP3   OH254325   4.769   5.120   1.973 -0.0149 -0.5323  0.4781
10945TIP3    H154326   4.689   5.120   2.027  0.3288  0.1995  1.0052
10945TIP3    H254327   4.737   5.128   1.883 -0.5900 -1.6272  0.5724
10946TIP3   OH254328   4.369   2.568   4.910  0.5661  0.1045  0.2309
10946TIP3    H154329   4.454   2.533   4.938  1.5965  1.8349 -0.6551
10946TIP3    H254330   4.347   2.518   4.832  2.2938  1.7342 -1.3574
10947TIP3   OH254331   4.570   3.806   5.133 -0.2361 -0.3537  0.0783
10947TIP3    H154332   4.530   3.768   5.212 -0.6007  1.2607  0.6935
10947TIP3    H254333   4.623   3.735   5.096 -0.9118 -1.4525  1.1910
10948TIP3   OH254334   1.002   1.923   0.764 -0.6164 -0.4083  0.0241
10948TIP3    H154335   0.921   1.883   0.733 -0.7692 -2.2626  2.6279
10948TIP3    H254336   1.069   1.857   0.747 -0.2878 -0.3989  1.2315
10949TIP3   OH254337   4.900   5.120   0.520 -0.6183  0.4399 -0.1584
10949TIP3    H154338   4.820   5.147   0.476 -0.3371  2.0354  0.2590
10949TIP3    H254339   4.880   5.035   0.558 -2.2478  1.0304  0.3170
10950TIP3   OH254340   3.857   5.074  16.174  0.0764 -0.4169 -0.1157
10950TIP3    H154341   3.890   5.054  16.086  1.2423 -0.7832  0.3969
10950TIP3    H254342   3.847   4.988  16.216  2.6962 -0.1282  1.2293
10951TIP3   OH254343   0.197   4.109   5.013  0.0660 -0.1724  0.4749
10951TIP3    H154344   0.127   4.112   4.947 -0.1894 -0.2368  0.7424
10951TIP3    H254345   0.272   4.073   4.967 -0.4414 -1.2946  0.5248
10952TIP3   OH254346   0.336   4.096   4.751 -0.4044  0.3904  0.0404
10952TIP3    H154347   0.278   4.060   4.683 -0.4001 -0.2161  0.3576
10952TIP3    H254348   0.393   4.156   4.703 -1.0515  0.7131 -0.3370
10953TIP3   OH254349   3.373   2.275   5.247  0.5182 -0.3786  0.7794
10953TIP3    H154350   3.352   2.364   5.276  1.7366  0.0791  0.2515
10953TIP3    H254351   3.345   2.273   5.156  1.0952 -0.3434  0.6052
10954TIP3   OH254352   4.615   0.305   6.774 -0.2710  0.0686  0.0124
10954TIP3    H154353   4.541   0.268   6.822 -0.2993 -0.1205 -0.1757
10954TIP3    H254354   4.668   0.229   6.749  0.5355  0.2815  1.0402
10955TIP3   OH254355   3.851   4.561  17.287  0.2651  0.4030  0.1276
10955TIP3    H154356   3.779   4.556  17.225  1.2481 -0.8752 -0.9235
10955TIP3    H254357   3.821   4.623  17.354 -2.0687 -0.6085  0.0534
10956TIP3   OH254358   3.318   4.522  11.137  0.2101  0.1072 -0.3011
10956TIP3    H154359   3.391   4.544  11.079 -0.9059  0.9684 -1.3995
10956TIP3    H254360   3.243   4.567  11.100 -0.5954  0.4474  1.6720
10957TIP3   OH254361   2.839   6.126  14.247  0.3606  0.3211 -0.1441
10957TIP3    H154362   2.808   6.115  14.157  0.8419  1.4470 -0.4638
10957TIP3    H254363   2.847   6.221  14.258 -0.9369  0.2582  1.5147
10958TIP3   OH254364   5.785   5.373  14.746 -0.0829 -0.1695  0.5975
10958TIP3    H154365   5.836   5.309  14.795 -0.2953 -0.0952  0.9143
10958TIP3    H254366   5.717   5.402  14.806 -0.0861  0.2351  0.4035
10959TIP3   OH254367   3.928   4.640  13.025  0.6666 -0.2320 -0.3776
10959TIP3    H154368   3.958   4.570  13.083  2.5001 -0.8545 -2.0175
10959TIP3    H254369   3.850   4.605  12.981 -0.0021 -0.2114  0.7888
10960TIP3   OH254370   2.408   3.603   1.646 -0.6894 -0.8246 -0.3457
10960TIP3    H154371   2.350   3.666   1.603  0.6307  0.7180  0.1146
10960TIP3    H254372   2.408   3.629   1.738  2.3249  0.4761 -0.6569
10961TIP3   OH254373   1.504   1.524  11.751 -0.3989 -0.1621 -0.3568
10961TIP3    H154374   1.466   1.574  11.824 -0.4875  0.1065 -0.5822
10961TIP3    H254375   1.428   1.501  11.697 -0.2102  0.6888 -1.0031
10962TIP3   OH254376   2.267   1.565   0.224 -0.5218 -0.3790  0.2536
10962TIP3    H154377   2.209   1.634   0.193 -1.3008 -0.3133  1.8330
10962TIP3    H254378   2.261   1.497   0.157 -2.5749 -0.4563  0.5015
10963TIP3   OH254379   1.491   1.324   0.699 -0.1971 -0.6923  0.0462
10963TIP3    H154380   1.406   1.291   0.668 -0.7831 -0.3701  1.2778
10963TIP3    H254381   1.543   1.334   0.620 -2.3212  2.0285 -1.1164
10964TIP3   OH254382   2.453   0.876  11.153 -0.4226  0.2080  0.2689
10964TIP3    H154383   2.509   0.831  11.089 -1.5490 -1.2031  0.2649
10964TIP3    H254384   2.366   0.873  11.114 -0.9281  0.2622  1.4028
10965TIP3   OH254385   3.067   0.365  16.405 -0.1816 -0.1329 -0.0842
10965TIP3    H154386   2.981   0.408  16.399 -0.2833 -0.1242  1.1553
10965TIP3    H254387   3.098   0.387  16.493  0.6509 -0.9676 -0.1618
10966TIP3   OH254388   1.228   1.291   0.283 -0.4044 -0.2817 -0.1172
10966TIP3    H154389   1.303   1.268   0.229  0.0449 -1.3248  0.9430
10966TIP3    H254390   1.264   1.343   0.355 -0.9552  0.8001 -0.5990
10967TIP3   OH254391   1.776   4.401  10.636  0.4901 -0.0214 -0.1649
10967TIP3    H154392   1.768   4.436  10.547  3.0342 -0.7409 -0.7221
10967TIP3    H254393   1.762   4.307  10.626 -0.9660  0.1160  0.4878
10968TIP3   OH254394   0.756   3.103   2.390  0.0648  0.0793 -0.4620
10968TIP3    H154395   0.730   3.041   2.459 -0.9354  1.1872  0.1722
10968TIP3    H254396   0.753   3.051   2.310 -1.3272 -0.5750 -0.0118
10969TIP3   OH254397   4.006   2.527   5.775  0.1041  0.3268  0.5555
10969TIP3    H154398   4.100   2.516   5.759 -0.3656 -0.7644 -1.5940
10969TIP3    H254399   3.999   2.614   5.815  1.8209  1.4479 -1.4451
10970TIP3   OH254400   4.759   1.104   1.817 -0.1259  0.9993 -0.3453
10970TIP3    H154401   4.715   1.113   1.733 -2.2481  0.2857  0.6616
10970TIP3    H254402   4.800   1.018   1.815  0.5804  1.3472 -0.9812
10971TIP3   OH254403   2.886   1.358   2.854  0.5993 -0.2828  1.0233
10971TIP3    H154404   2.922   1.341   2.767 -0.6268  0.5891  0.3369
10971TIP3    H254405   2.936   1.433   2.886 -0.6709  1.0241  0.0080
10972TIP3   OH254406   4.926   3.238  14.141 -0.3561 -0.5835 -0.1644
10972TIP3    H154407   4.916   3.146  14.165  0.6289 -0.5317  0.4870
10972TIP3    H254408   4.997   3.269  14.197 -3.0079  1.5216  2.1731
10973TIP3   OH254409   1.711   0.671  11.849  0.0517 -0.1952  0.0149
10973TIP3    H154410   1.721   0.630  11.763 -1.5386  0.1386 -0.3440
10973TIP3    H254411   1.713   0.598  11.910  1.5742 -0.4024 -0.2584
10974TIP3   OH254412   4.407   2.194  10.718 -0.2661 -0.0961 -0.2001
10974TIP3    H154413   4.483   2.239  10.680 -0.5259  1.7500  1.3819
10974TIP3    H254414   4.441   2.109  10.746  1.1234  0.5639  0.1444
10975TIP3   OH254415   5.038   3.355   5.836  0.3284  0.8425  0.1293
10975TIP3    H154416   5.120   3.368   5.788 -0.4408  1.4879 -1.0301
10975TIP3    H254417   4.985   3.431   5.814 -0.3333  0.7686  1.4203
10976TIP3   OH254418   1.734   5.532  14.815  0.3236  0.2824  0.5391
10976TIP3    H154419   1.756   5.442  14.841  1.7058  0.1286 -1.0727
10976TIP3    H254420   1.640   5.531  14.800  0.6498 -1.4400 -1.5316
10977TIP3   OH254421   5.627   6.692   3.222 -0.2894 -0.2137 -0.5946
10977TIP3    H154422   5.713   6.723   3.249  0.1220 -0.0450 -2.0504
10977TIP3    H254423   5.626   6.599   3.245  0.2470 -0.1990 -0.5229
10978TIP3   OH254424   4.332   6.639   4.345  0.2687 -0.7140  0.0105
10978TIP3    H154425   4.386   6.606   4.274 -0.1188  1.9507 -1.5756
10978TIP3    H254426   4.261   6.575   4.352  1.3650 -2.0310 -0.6591
10979TIP3   OH254427   3.684   0.621   0.327 -0.1522  0.0380  0.6009
10979TIP3    H154428   3.653   0.703   0.367 -0.7957  0.2368 -0.2817
10979TIP3    H254429   3.616   0.557   0.347  0.2944 -0.2453  1.1907
10980TIP3   OH254430   5.255   4.055  11.207 -0.3317  0.5667 -0.0571
10980TIP3    H154431   5.249   4.051  11.111 -0.3219 -1.7546  0.0100
10980TIP3    H254432   5.179   4.006  11.238  0.7615 -0.4420  1.0924
10981TIP3   OH254433   5.152   5.015  16.316  0.0693 -0.0261  0.6315
10981TIP3    H154434   5.241   5.022  16.281 -0.9210 -0.3442 -2.0349
10981TIP3    H254435   5.102   4.970  16.247 -2.7526  2.4066  1.0123
10982TIP3   OH254436   5.937   2.505  14.664  0.3159 -0.3173 -0.2025
10982TIP3    H154437   5.893   2.421  14.676  0.7929 -0.5028  0.2373
10982TIP3    H254438   6.002   2.489  14.596  0.1622 -0.2116 -0.3759
10983TIP3   OH254439   2.997   6.341   5.290  0.1363  0.1213 -0.0068
10983TIP3    H154440   3.013   6.429   5.324 -1.0926 -0.3681  1.9548
10983TIP3    H254441   3.083   6.299   5.291  0.6403  1.1282 -0.4600
10984TIP3   OH254442   3.230   5.062   3.531  0.2192  0.0625  0.2056
10984TIP3    H154443   3.274   5.134   3.576  0.6017 -0.8773  1.3554
10984TIP3    H254444   3.296   5.024   3.474 -0.4326  1.6441 -1.6668
10985TIP3   OH254445   2.956   2.362  10.788 -0.0555  0.3895 -0.1446
10985TIP3    H154446   2.965   2.439  10.731 -0.2593  1.4979  1.3036
10985TIP3    H254447   3.034   2.310  10.769  0.3008  1.1479 -0.8445
10986TIP3   OH254448   2.591   1.412  11.726  0.4507 -0.0329 -0.0138
10986TIP3    H154449   2.622   1.502  11.712  2.1059 -0.6625 -0.5627
10986TIP3    H254450   2.509   1.408  11.677  0.7012  0.9939 -0.5561
10987TIP3   OH254451   0.383   5.928   4.268 -0.6465  0.0349  0.0984
10987TIP3    H154452   0.365   6.021   4.283  2.1304  0.4121  1.6839
10987TIP3    H254453   0.467   5.927   4.222 -0.6593 -1.6693  0.0696
10988TIP3   OH254454   0.086   0.610   3.301  0.2764  0.0219 -0.3062
10988TIP3    H154455   0.158   0.672   3.295  0.2369  0.0951 -0.0406
10988TIP3    H254456   0.053   0.602   3.211 -0.0557  0.7878 -0.2588
10989TIP3   OH254457   1.947   5.645   3.215 -0.3753 -0.1199  0.4864
10989TIP3    H154458   2.008   5.619   3.145 -0.4350 -1.0756  0.7846
10989TIP3    H254459   1.863   5.653   3.170 -0.1519  0.6103  0.1888
10990TIP3   OH254460   0.914   6.051  14.016  0.0005 -0.4549 -0.1898
10990TIP3    H154461   0.902   6.129  13.961 -1.3269  1.4618  2.6747
10990TIP3    H254462   0.842   5.993  13.993 -2.5586  1.8050  1.8263
10991TIP3   OH254463   0.442   0.953   2.353  0.1631 -0.0298 -0.2001
10991TIP3    H154464   0.498   0.875   2.353  0.6744  0.3321  0.3760
10991TIP3    H254465   0.485   1.013   2.415 -1.5598 -0.2489  1.2418
10992TIP3   OH254466   4.387   2.648   5.511  0.2762  0.2257 -0.1008
10992TIP3    H154467   4.354   2.594   5.439 -0.2007 -0.5205  0.6636
10992TIP3    H254468   4.476   2.669   5.486 -0.4224  1.3649 -1.6943
10993TIP3   OH254469   1.955   3.547  15.027 -0.0386  0.7380 -0.2629
10993TIP3    H154470   1.960   3.543  14.931 -0.5471 -0.2971 -0.2529
10993TIP3    H254471   1.865   3.574  15.045  0.4203  2.1821 -0.0947
10994TIP3   OH254472   5.717   0.493  13.204  0.1446 -0.1385 -0.3082
10994TIP3    H154473   5.683   0.492  13.115  0.9762 -0.2020 -0.6257
10994TIP3    H254474   5.812   0.489  13.194  0.2434 -0.1197  0.5775
10995TIP3   OH254475   1.655   5.443   4.869 -0.0152  0.0224  0.1169
10995TIP3    H154476   1.670   5.516   4.809 -0.6182  0.5609  0.6152
10995TIP3    H254477   1.561   5.426   4.863  0.3349 -1.6324 -1.0392
10996TIP3   OH254478   3.938   3.354   0.357  0.8379  0.0893  0.5819
10996TIP3    H154479   3.995   3.313   0.423  1.5565  0.2972  0.0891
10996TIP3    H254480   3.977   3.330   0.274 -0.9763 -1.5382  0.1570
10997TIP3   OH254481   1.615   2.600  16.758 -0.1469  0.4097  0.1580
10997TIP3    H154482   1.623   2.695  16.765 -0.0253  0.4949 -1.0209
10997TIP3    H254483   1.670   2.577  16.683 -2.7503 -0.2093 -1.6285
10998TIP3   OH254484   4.348   5.743  12.554 -0.0048 -0.9533  0.2297
10998TIP3    H154485   4.365   5.709  12.466  0.2909 -0.1981 -0.0066
10998TIP3    H254486   4.419   5.805  12.570 -0.2263 -0.8668  0.8855
10999TIP3   OH254487   0.146   2.792   0.089  0.4107  0.3024 -0.6177
10999TIP3    H154488   0.107   2.791   0.176 -0.6619 -0.8032 -1.1044
10999TIP3    H254489   0.075   2.767   0.030  1.6040 -0.8097 -1.6118
11000TIP3   OH254490   6.468   0.390   4.833 -0.2636  0.4204  0.0754
11000TIP3    H154491   6.525   0.327   4.789 -2.7328 -1.6421 -0.3062
11000TIP3    H254492   6.521   0.468   4.843  1.8740 -0.6687 -2.3201
11001TIP3   OH254493   5.937   2.298  11.147 -0.0852 -0.0300  0.1705
11001TIP3    H154494   5.970   2.378  11.107  0.6391 -0.2946  0.2357
11001TIP3    H254495   5.944   2.314  11.241  2.2720 -1.0714  0.1885
11002TIP3   OH254496   1.585   6.297  12.304  0.3977 -0.2753 -0.4700
11002TIP3    H154497   1.530   6.233  12.350 -1.1460  0.8497 -0.7065
11002TIP3    H254498   1.671   6.288  12.345  0.0100 -1.9428  0.0328
11003TIP3   OH254499   6.626   1.215   0.702 -0.1411  0.3989  0.1386
11003TIP3    H154500   6.556   1.151   0.689 -0.7073  0.9218  0.5990
11003TIP3    H254501   6.624   1.269   0.622  0.2068 -0.0259 -0.1617
11004TIP3   OH254502   4.767   6.183   3.934  0.1790 -0.2273 -0.5679
11004TIP3    H154503   4.800   6.128   4.005  1.4746 -0.7889 -1.5949
11004TIP3    H254504   4.840   6.191   3.874 -0.1551  2.1650 -0.7182
11005TIP3   OH254505   2.105   0.658   0.895 -0.5420  0.2055 -0.2753
11005TIP3    H154506   2.061   0.597   0.836 -0.1976 -0.4336  0.1317
11005TIP3    H254507   2.198   0.642   0.882 -0.3973  1.9338 -1.5264
11006TIP3   OH254508   4.013   4.458   2.279 -0.1385  0.6588 -0.2378
11006TIP3    H154509   4.062   4.392   2.230 -0.7122 -0.0476  0.1108
11006TIP3    H254510   4.066   4.473   2.358 -1.2378 -1.2777  0.8994
11007TIP3   OH254511   6.166   3.757   2.417  0.2981  0.3526 -0.3296
11007TIP3    H154512   6.261   3.748   2.428  0.3557 -0.8529 -1.5803
11007TIP3    H254513   6.156   3.823   2.348  0.1643  2.0011  1.2568
11008TIP3   OH254514   1.990   5.317  12.138 -0.1349 -0.0197  0.1236
11008TIP3    H154515   1.941   5.255  12.085 -1.8256  0.8178  0.6470
11008TIP3    H254516   2.073   5.328  12.092 -1.0453 -0.2892 -1.6433
11009TIP3   OH254517   6.633   0.496  13.245 -0.0440 -0.3890 -0.2707
11009TIP3    H154518   6.552   0.512  13.198 -0.7709  0.0153  1.0856
11009TIP3    H254519   6.610   0.507  13.337  1.5994 -0.0762  0.1220
11010TIP3   OH254520   3.506   2.480   4.821 -0.3458  0.4159  0.1172
11010TIP3    H154521   3.514   2.475   4.726 -0.8556 -0.2798  0.1079
11010TIP3    H254522   3.569   2.416   4.854 -1.0657 -0.2466  0.2128
11011TIP3   OH254523   0.689   6.814  11.076  0.5974 -0.6673  0.0048
11011TIP3    H154524   0.771   6.852  11.047  0.8928 -0.5203  1.0179
11011TIP3    H254525   0.625   6.842  11.010  0.9953  0.7788  0.2214
11012TIP3   OH254526   5.617   1.823   1.057 -0.1703 -0.3853  0.1183
11012TIP3    H154527   5.611   1.882   0.982 -0.2036  0.2304  0.5974
11012TIP3    H254528   5.681   1.865   1.115  1.6121 -2.0316 -0.6071
11013TIP3   OH254529   2.917   0.639   5.745  0.5781 -0.0281 -0.8292
11013TIP3    H154530   2.990   0.686   5.784  1.8032 -1.2847 -1.5438
11013TIP3    H254531   2.920   0.663   5.652  1.8995 -2.3037 -1.4171
11014TIP3   OH254532   0.847   0.440   5.538  0.2167 -0.1273 -0.2272
11014TIP3    H154533   0.795   0.383   5.481  0.1387 -0.4021  0.1179
11014TIP3    H254534   0.817   0.528   5.517 -2.1539 -0.4360  1.7068
11015TIP3   OH254535   6.134   5.537   1.687  0.1511 -1.1443  0.5136
11015TIP3    H154536   6.090   5.560   1.769  0.8971 -0.1184  0.6497
11015TIP3    H254537   6.164   5.447   1.699  0.3481 -0.9587  1.4234
11016TIP3   OH254538   4.897   0.743  14.812 -0.4949  0.5084  0.0039
11016TIP3    H154539   4.978   0.709  14.777  0.8470  3.5482  0.0021
11016TIP3    H254540   4.829   0.713  14.751  1.2995  2.4369 -3.0630
11017TIP3   OH254541   2.376   4.355  11.076  0.1172 -0.0023 -0.2123
11017TIP3    H154542   2.365   4.275  11.128  1.9490  0.2574  0.6350
11017TIP3    H254543   2.458   4.393  11.109  0.0778  1.4013 -1.6877
11018TIP3   OH254544   1.010   1.064  16.661  0.1545  0.4582  0.1837
11018TIP3    H154545   0.934   1.123  16.663  0.7301  1.2390 -0.5598
11018TIP3    H254546   1.082   1.118  16.693  0.5940  0.0030 -0.0429
11019TIP3   OH254547   0.044   6.246   3.022 -0.2044  0.7375 -0.0528
11019TIP3    H154548   0.020   6.242   2.929  0.4110  4.1000 -0.4063
11019TIP3    H254549   0.139   6.232   3.022 -0.4268 -0.9515  0.2805
11020TIP3   OH254550   2.722   6.534  11.486 -0.0516  0.0852 -0.8204
11020TIP3    H154551   2.714   6.439  11.489  0.3351  0.0822  0.1785
11020TIP3    H254552   2.706   6.563  11.576 -2.1133  1.1200 -1.4844
11021TIP3   OH254553   5.968   3.499   4.232 -0.1687 -0.1746  0.4908
11021TIP3    H154554   5.998   3.575   4.181  1.0379 -1.1877 -0.3476
11021TIP3    H254555   5.906   3.455   4.173  0.1454 -0.5651  0.4511
11022TIP3   OH254556   4.547   4.193  15.609 -0.1412  0.2743  0.0609
11022TIP3    H154557   4.616   4.139  15.570 -1.1029 -0.1232 -1.1366
11022TIP3    H254558   4.548   4.273  15.557 -0.6544  0.2171 -0.0382
11023TIP3   OH254559   5.201   2.956  14.708 -0.1079  0.4360  0.3801
11023TIP3    H154560   5.107   2.972  14.715  0.2024  2.9265 -0.6518
11023TIP3    H254561   5.222   2.972  14.617  1.3046 -0.3381  0.5494
11024TIP3   OH254562   2.597   4.435   0.192 -0.2664 -0.5467  0.1847
11024TIP3    H154563   2.691   4.416   0.186  0.0560  0.7961  0.7288
11024TIP3    H254564   2.578   4.488   0.115  0.2214  2.2617  1.9453
11025TIP3   OH254565   1.047   3.833  16.800 -0.1329  0.0816 -0.8143
11025TIP3    H154566   1.020   3.922  16.824  0.8775  1.0650 -3.1699
11025TIP3    H254567   0.984   3.777  16.844 -0.8699  1.9747  0.6313
11026TIP3   OH254568   4.856   1.354  12.067  0.1770 -0.0228 -0.2029
11026TIP3    H154569   4.918   1.398  12.008 -1.7889  1.8162 -0.9515
11026TIP3    H254570   4.885   1.380  12.155  2.4374 -1.8624 -0.3585
11027TIP3   OH254571   0.988   3.127  13.517 -0.0511 -0.2081  0.0353
11027TIP3    H154572   0.945   3.076  13.448 -0.2591 -0.3429  0.2639
11027TIP3    H254573   0.955   3.216  13.504  0.7727 -0.0049 -0.7378
11028TIP3   OH254574   2.071   0.442  14.118 -0.2346  0.6272  0.3245
11028TIP3    H154575   2.144   0.481  14.166 -1.1074  1.1572  1.2488
11028TIP3    H254576   1.997   0.450  14.178 -1.4551  1.7563 -1.3267
11029TIP3   OH254577   1.759   0.572   0.751  0.5421 -0.0496 -0.3659
11029TIP3    H154578   1.826   0.513   0.717 -1.0806 -1.2854 -1.4437
11029TIP3    H254579   1.807   0.654   0.768  2.2997 -0.8628 -1.2168
11030TIP3   OH254580   5.473   3.911   2.954 -0.0338  0.1411  0.4173
11030TIP3    H154581   5.458   3.934   3.046 -0.5109 -1.5020  0.7703
11030TIP3    H254582   5.514   3.824   2.957 -1.1935 -0.4834 -0.9585
11031TIP3   OH254583   4.180   4.411  10.270 -0.5465  0.3493 -0.4188
11031TIP3    H154584   4.200   4.453  10.353 -0.6056 -0.0409 -0.2040
11031TIP3    H254585   4.242   4.449  10.208 -0.3412  0.4642 -0.1454
11032TIP3   OH254586   2.970   3.150  11.301 -0.2396 -0.0224 -0.3093
11032TIP3    H154587   3.034   3.080  11.287 -1.6163 -1.4335  0.2729
11032TIP3    H254588   2.898   3.108  11.349 -0.6934  2.0099  0.8617
11033TIP3   OH254589   3.571   5.155  15.616 -0.3665 -0.6474 -0.1404
11033TIP3    H154590   3.497   5.161  15.676 -0.1409 -0.9560  0.1689
11033TIP3    H254591   3.588   5.062  15.607  0.8797 -0.5390  0.9078
11034TIP3   OH254592   1.006   4.438   3.032 -0.2237 -0.1063  0.6360
11034TIP3    H154593   1.084   4.474   2.990 -0.0783  0.0539  1.0448
11034TIP3    H254594   0.935   4.496   3.003 -0.1934 -0.2628  0.2490
11035TIP3   OH254595   5.757   4.917   1.302 -0.0137 -0.2264  0.0224
11035TIP3    H154596   5.820   4.904   1.231  0.6568 -3.8665  1.1829
11035TIP3    H254597   5.812   4.931   1.380 -0.7210  0.9482  0.3216
11036TIP3   OH254598   0.060   3.148  15.915  0.6412  0.2268 -0.0913
11036TIP3    H154599   0.028   3.226  15.960  0.8384  0.4067 -0.2609
11036TIP3    H254600  -0.019   3.098  15.894  0.6680 -0.9549  2.4081
11037TIP3   OH254601   1.062   1.444  14.256  0.1261  0.0964 -0.0425
11037TIP3    H154602   1.032   1.505  14.189  0.3476  1.7688  1.3470
11037TIP3    H254603   1.152   1.471  14.275 -0.0712 -0.0847  1.2085
11038TIP3   OH254604   1.116   6.693  11.903  0.1475  0.1692 -0.5266
11038TIP3    H154605   1.115   6.683  11.998 -1.2494 -0.9775 -0.6440
11038TIP3    H254606   1.160   6.614  11.872 -2.2031 -1.0230 -0.9675
11039TIP3   OH254607   1.710   6.069  12.466  1.8197  0.5735 -0.5703
11039TIP3    H154608   1.735   6.014  12.391  0.0756  0.7422 -1.2882
11039TIP3    H254609   1.678   6.007  12.532 -1.1009  0.7476 -1.7568
11040TIP3   OH254610   4.886   4.693  16.707 -0.1292 -0.2526 -0.4637
11040TIP3    H154611   4.909   4.712  16.798 -2.4081  0.1278  0.0471
11040TIP3    H254612   4.934   4.759  16.656  0.5573  0.0108  0.5069
11041TIP3   OH254613   1.464   5.503  10.809 -0.4206  0.2871 -0.1979
11041TIP3    H154614   1.557   5.518  10.791 -0.4720  0.8903  0.0268
11041TIP3    H254615   1.421   5.518  10.725 -0.2348 -0.7016 -0.4698
11042TIP3   OH254616   5.986   6.739  13.793  0.2631 -0.0030  0.1621
11042TIP3    H154617   5.954   6.800  13.859 -0.0288 -0.5598  0.5379
11042TIP3    H254618   5.927   6.751  13.718  0.9481  1.0470 -0.2292
11043TIP3   OH254619   2.479   3.548  10.611 -0.1063 -0.4741 -0.1110
11043TIP3    H154620   2.557   3.518  10.658  0.8982  1.0011 -0.7955
11043TIP3    H254621   2.436   3.467  10.582  0.6453 -1.3230  1.1040
11044TIP3   OH254622   4.576   2.017   0.885 -0.2044  0.0879  0.3014
11044TIP3    H154623   4.623   2.093   0.851 -1.1669  0.1478 -0.9379
11044TIP3    H254624   4.507   2.055   0.939 -1.5534  0.1781 -1.4315
11045TIP3   OH254625   0.809   4.075  15.321  0.1051  0.1006 -0.4257
11045TIP3    H154626   0.770   4.013  15.383  2.8563 -1.5864 -0.2778
11045TIP3    H254627   0.862   4.133  15.377  0.6502  0.1003 -0.9365
11046TIP3   OH254628   5.205   2.672   1.070 -0.2730 -0.4807  0.3382
11046TIP3    H154629   5.198   2.687   0.976  1.3560 -0.3509  0.2243
11046TIP3    H254630   5.181   2.580   1.082  2.3051 -1.3231 -0.5985
11047TIP3   OH254631   5.593   0.639   0.418  0.0859  0.2162  1.1796
11047TIP3    H154632   5.654   0.568   0.434 -0.2050  0.2972  2.7364
11047TIP3    H254633   5.508   0.596   0.405  0.4119  0.1221 -0.6594
11048TIP3   OH254634   0.256   0.288   1.544 -0.4319  0.2958 -0.4091
11048TIP3    H154635   0.344   0.295   1.507 -0.8450  0.9614 -1.2654
11048TIP3    H254636   0.201   0.259   1.471 -1.0372  0.4674 -0.0263
11049TIP3   OH254637   2.139   3.110  15.743 -0.0471 -0.0689  0.2702
11049TIP3    H154638   2.181   3.067  15.818  1.5299 -0.9507 -1.0770
11049TIP3    H254639   2.172   3.062  15.667  0.0370  2.1451 -1.1274
11050TIP3   OH254640   5.060   0.558   2.604 -0.0064 -0.0088 -0.9975
11050TIP3    H154641   5.094   0.592   2.687 -0.2663 -0.5044 -0.6877
11050TIP3    H254642   4.967   0.545   2.621  0.3288 -2.1056 -0.7191
11051TIP3   OH254643   4.587   4.662   2.178  0.2888  0.5279  0.0096
11051TIP3    H154644   4.494   4.671   2.198  0.0716 -1.0866 -0.1656
11051TIP3    H254645   4.627   4.742   2.211 -0.9880  0.6783  1.2428
11052TIP3   OH254646   5.269   5.359   1.005 -0.0077 -0.1208 -0.0642
11052TIP3    H154647   5.269   5.424   1.075 -1.6778 -0.7019  0.5185
11052TIP3    H254648   5.345   5.381   0.952  0.5383  1.1386  1.1884
11053TIP3   OH254649   4.504   4.568   1.030  0.2749  0.4776 -0.2687
11053TIP3    H154650   4.580   4.509   1.036  0.6303  0.9324 -0.3134
11053TIP3    H254651   4.429   4.509   1.036  0.6259 -0.0479 -0.8654
11054TIP3   OH254652   5.089   3.847  17.168 -0.2840 -0.0526 -0.1801
11054TIP3    H154653   5.051   3.766  17.201 -1.5174  0.8639  0.6937
11054TIP3    H254654   5.019   3.912  17.176 -0.1607  0.5746 -3.2117
11055TIP3   OH254655   2.451   5.109   2.835 -0.1908 -0.0947  0.2225
11055TIP3    H154656   2.531   5.114   2.888 -0.8023  0.7231  1.1064
11055TIP3    H254657   2.434   5.016   2.824  0.5662 -0.2686  0.5144
11056TIP3   OH254658   3.881   3.285  13.596 -0.0976  0.7831  0.3836
11056TIP3    H154659   3.790   3.291  13.625  0.8941  3.5516  3.2040
11056TIP3    H254660   3.888   3.349  13.526 -0.3754  0.3582 -0.0357
11057TIP3   OH254661   0.130   6.465   0.955  0.3593 -0.1690  0.1976
11057TIP3    H154662   0.170   6.415   0.884  1.3703 -0.3087  0.8604
11057TIP3    H254663   0.087   6.399   1.009 -0.9780  0.0035 -0.6391
11058TIP3   OH254664   5.702   1.155   3.519 -0.2440  0.0176 -0.4577
11058TIP3    H154665   5.709   1.250   3.526  0.7103  0.1112 -2.3660
11058TIP3    H254666   5.757   1.122   3.591 -2.5370  0.8659  1.7724
11059TIP3   OH254667   2.164   4.282  10.625  0.4604  0.5404 -0.1262
11059TIP3    H154668   2.227   4.317  10.562  2.5159 -1.0862  0.9975
11059TIP3    H254669   2.151   4.354  10.687  1.1521  0.8930 -0.3853
11060TIP3   OH254670   3.353   2.625   5.640  0.3090 -0.2818  0.9232
11060TIP3    H154671   3.434   2.674   5.651  0.1725  0.2308 -0.3404
11060TIP3    H254672   3.300   2.679   5.582 -0.8283 -0.7527  1.4998
11061TIP3   OH254673   1.499   6.163  11.594 -0.8560 -0.5793 -0.1764
11061TIP3    H154674   1.525   6.182  11.504 -1.9122 -0.1354 -0.3973
11061TIP3    H254675   1.411   6.126  11.586 -0.7469 -1.0309  0.6370
11062TIP3   OH254676   1.196   2.500  14.865 -0.2214  0.0491 -0.2438
11062TIP3    H154677   1.191   2.486  14.770  0.9900  0.1590 -0.3288
11062TIP3    H254678   1.183   2.413  14.903  0.4161 -0.1849 -0.5526
11063TIP3   OH254679   6.504   1.327   5.830 -0.1184 -0.0235 -0.1247
11063TIP3    H154680   6.478   1.339   5.921 -0.7157  0.5690 -0.3630
11063TIP3    H254681   6.524   1.416   5.799 -1.3093 -0.0207 -0.9700
11064TIP3   OH254682   4.850   2.691   2.150 -0.1621 -0.4088  0.0332
11064TIP3    H154683   4.810   2.689   2.236 -2.5890 -1.5290 -1.0701
11064TIP3    H254684   4.799   2.629   2.098  1.2379  0.2400 -2.2092
11065TIP3   OH254685   4.414   0.575  15.108 -0.0593 -0.3383 -0.1168
11065TIP3    H154686   4.383   0.491  15.073  0.7291 -0.6833 -0.0094
11065TIP3    H254687   4.429   0.629  15.031 -3.3390  0.7304 -0.0852
11066TIP3   OH254688   0.413   0.334   4.487  0.3409  0.2161 -0.0947
11066TIP3    H154689   0.381   0.321   4.577  1.2114 -1.3419  0.0134
11066TIP3    H254690   0.336   0.363   4.439 -0.1156  1.1717  1.1774
11067TIP3   OH254691   1.155   1.632   4.972 -0.3083 -0.1615 -0.5456
11067TIP3    H154692   1.155   1.546   5.012 -1.0222  0.0743 -0.0254
11067TIP3    H254693   1.067   1.666   4.988  0.8549  1.8692  1.8555
11068TIP3   OH254694   3.253   3.511  12.515 -0.4525 -0.5676  0.4118
11068TIP3    H154695   3.344   3.483  12.527 -0.8274 -1.3612  1.3927
11068TIP3    H254696   3.214   3.442  12.462 -0.5678 -0.3750  0.2462
11069TIP3   OH254697   1.523   5.984   5.519  0.0724  0.3469  0.2983
11069TIP3    H154698   1.474   6.060   5.550  1.1268  1.3073 -0.3331
11069TIP3    H254699   1.551   6.008   5.431  1.6882 -0.1729  0.6525
11070TIP3   OH254700   4.507   6.093   4.748 -0.4367 -0.3066 -0.5294
11070TIP3    H154701   4.597   6.125   4.751  0.5634 -2.7345 -2.6916
11070TIP3    H254702   4.482   6.083   4.840  2.1105 -1.2730  0.0931
11071TIP3   OH254703   5.697   6.634  14.832 -0.4939  0.2539 -0.5804
11071TIP3    H154704   5.612   6.659  14.796 -0.1699  0.5372 -1.1522
11071TIP3    H254705   5.761   6.687  14.785 -0.0305  0.3910  0.1844
11072TIP3   OH254706   4.702   3.940   5.714  0.1996  0.2838 -0.7218
11072TIP3    H154707   4.695   3.851   5.748 -0.1599 -0.1950 -2.0205
11072TIP3    H254708   4.648   3.992   5.774  1.5992 -0.0859  0.9261
11073TIP3   OH254709   4.443   0.397   4.028 -0.4089 -1.0609  0.3398
11073TIP3    H154710   4.480   0.460   3.965 -3.8142  1.0679  0.3845
11073TIP3    H254711   4.393   0.336   3.973 -0.8468 -1.0414  0.7221
11074TIP3   OH254712   4.174   5.602  16.621  0.3498 -0.1149  0.0016
11074TIP3    H154713   4.195   5.673  16.560  1.9043 -1.4505 -1.0899
11074TIP3    H254714   4.098   5.559  16.583  0.0192  0.3561  0.1322
11075TIP3   OH254715   0.357   3.681   3.363  0.0020 -0.4192 -0.1591
11075TIP3    H154716   0.276   3.721   3.394  0.0154  0.7966 -1.6586
11075TIP3    H254717   0.328   3.601   3.318 -0.5359  0.8586 -2.1409
11076TIP3   OH254718   4.485   6.122   3.136 -0.3869  0.0340 -0.1505
11076TIP3    H154719   4.508   6.160   3.051 -1.1291  0.1508 -0.3054
11076TIP3    H254720   4.530   6.038   3.138 -0.8859 -0.2611 -0.9410
11077TIP3   OH254721   1.924   5.430  17.100  0.1317 -0.0014 -0.3636
11077TIP3    H154722   1.905   5.337  17.092 -0.7762  0.3200 -2.1538
11077TIP3    H254723   2.019   5.437  17.087  0.3204 -0.7686  0.6395
11078TIP3   OH254724   2.739   4.557   2.895  0.1096 -0.0918 -0.7763
11078TIP3    H154725   2.721   4.464   2.897  2.1783 -0.6116 -3.2511
11078TIP3    H254726   2.700   4.588   2.813 -1.3417  1.4199  0.4408
11079TIP3   OH254727   2.784   4.588  14.425  0.5428 -0.3918 -0.4658
11079TIP3    H154728   2.798   4.620  14.336 -1.3201  0.2098 -0.5491
11079TIP3    H254729   2.781   4.667  14.479 -2.2071 -0.4814 -0.4228
11080TIP3   OH254730   2.844   6.005  13.940 -1.0392  0.4500  0.5183
11080TIP3    H154731   2.843   6.094  13.904 -1.0749  0.7158  1.1804
11080TIP3    H254732   2.936   5.980  13.939 -0.9480  0.7653  1.0003
11081TIP3   OH254733   1.193   4.508  13.248  0.3161 -0.2590 -0.3001
11081TIP3    H154734   1.209   4.450  13.322 -0.1532  0.7887  0.6404
11081TIP3    H254735   1.099   4.506  13.235 -0.0218  2.2479  1.4032
11082TIP3   OH254736   2.236   3.108   5.347 -0.4106 -0.0173 -0.2159
11082TIP3    H154737   2.164   3.111   5.285  0.5122  1.3621 -1.2574
11082TIP3    H254738   2.289   3.186   5.327  0.2880  0.0834  1.8241
11083TIP3   OH254739   5.624   0.639  13.420  0.0731 -0.0687 -0.4978
11083TIP3    H154740   5.687   0.602  13.358  0.9152 -0.3805  0.5156
11083TIP3    H254741   5.546   0.585  13.410  0.6476 -0.9345 -0.3865
11084TIP3   OH254742   4.563   6.255  15.126 -0.0844  0.5091  0.4722
11084TIP3    H154743   4.482   6.249  15.177 -0.4303 -0.8911 -0.2202
11084TIP3    H254744   4.536   6.240  15.036  1.1072 -1.1663  0.3756
11085TIP3   OH254745   5.704   0.126   6.387 -0.2578  0.1545 -0.3953
11085TIP3    H154746   5.703   0.041   6.342 -1.9835  0.1840 -0.4666
11085TIP3    H254747   5.626   0.124   6.442 -1.6775  2.6471 -2.2018
11086TIP3   OH254748   0.422   6.121  15.452  0.0682  0.1989  0.5061
11086TIP3    H154749   0.404   6.214  15.439  1.2593  0.2371 -1.0208
11086TIP3    H254750   0.356   6.092  15.515 -0.2683  2.0899  1.0606
11087TIP3   OH254751   1.857   4.052  10.839  0.2876 -0.0101  0.3250
11087TIP3    H154752   1.901   4.137  10.846 -1.2669  0.7881  0.7598
11087TIP3    H254753   1.822   4.051  10.749  0.0028 -0.0240  0.4337
11088TIP3   OH254754   2.873   3.828   1.791 -0.3087  0.9738  0.3687
11088TIP3    H154755   2.787   3.784   1.793  0.4127 -0.4758  0.4705
11088TIP3    H254756   2.872   3.886   1.867  0.0384 -1.5039  2.3384
11089TIP3   OH254757   2.441   5.340  15.640  0.4136 -0.2415  0.4746
11089TIP3    H154758   2.429   5.248  15.614  1.6442  0.1093 -1.5023
11089TIP3    H254759   2.373   5.356  15.705  1.5964 -3.2156  2.5950
11090TIP3   OH254760   0.644   0.523  12.132 -0.3154  0.6015 -0.1348
11090TIP3    H154761   0.620   0.602  12.180 -2.5839  0.6352 -1.2642
11090TIP3    H254762   0.682   0.555  12.051  0.7607  0.5351  0.3413
11091TIP3   OH254763   3.085   2.809   2.829 -1.4474  0.0381 -0.0023
11091TIP3    H154764   3.095   2.718   2.799  1.1028  0.7231 -1.3690
11091TIP3    H254765   3.170   2.831   2.867 -2.3477  1.5715  1.1942
11092TIP3   OH254766   4.603   0.961  11.995  0.4595  0.4849 -0.4372
11092TIP3    H154767   4.541   0.891  12.016  0.9403  0.2836  0.3460
11092TIP3    H254768   4.673   0.917  11.947  1.4177  0.1512  1.1962
11093TIP3   OH254769   0.980   2.916  16.389 -0.1722 -0.4969  0.3046
11093TIP3    H154770   0.907   2.867  16.351 -0.2942  1.1566 -1.6578
11093TIP3    H254771   1.045   2.921  16.319 -0.3212  2.4537  0.3198
11094TIP3   OH254772   6.247   4.336   5.434 -0.2509  0.2561 -0.3190
11094TIP3    H154773   6.220   4.313   5.346 -1.0224 -2.9500  0.6935
11094TIP3    H254774   6.339   4.362   5.425 -0.7245  1.3486 -2.2467
11095TIP3   OH254775   3.020   2.847   6.252  0.2234  0.4871  0.0532
11095TIP3    H154776   3.084   2.777   6.266  0.1281  0.2377 -0.7309
11095TIP3    H254777   2.938   2.812   6.286 -0.0940 -0.2670 -1.4303
11096TIP3   OH254778   0.881   1.474  11.671  0.0455  0.4315  0.0949
11096TIP3    H154779   0.920   1.557  11.646  0.4025  0.1760 -0.2143
11096TIP3    H254780   0.794   1.496  11.705  0.6502  1.0542  1.2568
11097TIP3   OH254781   0.331   5.200  16.408 -0.3900 -0.5433 -0.4178
11097TIP3    H154782   0.268   5.185  16.478 -0.5940 -1.3754 -0.7685
11097TIP3    H254783   0.324   5.294  16.388 -1.4509 -0.6134 -0.3884
11098TIP3   OH254784   3.613   0.512  17.220  0.1279  0.0965  0.3791
11098TIP3    H154785   3.638   0.519  17.312 -0.9708 -0.4593  0.7370
11098TIP3    H254786   3.686   0.466  17.178  1.5154  2.0950  0.5773
11099TIP3   OH254787   0.397   0.692   2.045  0.6395  0.1795 -0.6172
11099TIP3    H154788   0.369   0.657   2.130 -1.9156 -0.2869 -1.6261
11099TIP3    H254789   0.452   0.624   2.008 -1.9682 -1.6445 -1.3042
11100TIP3   OH254790   4.231   3.840  15.195 -0.0825  0.3053  0.1526
11100TIP3    H154791   4.274   3.782  15.132  0.6624 -0.3340  1.2261
11100TIP3    H254792   4.138   3.834  15.174 -0.1634 -2.4460  1.1974
11101TIP3   OH254793   3.729   3.906   3.525  0.5132  0.3764 -0.1118
11101TIP3    H154794   3.641   3.894   3.490  1.8038 -1.0395 -3.0338
11101TIP3    H254795   3.751   3.996   3.504  0.2809  0.3307 -0.5530
11102TIP3   OH254796   1.000   0.122   3.446  0.3006  0.1237  0.0607
11102TIP3    H154797   0.923   0.099   3.499  1.1819 -1.0312  0.8650
11102TIP3    H254798   0.994   0.217   3.435 -1.5286 -0.0227 -0.3317
11103TIP3   OH254799   4.724   1.931   3.628 -0.0840 -0.2969  0.0227
11103TIP3    H154800   4.633   1.932   3.599 -0.7670  1.5641  2.1083
11103TIP3    H254801   4.735   1.846   3.671 -0.4858 -1.0014 -1.2578
11104TIP3   OH254802   0.741   1.300   0.844  0.1516 -0.6204 -0.0448
11104TIP3    H154803   0.675   1.248   0.891 -0.1614  1.8930  2.3623
11104TIP3    H254804   0.817   1.302   0.903  0.9490 -0.1290 -1.0730
11105TIP3   OH254805   5.521   5.476  15.198 -0.5585  0.3808 -0.2979
11105TIP3    H154806   5.481   5.552  15.155 -0.6117  0.4997 -0.0411
11105TIP3    H254807   5.564   5.512  15.275 -0.8926  0.1015  0.0256
11106TIP3   OH254808   3.660   5.481   3.285  0.3485 -0.6243 -0.2247
11106TIP3    H154809   3.658   5.396   3.330  1.3412 -0.8339 -0.5536
11106TIP3    H254810   3.689   5.460   3.196 -0.4832 -0.0723 -0.6222
11107TIP3   OH254811   2.289   6.762  17.225 -0.4168 -0.3660  0.3173
11107TIP3    H154812   2.265   6.676  17.260 -1.6238 -0.4031 -0.5837
11107TIP3    H254813   2.279   6.753  17.130  0.8372  0.3505  0.1055
11108TIP3   OH254814   0.093   3.132   2.972 -0.5560 -0.1358  0.2139
11108TIP3    H154815   0.175   3.181   2.966  0.3461 -1.3857  1.9109
11108TIP3    H254816   0.057   3.158   3.057 -1.9166  0.3693 -0.5016
11109TIP3   OH254817   2.056   3.692   2.178 -0.5165 -0.6862 -0.4286
11109TIP3    H154818   2.150   3.702   2.197 -0.5506  1.0293 -1.0553
11109TIP3    H254819   2.019   3.657   2.259 -0.1334  3.3947  1.6372
11110TIP3   OH254820   2.891   1.305  11.786 -0.3430 -0.4685 -0.0734
11110TIP3    H154821   2.820   1.241  11.796  0.1324 -1.4285 -2.4977
11110TIP3    H254822   2.937   1.277  11.707  1.7522  1.0970  0.5590
11111TIP3   OH254823   4.331   0.582  13.091 -0.1681  0.2977 -0.1211
11111TIP3    H154824   4.250   0.615  13.051 -0.3705  0.4343  0.4035
11111TIP3    H254825   4.317   0.593  13.185  0.9720  1.5202 -0.0841
11112TIP3   OH254826   6.648   1.478   0.229 -0.3104 -0.4274  0.2511
11112TIP3    H154827   6.685   1.563   0.254  0.2526 -1.0238  1.4750
11112TIP3    H254828   6.698   1.451   0.152 -0.7382  0.5122 -0.3697
11113TIP3   OH254829   4.732   4.351   5.108  0.0407 -0.2458  0.3503
11113TIP3    H154830   4.650   4.332   5.155  0.4777 -1.3080  0.6950
11113TIP3    H254831   4.714   4.325   5.018 -0.3154  0.4293  0.2213
11114TIP3   OH254832   3.559   0.933  14.476  0.3090  0.5487  0.7241
11114TIP3    H154833   3.599   0.954  14.392  1.2497 -1.4655  0.6280
11114TIP3    H254834   3.628   0.886  14.524 -1.4293 -1.6799  1.1359
11115TIP3   OH254835   0.076   2.869   2.018 -0.2027  0.2912  0.6105
11115TIP3    H154836   0.078   2.845   2.110 -0.7383 -0.0287  0.5367
11115TIP3    H254837   0.003   2.819   1.981  0.0066  0.4195  0.0162
11116TIP3   OH254838   5.323   6.502  14.159  0.0455  0.0010 -0.0413
11116TIP3    H154839   5.346   6.593  14.145 -1.0893  0.2634 -0.2343
11116TIP3    H254840   5.384   6.472  14.226  0.3939  0.9158  0.0529
11117TIP3   OH254841   6.598   4.808  14.193 -0.0562 -0.1582 -0.3895
11117TIP3    H154842   6.521   4.811  14.137  0.1825  1.7268 -0.6502
11117TIP3    H254843   6.646   4.731  14.164 -1.7535 -1.2669 -0.3323
11118TIP3   OH254844   1.609   1.670  16.965  0.2060 -0.4970  0.3801
11118TIP3    H154845   1.665   1.595  16.943 -0.7302 -0.8261 -0.9440
11118TIP3    H254846   1.520   1.634  16.967 -0.0852  0.2586  1.3156
11119TIP3   OH254847   1.010   6.549  17.064  0.7330 -0.5028 -0.2829
11119TIP3    H154848   1.051   6.544  17.151 -0.8109  1.8163  0.6286
11119TIP3    H254849   1.006   6.458  17.035  0.8754 -1.3917  2.3045
11120TIP3   OH254850   0.516   1.793  15.861 -0.8644 -0.1179 -0.1983
11120TIP3    H154851   0.499   1.831  15.774  0.0638  0.6340 -0.0504
11120TIP3    H254852   0.610   1.801  15.873 -1.1223  0.8062  1.3634
11121TIP3   OH254853   1.270   6.226   3.168 -0.8138  0.1996 -0.2874
11121TIP3    H154854   1.345   6.280   3.143 -0.2775 -0.7959 -0.8868
11121TIP3    H254855   1.211   6.231   3.093 -0.3306 -0.7949 -0.7466
11122TIP3   OH254856   3.111   2.696  15.535  0.4300 -0.3462 -0.8351
11122TIP3    H154857   3.186   2.754  15.546 -0.6165  1.0051 -0.6155
11122TIP3    H254858   3.050   2.721  15.605  0.0384 -1.8543 -0.6076
11123TIP3   OH254859   5.997   1.119   4.340 -0.8252  0.1299  0.0259
11123TIP3    H154860   5.947   1.053   4.292 -2.0942  0.5462  0.7498
11123TIP3    H254861   6.071   1.070   4.376 -0.0187 -0.2458 -2.0535
11124TIP3   OH254862   2.412   1.259  12.563  0.1185  0.0566  0.3769
11124TIP3    H154863   2.453   1.297  12.641 -0.3930  1.0967  0.1572
11124TIP3    H254864   2.335   1.212  12.597  0.8999 -1.0085  0.6771
11125TIP3   OH254865   6.562   2.350   1.717 -0.0334 -0.4654  0.1935
11125TIP3    H154866   6.657   2.352   1.728  0.1717 -0.7914 -1.4179
11125TIP3    H254867   6.548   2.371   1.625 -1.4658 -1.3969  0.1795
11126TIP3   OH254868   1.869   1.687  14.333  0.2210 -0.4179  0.0402
11126TIP3    H154869   1.961   1.664  14.323 -0.1590 -2.9019  1.9681
11126TIP3    H254870   1.869   1.783  14.340  2.7670 -0.4656  1.1136
11127TIP3   OH254871   5.800   2.893  14.756  0.2319  0.7517  0.3154
11127TIP3    H154872   5.859   2.940  14.815 -0.5300  1.6637  0.3575
11127TIP3    H254873   5.806   2.801  14.784 -0.7800  1.2944  2.3905
11128TIP3   OH254874   0.881   2.708   4.318  0.3366  0.2504 -0.4076
11128TIP3    H154875   0.956   2.654   4.291 -0.1698 -0.0947 -1.1327
11128TIP3    H254876   0.890   2.714   4.413 -0.8738 -3.0953 -0.0019
11129TIP3   OH254877   4.473   4.803   0.535  0.0542 -0.3031  0.5361
11129TIP3    H154878   4.488   4.845   0.620  1.8848 -2.1900  1.1755
11129TIP3    H254879   4.449   4.713   0.557 -0.4093 -0.5470 -0.9263
11130TIP3   OH254880   5.867   0.166   5.797  0.0354 -0.2286 -0.3942
11130TIP3    H154881   5.878   0.195   5.888  1.5183  1.9959 -1.2325
11130TIP3    H254882   5.778   0.191   5.775 -0.5201 -1.2856  0.6258
11131TIP3   OH254883   0.105   2.665  13.756 -0.1009  0.0496 -0.2287
11131TIP3    H154884   0.023   2.659  13.706 -0.0153  0.4181 -0.4150
11131TIP3    H254885   0.092   2.740  13.814 -0.5597 -0.9450  0.9737
11132TIP3   OH254886   5.219   5.322   0.065  0.0926  0.1436 -0.0681
11132TIP3    H154887   5.313   5.335   0.076 -0.3185  3.2258  0.2125
11132TIP3    H254888   5.181   5.356   0.146 -1.3525  0.1768 -0.7473
11133TIP3   OH254889   1.250   3.683   0.946 -0.4623 -0.2871  0.1245
11133TIP3    H154890   1.273   3.682   0.853 -2.1879 -0.4493 -0.3271
11133TIP3    H254891   1.284   3.600   0.980  0.0081 -0.3148 -0.4094
11134TIP3   OH254892   4.921   4.236  12.378 -0.6401 -0.1554 -0.2513
11134TIP3    H154893   4.838   4.274  12.406 -1.4217 -1.2082 -1.0600
11134TIP3    H254894   4.899   4.144  12.359  0.0220  0.2822 -3.4040
11135TIP3   OH254895   6.207   4.922  14.232 -0.1734 -0.1378  0.0968
11135TIP3    H154896   6.249   4.880  14.157 -1.0053  0.5999 -0.7987
11135TIP3    H254897   6.279   4.959  14.283  0.3282  0.3818 -0.9737
11136TIP3   OH254898   3.004   3.882  10.990 -0.2460 -0.4153  0.2805
11136TIP3    H154899   2.913   3.861  11.008  0.3394 -0.2192  3.6612
11136TIP3    H254900   3.055   3.814  11.033  1.2574 -0.2625 -1.1721
11137TIP3   OH254901   5.320   6.408   5.331 -0.2287  0.1885 -0.1654
11137TIP3    H154902   5.242   6.457   5.303  0.3012  0.3729 -1.3516
11137TIP3    H254903   5.376   6.407   5.254  0.0748 -1.7015  0.0481
11138TIP3   OH254904   5.322   4.992   3.356 -0.0210  0.2919  0.1864
11138TIP3    H154905   5.368   4.950   3.430 -0.2860 -1.0561 -0.3931
11138TIP3    H254906   5.330   5.085   3.373  0.8269  0.0194  1.3863
11139TIP3   OH254907   0.802   3.109  15.280  0.4619 -0.3310  0.0055
11139TIP3    H154908   0.823   3.202  15.287 -1.2183  0.1296 -1.0839
11139TIP3    H254909   0.819   3.075  15.368  1.8584  0.8189  0.2107
11140TIP3   OH254910   6.331   3.669   3.808 -0.1223  0.3871  0.2748
11140TIP3    H154911   6.330   3.701   3.898 -0.2848  2.3608 -0.3824
11140TIP3    H254912   6.392   3.596   3.808 -0.4032  0.1438  2.0582
11141TIP3   OH254913   3.284   0.667   3.815 -0.4836 -1.1489  0.1772
11141TIP3    H154914   3.218   0.711   3.763  0.7201 -0.9891 -1.2382
11141TIP3    H254915   3.244   0.659   3.902 -0.4848  3.4592  0.7538
11142TIP3   OH254916   1.938   2.737  15.269  0.2569  0.3414 -1.0753
11142TIP3    H154917   1.982   2.818  15.294  0.1885  0.3131 -0.8542
11142TIP3    H254918   1.863   2.765  15.218  0.0811  0.4333 -0.7683
11143TIP3   OH254919   2.643   1.712  10.532  0.7623  0.1934  0.5477
11143TIP3    H154920   2.586   1.722  10.456 -0.6590  0.3629  1.6272
11143TIP3    H254921   2.703   1.642  10.508 -0.2506 -0.3674 -0.3722
11144TIP3   OH254922   1.390   2.015  12.935 -0.0361 -0.3426  0.3019
11144TIP3    H154923   1.321   1.949  12.943  0.6668 -1.3965 -1.8737
11144TIP3    H254924   1.373   2.057  12.851  0.1685  1.5206  1.1721
11145TIP3   OH254925   6.544   1.993  13.460  0.0385  0.1519  0.1120
11145TIP3    H154926   6.464   2.029  13.421  0.0654 -1.4625 -1.4920
11145TIP3    H254927   6.515   1.914  13.505  0.6224 -0.0421  0.1489
11146TIP3   OH254928   5.015   3.384  15.759  0.5973  0.2773 -0.1661
11146TIP3    H154929   4.922   3.361  15.756  0.9106 -0.8753 -1.9646
11146TIP3    H254930   5.020   3.459  15.818 -1.5251  0.5750 -0.3402
11147TIP3   OH254931   4.641   5.523  10.777 -0.0857 -0.5678 -0.2436
11147TIP3    H154932   4.621   5.528  10.683  0.0664 -1.2897 -0.3220
11147TIP3    H254933   4.557   5.537  10.820 -0.0802  0.1893 -0.4808
11148TIP3   OH254934   0.972   0.461   5.785  0.8396  0.9697 -0.4664
11148TIP3    H154935   0.928   0.449   5.701  1.3980 -0.3553 -0.5861
11148TIP3    H254936   1.063   0.436   5.768  0.7556 -0.2248  0.7507
11149TIP3   OH254937   1.519   0.795  15.130 -0.2174  0.2012  0.0363
11149TIP3    H154938   1.528   0.737  15.055  0.8127  0.5093 -0.0922
11149TIP3    H254939   1.545   0.741  15.205 -1.7495 -0.2615  0.2455
11150TIP3   OH254940   3.831   0.155  13.789  0.7834 -0.0194  0.0358
11150TIP3    H154941   3.898   0.219  13.764  0.6815  0.8754  1.9556
11150TIP3    H254942   3.748   0.199  13.772  0.6569 -0.8212 -1.5556
11151TIP3   OH254943   5.793   4.565   2.472  0.7473 -0.1316  0.5196
11151TIP3    H154944   5.837   4.494   2.519  1.8591 -1.2512 -2.1051
11151TIP3    H254945   5.714   4.525   2.437  1.4391 -0.1496 -1.0775
11152TIP3   OH254946   6.611   3.936   1.872  0.4045  0.3164  0.4962
11152TIP3    H154947   6.692   3.950   1.822 -1.2112  0.2383 -2.1910
11152TIP3    H254948   6.641   3.893   1.953  3.2804  2.1671  0.5240
11153TIP3   OH254949   4.880   3.956  12.377  0.1505 -0.0536 -0.3906
11153TIP3    H154950   4.864   3.886  12.313  3.3312 -1.1939 -0.0451
11153TIP3    H254951   4.865   3.915  12.462  1.5002 -0.2013 -0.2098
11154TIP3   OH254952   5.180   0.174  13.711 -0.6662 -0.1478  0.0307
11154TIP3    H154953   5.089   0.192  13.737 -0.0467  1.5670  1.1356
11154TIP3    H254954   5.219   0.261  13.701  0.6099 -0.8582 -1.3859
11155TIP3   OH254955   3.492   2.391  13.343  0.1424  0.4133 -0.1841
11155TIP3    H154956   3.446   2.319  13.300 -1.6872  1.1387  0.4989
11155TIP3    H254957   3.499   2.363  13.435 -3.1784  2.2998  0.7151
11156TIP3   OH254958   2.362   4.441   0.729  0.8145  0.2081 -0.4047
11156TIP3    H154959   2.332   4.350   0.739 -1.9209  0.9720 -1.1823
11156TIP3    H254960   2.437   4.448   0.788 -0.6826 -1.7818  1.8624
11157TIP3   OH254961   5.804   1.975   4.048  0.4331  0.4926  0.1798
11157TIP3    H154962   5.794   1.918   4.125 -0.6668  0.0330 -0.2957
11157TIP3    H254963   5.884   2.024   4.065  1.0682 -0.7745  0.8735
11158TIP3   OH254964   6.800   4.383  16.314  0.0249  0.9043  0.3257
11158TIP3    H154965   6.832   4.391  16.404  0.8864  4.2420 -0.1999
11158TIP3    H254966   6.863   4.325  16.271  1.4391  1.8247  1.1069
11159TIP3   OH254967   2.459   4.867   0.444 -0.0144 -0.1807  0.1620
11159TIP3    H154968   2.512   4.827   0.374  0.9641 -2.2374  2.0105
11159TIP3    H254969   2.508   4.945   0.469  2.0771 -1.9146  1.6694
11160TIP3   OH254970   4.775   1.609  16.863  0.2330  0.4765  0.4383
11160TIP3    H154971   4.836   1.543  16.897 -0.4478  0.7370  2.2520
11160TIP3    H254972   4.698   1.558  16.836 -0.9853  0.5846  3.4090
11161TIP3   OH254973   3.896   5.236  15.435  0.5827 -0.4102 -0.5970
11161TIP3    H154974   3.805   5.261  15.417  0.4344 -0.4075  0.1311
11161TIP3    H254975   3.913   5.161  15.378  0.2187 -0.2222 -0.9521
11162TIP3   OH254976   1.302   3.004  13.858 -0.5242  0.1921 -1.1793
11162TIP3    H154977   1.236   2.989  13.789 -1.3983  1.4507 -0.6363
11162TIP3    H254978   1.380   3.032  13.810 -0.4627 -0.9941 -1.8059
11163TIP3   OH254979   3.294   6.141  14.519 -0.0005 -0.1978 -0.5319
11163TIP3    H154980   3.387   6.159  14.503 -0.2009  2.9304  1.4305
11163TIP3    H254981   3.248   6.185  14.448 -0.0831 -0.1947 -0.4760
11164TIP3   OH254982   6.069   4.074  16.229  0.6071 -0.2616  0.3559
11164TIP3    H154983   6.119   3.992  16.228  1.0411  0.0048 -0.1158
11164TIP3    H254984   5.984   4.051  16.193 -0.4755 -1.2490  3.3494
11165TIP3   OH254985   2.172   1.605  16.806  0.5137 -0.3430 -0.2705
11165TIP3    H154986   2.188   1.601  16.712  0.3201  0.1028 -0.3196
11165TIP3    H254987   2.153   1.697  16.824  1.1190 -0.3265  0.3028
11166TIP3   OH254988   3.262   2.299  17.051 -0.2164 -0.0259  0.1840
11166TIP3    H154989   3.286   2.208  17.070 -0.6008 -0.2376 -0.3123
11166TIP3    H254990   3.322   2.352  17.104 -2.0358 -0.5960  2.8962
11167TIP3   OH254991   5.119   2.132   0.490  0.5489 -0.4589 -0.8825
11167TIP3    H154992   5.024   2.130   0.504  0.9701 -0.5543  2.1101
11167TIP3    H254993   5.134   2.062   0.426 -1.3327 -0.8351 -0.9618
11168TIP3   OH254994   3.816   2.258   4.307 -0.0835 -0.6573 -0.2829
11168TIP3    H154995   3.816   2.165   4.332 -3.4781 -0.4951  0.5295
11168TIP3    H254996   3.809   2.257   4.211 -2.7616 -1.3007 -0.1298
11169TIP3   OH254997   1.753   1.425  16.929 -0.2010 -0.1418 -0.2108
11169TIP3    H154998   1.843   1.397  16.910  0.1476  0.2106  0.8818
11169TIP3    H254999   1.720   1.359  16.989 -0.2292  0.4187  0.3979
11170TIP3   OH255000   0.369   0.186  12.052  0.3686  0.7578  0.2513
11170TIP3    H155001   0.330   0.267  12.085 -1.1533 -0.0879  0.5391
11170TIP3    H255002   0.460   0.189  12.083  0.2357  2.1917  0.5395
11171TIP3   OH255003   2.283   5.543  10.726  0.2157  0.3310 -0.1948
11171TIP3    H155004   2.258   5.626  10.765 -2.4153  0.0149 -1.1317
11171TIP3    H255005   2.353   5.510  10.783  0.5001  2.6205  0.8331
11172TIP3   OH255006   0.126   6.686   2.141  0.2095 -0.1577  0.2856
11172TIP3    H155007   0.039   6.647   2.144  1.0615 -2.1654 -0.5642
11172TIP3    H255008   0.145   6.710   2.231 -0.8389 -0.5702  0.6193
11173TIP3   OH255009   5.276   4.200  14.191  0.3442 -0.1547 -0.8259
11173TIP3    H155010   5.251   4.292  14.189 -1.1731 -0.5667 -1.2430
11173TIP3    H255011   5.226   4.163  14.264 -0.1494 -0.9563 -1.5582
11174TIP3   OH255012   4.762   1.536   3.198  0.2248 -0.0847 -0.0694
11174TIP3    H155013   4.853   1.549   3.223  0.2670  0.2778 -0.3934
11174TIP3    H255014   4.746   1.442   3.208  0.8051 -0.2389 -0.5942
11175TIP3   OH255015   3.159   5.048   5.068 -0.3948 -0.2528  0.5917
11175TIP3    H155016   3.145   5.086   4.981 -0.3788 -0.2430  0.5936
11175TIP3    H255017   3.091   5.088   5.123 -1.3262 -1.3703  0.2553
11176TIP3   OH255018   4.323   3.740   5.916  0.2370 -0.1795 -0.3671
11176TIP3    H155019   4.286   3.652   5.918  0.9616 -0.5157 -1.2080
11176TIP3    H255020   4.406   3.732   5.963 -0.4879  0.4504  1.0504
11177TIP3   OH255021   1.540   6.779   4.626 -0.5360 -0.7560 -0.3691
11177TIP3    H155022   1.503   6.771   4.538 -0.1362 -0.7481 -0.5385
11177TIP3    H255023   1.568   6.690   4.648 -1.4262 -0.9295  0.1023
11178TIP3   OH255024   0.649   6.432  15.097 -0.2922 -0.0403 -0.4058
11178TIP3    H155025   0.577   6.419  15.035 -1.5418  0.2625  0.9593
11178TIP3    H255026   0.685   6.344  15.110 -1.5129 -0.4632  0.2052
11179TIP3   OH255027   3.455   5.259   5.832 -0.4367 -0.0632 -0.0160
11179TIP3    H155028   3.495   5.173   5.826 -1.7521 -0.7520  0.8314
11179TIP3    H255029   3.512   5.309   5.890  0.4811 -0.2718 -0.7412
11180TIP3   OH255030   4.933   2.848  11.533 -0.0094  0.2443 -0.4190
11180TIP3    H155031   4.944   2.797  11.452  2.5163 -0.1986  0.1524
11180TIP3    H255032   5.009   2.907  11.534 -0.3785  0.7045  1.3034
11181TIP3   OH255033   6.542   1.476   1.338  0.3940 -0.5843 -0.1260
11181TIP3    H155034   6.612   1.518   1.287  0.1621  1.4654  1.1622
11181TIP3    H255035   6.571   1.386   1.349  2.7217  0.1643  0.1516
11182TIP3   OH255036   0.058   2.155  12.370 -0.3458 -0.7912  0.2325
11182TIP3    H155037   0.047   2.208  12.450 -3.5124  1.6426 -1.6866
11182TIP3    H255038   0.037   2.066  12.398  2.6420 -0.7262  2.9939
11183TIP3   OH255039   1.021   4.235   6.436  0.3932 -0.4008 -0.0734
11183TIP3    H155040   1.093   4.208   6.494  0.4689 -3.0683 -1.3034
11183TIP3    H255041   1.063   4.294   6.372  1.2457 -0.9129 -0.0057
11184TIP3   OH255042   2.078   5.759  13.739 -0.6022 -0.1458 -0.2042
11184TIP3    H155043   2.088   5.743  13.833 -1.2140  0.8930  0.0402
11184TIP3    H255044   2.168   5.769  13.707 -0.2568 -2.5077 -0.1064
11185TIP3   OH255045   1.486   6.380  14.214 -0.0538  0.1212  0.8296
11185TIP3    H155046   1.491   6.449  14.280 -0.6948  0.5046  0.4825
11185TIP3    H255047   1.577   6.367  14.186  0.0907  0.7145  1.0078
11186TIP3   OH255048   3.271   3.759  12.682  0.3865 -0.1443 -0.1615
11186TIP3    H155049   3.293   3.699  12.611  1.6228 -0.0088  0.1060
11186TIP3    H255050   3.322   3.838  12.665  1.5243 -0.5012  1.4545
11187TIP3   OH255051   5.598   3.828   2.698 -0.0878 -0.6191 -0.6441
11187TIP3    H155052   5.685   3.858   2.674 -0.3601  2.2587  1.6651
11187TIP3    H255053   5.612   3.758   2.761  0.5334 -1.6853 -1.9485
11188TIP3   OH255054   2.924   2.213   2.752 -0.8653 -0.6790 -0.1032
11188TIP3    H155055   2.872   2.154   2.807 -0.4622 -1.8048 -0.9113
11188TIP3    H255056   3.015   2.195   2.777 -0.7280 -0.5362 -0.4980
11189TIP3   OH255057   1.647   5.590   5.938  0.1213 -0.2318  0.5343
11189TIP3    H155058   1.651   5.668   5.882  0.5548 -0.1088  0.7408
11189TIP3    H255059   1.683   5.520   5.884 -2.7349 -0.8688 -0.6401
11190TIP3   OH255060   2.128   1.183  12.386 -0.0651 -0.3557  0.1194
11190TIP3    H155061   2.218   1.167  12.359  0.8847  1.4090  2.1248
11190TIP3    H255062   2.112   1.117  12.454  0.0015 -0.1048  0.3776
11191TIP3   OH255063   0.011   3.633   1.059  0.3590  0.6393  0.1114
11191TIP3    H155064  -0.056   3.701   1.051  1.4653  1.8270  0.8821
11191TIP3    H255065   0.026   3.625   1.154 -0.7856 -1.7145  0.1599
11192TIP3   OH255066   2.640   0.720  12.176 -0.3747 -0.0445 -0.3614
11192TIP3    H155067   2.605   0.729  12.087  1.5429 -0.7005 -1.1862
11192TIP3    H255068   2.679   0.805  12.194  0.1941 -0.2670 -0.5542
11193TIP3   OH255069   0.013   2.797  14.661 -0.2458 -0.3423 -0.0828
11193TIP3    H155070  -0.056   2.768  14.719  1.1269 -1.6304  0.9568
11193TIP3    H255071   0.055   2.716  14.630  0.5231  0.3879 -1.0217
11194TIP3   OH255072   6.169   6.739   4.632  0.2332  0.0959  0.7482
11194TIP3    H155073   6.252   6.745   4.585 -0.5708  0.1245 -0.6925
11194TIP3    H255074   6.167   6.818   4.687  1.1759  0.0573  0.8496
11195TIP3   OH255075   0.410   2.620  12.798  0.0496 -0.3414 -0.0050
11195TIP3    H155076   0.321   2.615  12.764  0.0342  0.3688 -0.0659
11195TIP3    H255077   0.462   2.570  12.735  0.1771  1.7613 -1.6219
11196TIP3   OH255078   4.826   2.318  15.434 -0.3023  0.0350  0.1814
11196TIP3    H155079   4.765   2.389  15.413  0.4507  0.5713 -0.2183
11196TIP3    H255080   4.778   2.262  15.496 -0.4824  1.5338  1.4264
11197TIP3   OH255081   0.312   3.473   0.531 -0.2084  0.2547  0.3047
11197TIP3    H155082   0.318   3.384   0.566 -0.6448  0.4190  0.8101
11197TIP3    H255083   0.384   3.479   0.468 -1.5468 -1.1959 -1.4170
11198TIP3   OH255084   6.751   5.379  16.886  0.1040  0.1763 -0.6808
11198TIP3    H155085   6.772   5.441  16.816  1.1814  0.2971 -0.2505
11198TIP3    H255086   6.805   5.406  16.960  0.3178 -1.0600 -0.3819
11199TIP3   OH255087   2.602   3.962   5.519  0.3000  0.5887 -0.5836
11199TIP3    H155088   2.640   3.905   5.452 -0.8560 -2.3930  1.1874
11199TIP3    H255089   2.666   3.961   5.590 -0.1399  0.7410 -0.1848
11200TIP3   OH255090   5.050   4.322  13.622 -0.5293  0.5351 -0.0387
11200TIP3    H155091   5.056   4.263  13.547 -1.8036  0.2669  0.0536
11200TIP3    H255092   4.956   4.337  13.632 -0.3938  0.2331  1.7620
11201TIP3   OH255093   1.611   6.675  12.202  0.7277  0.3327 -0.2505
11201TIP3    H155094   1.610   6.720  12.117  2.5871  0.6862 -0.1016
11201TIP3    H255095   1.701   6.646  12.213  0.0230 -1.5632  0.6666
11202TIP3   OH255096   0.609   3.654  14.022  0.3159 -0.1407 -0.0060
11202TIP3    H155097   0.646   3.696  14.099 -0.1028  0.7031 -0.2536
11202TIP3    H255098   0.514   3.657  14.035  0.2433 -0.0576 -0.5154
11203TIP3   OH255099   6.398   4.174   0.999 -0.1920  1.3888 -0.0554
11203TIP3    H155100   6.338   4.111   1.040 -0.2918  1.2273 -0.4457
11203TIP3    H255101   6.385   4.255   1.048 -0.7123  1.3455 -0.1218
11204TIP3   OH255102   3.340   2.865  12.451 -0.3947 -0.7164 -0.4525
11204TIP3    H155103   3.293   2.789  12.486  0.0173 -1.2807 -1.1058
11204TIP3    H255104   3.400   2.828  12.386  0.6378  0.0424  0.0583
11205TIP3   OH255105   5.123   5.416  12.601  0.3069 -0.9373 -0.3354
11205TIP3    H155106   5.138   5.374  12.686 -0.6575 -0.3480  0.1327
11205TIP3    H255107   5.158   5.354  12.537 -0.8878 -2.3451  0.3566
11206TIP3   OH255108   2.412   0.010  11.200 -0.0031  0.0269 -0.8469
11206TIP3    H155109   2.443   0.073  11.135  0.2316 -0.6983 -1.4426
11206TIP3    H255110   2.485  -0.051  11.210  0.2255  0.5073  0.5959
11207TIP3   OH255111   2.538   4.064   3.153 -0.7781  0.0828  0.6214
11207TIP3    H155112   2.456   4.074   3.202  0.2409  1.1953  2.1232
11207TIP3    H255113   2.531   3.977   3.112 -2.6628  0.1414  0.7874
11208TIP3   OH255114   2.401   3.351  12.454 -0.5004  0.3034  0.3980
11208TIP3    H155115   2.456   3.306  12.519 -1.5743 -2.3978 -0.5115
11208TIP3    H255116   2.320   3.369  12.500 -0.5169  0.2038  0.4084
11209TIP3   OH255117   1.080   0.385   1.147  0.2856 -0.6647 -0.1021
11209TIP3    H155118   1.151   0.329   1.116  0.8034  0.5094 -1.1107
11209TIP3    H255119   1.116   0.429   1.224  1.3831  1.3620 -1.7064
11210TIP3   OH255120   3.245   0.419   4.431  0.1518 -0.1307  0.1381
11210TIP3    H155121   3.245   0.374   4.516  0.3436 -1.2374 -0.4473
11210TIP3    H255122   3.277   0.354   4.369  0.5563  0.8510 -0.7024
11211TIP3   OH255123   3.732   6.181  13.059 -0.2173 -0.2895 -0.4730
11211TIP3    H155124   3.794   6.243  13.022 -0.4301  0.9047  1.1190
11211TIP3    H255125   3.786   6.107  13.087  0.5490  0.9012  1.2333
11212TIP3   OH255126   1.446   3.926   0.931  0.3762 -0.6055  0.0855
11212TIP3    H155127   1.404   3.851   0.974  0.6037 -1.6164 -1.4296
11212TIP3    H255128   1.466   3.895   0.843  2.1084  0.6676  0.0113
11213TIP3   OH255129   6.552   3.480   2.867 -0.5943  0.3464 -0.0014
11213TIP3    H155130   6.486   3.521   2.924  1.1332  1.3876  1.3260
11213TIP3    H255131   6.551   3.388   2.891 -1.3374  0.4153  0.2393
11214TIP3   OH255132   6.128   2.573  14.153 -0.4685 -0.4388  0.1445
11214TIP3    H155133   6.049   2.538  14.112 -0.0269 -1.3281  0.0464
11214TIP3    H255134   6.199   2.519  14.117 -0.2597 -2.6010  3.6205
11215TIP3   OH255135   6.169   6.299   0.286  0.7320 -0.1106 -0.8654
11215TIP3    H155136   6.109   6.296   0.212 -0.1041 -0.0566 -0.1967
11215TIP3    H255137   6.245   6.248   0.257  0.4326 -0.0553 -1.7677
11216TIP3   OH255138   5.980   3.209  12.083 -0.3690  0.3504 -0.3852
11216TIP3    H155139   5.951   3.232  11.995 -0.4388 -0.4239 -0.5696
11216TIP3    H255140   5.985   3.114  12.082 -1.3157  0.2703  0.7396
11217TIP3   OH255141   1.047   2.019  13.487 -1.0925 -0.7627  0.2806
11217TIP3    H155142   1.001   2.054  13.563  1.7028 -0.9912  2.1491
11217TIP3    H255143   1.024   1.926  13.486 -2.1940 -0.4986  0.0221
11218TIP3   OH255144   6.368   6.002   0.572 -0.6312 -0.3587  0.2055
11218TIP3    H155145   6.457   6.032   0.555 -1.4235  1.2382 -1.3205
11218TIP3    H255146   6.377   5.936   0.640  1.5358  1.1130  1.3980
11219TIP3   OH255147   0.342   2.608   2.197 -0.3185 -0.2394 -0.3013
11219TIP3    H155148   0.270   2.547   2.178  1.1104 -1.3171 -2.4526
11219TIP3    H255149   0.415   2.551   2.223  0.4433  0.6972 -0.3783
11220TIP3   OH255150   2.038   4.209  14.393 -0.0776  0.5072  0.4261
11220TIP3    H155151   2.040   4.231  14.299 -3.2680 -1.5263 -0.1953
11220TIP3    H255152   2.012   4.290  14.436 -2.2899  0.5067 -0.8494
11221TIP3   OH255153   4.342   0.158   2.468 -0.3193  0.1358  0.4895
11221TIP3    H155154   4.395   0.159   2.547 -1.8815 -0.1131  1.5625
11221TIP3    H255155   4.283   0.233   2.477 -1.8756 -1.0621  0.5458
11222TIP3   OH255156   2.438   2.080  12.086  0.3639 -0.1573 -0.5712
11222TIP3    H155157   2.522   2.086  12.040  0.7571 -3.3302 -0.3893
11222TIP3    H255158   2.460   2.047  12.173 -1.1274 -1.8564 -0.8111
11223TIP3   OH255159   6.068   1.971   3.042 -0.1252  0.2797 -0.5575
11223TIP3    H155160   6.139   1.907   3.050  0.6990  1.1524 -0.7618
11223TIP3    H255161   6.053   1.977   2.947  1.3161  2.0182 -0.6845
11224TIP3   OH255162   2.383   1.652  16.982  0.1238 -0.2274 -0.6166
11224TIP3    H155163   2.307   1.668  16.926 -0.0786  2.0242  0.2346
11224TIP3    H255164   2.370   1.564  17.016 -1.8941 -0.0272 -0.8338
11225TIP3   OH255165   0.543   6.696  14.216 -0.9706  0.0534  0.0816
11225TIP3    H155166   0.618   6.644  14.186 -1.2925  1.5630 -3.5780
11225TIP3    H255167   0.578   6.749  14.288  0.9581 -0.6614 -0.2900
11226TIP3   OH255168   3.113   6.189  13.784  0.0737 -0.4586  0.0770
11226TIP3    H155169   3.042   6.186  13.721  2.2846 -0.6234 -2.5303
11226TIP3    H255170   3.148   6.278  13.777  1.1862 -0.8810  0.0820
11227TIP3   OH255171   1.496   1.666   0.592  0.4766  0.1437  0.4013
11227TIP3    H155172   1.577   1.619   0.573  0.7320  0.6840  0.1428
11227TIP3    H255173   1.514   1.756   0.565 -1.3137 -0.3922 -2.7415
11228TIP3   OH255174   5.472   5.549  13.151  0.2672  0.4539  0.7386
11228TIP3    H155175   5.434   5.606  13.084 -0.4151  0.1568  0.8762
11228TIP3    H255176   5.449   5.591  13.234 -0.5644 -0.2257  0.8537
11229TIP3   OH255177   0.567   2.211  12.549  0.2079 -0.1677 -0.2207
11229TIP3    H155178   0.571   2.157  12.628 -1.7351 -0.9455 -0.6391
11229TIP3    H255179   0.479   2.198  12.515  0.8780  0.4999 -2.2894
11230TIP3   OH255180   2.705   2.015   0.447  0.1793 -0.3668  0.3459
11230TIP3    H155181   2.770   1.992   0.514  0.3260  0.9182  0.6450
11230TIP3    H255182   2.624   1.974   0.478  0.3414 -0.1336  1.0937
11231TIP3   OH255183   3.130   0.519  15.169  0.2907 -0.2132  0.0067
11231TIP3    H155184   3.162   0.470  15.245  2.6358  0.9684 -0.1491
11231TIP3    H255185   3.072   0.585  15.206  0.0945 -0.7112  0.6009
11232TIP3   OH255186   3.711   3.623   5.499  0.8131  0.6500 -0.2770
11232TIP3    H155187   3.663   3.666   5.570 -0.3389 -0.1688 -0.5406
11232TIP3    H255188   3.666   3.539   5.487  2.3468 -0.1673 -0.5004
11233TIP3   OH255189   0.153   0.323  14.764  0.1011 -0.2281  0.2190
11233TIP3    H155190   0.235   0.373  14.772  0.6385 -1.1463  0.6472
11233TIP3    H255191   0.107   0.340  14.846  0.1916 -0.2768  0.2795
11234TIP3   OH255192   2.430   0.668  14.945  0.3631 -0.1043 -0.1332
11234TIP3    H155193   2.353   0.690  14.893  0.5914 -1.1974 -0.9459
11234TIP3    H255194   2.492   0.632  14.882  0.6407 -1.4597  0.8816
11235TIP3   OH255195   4.119   3.409   4.314 -0.4150 -0.1558  0.3043
11235TIP3    H155196   4.169   3.360   4.380  2.5218  0.2550 -1.5336
11235TIP3    H255197   4.084   3.484   4.362  0.7098 -0.4644  1.6605
11236TIP3   OH255198   6.110   3.250  14.248 -0.2466 -0.0025 -0.2217
11236TIP3    H155199   6.108   3.257  14.152 -0.7706 -0.5486 -0.2566
11236TIP3    H255200   6.110   3.156  14.265  1.8056  0.0780  0.2910
11237TIP3   OH255201   5.046   5.363  14.154 -0.3635 -0.2757  0.4673
11237TIP3    H155202   5.036   5.435  14.093  0.8803 -0.3674  0.1366
11237TIP3    H255203   5.025   5.400  14.240  0.5250  0.5546  0.3372
11238TIP3   OH255204   0.600   4.850   0.693 -0.7374 -0.5656  0.1351
11238TIP3    H155205   0.547   4.831   0.770 -0.8408 -0.5017  0.0792
11238TIP3    H255206   0.648   4.768   0.677  2.1125  0.5602  2.4801
11239TIP3   OH255207   0.466   0.635  12.531 -0.0110  0.4768  0.1108
11239TIP3    H155208   0.562   0.628  12.525 -0.2264 -0.8733 -2.5195
11239TIP3    H255209   0.439   0.669  12.446 -2.0624 -1.6992 -0.1772
11240TIP3   OH255210   4.467   1.612  11.250  0.1239  0.1529 -0.1049
11240TIP3    H155211   4.405   1.679  11.278  1.7300  1.0485  1.4443
11240TIP3    H255212   4.548   1.661  11.232  2.1918 -1.6050  3.7916
11241TIP3   OH255213   2.930   2.152   1.497 -0.4207  0.0173 -0.0577
11241TIP3    H155214   2.978   2.195   1.426  0.0704  0.4930  0.5632
11241TIP3    H255215   2.998   2.122   1.557 -0.7924 -1.0997 -0.1877
11242TIP3   OH255216   0.291   2.300  12.687  0.5025  0.4925 -0.0842
11242TIP3    H155217   0.357   2.330  12.750  0.5631  0.1877 -0.0040
11242TIP3    H255218   0.330   2.318  12.602  0.1258  1.5695 -0.0433
11243TIP3   OH255219   3.505   2.138  12.782 -0.0155 -0.0257 -0.1424
11243TIP3    H155220   3.545   2.185  12.709  0.6054 -1.0167 -0.4552
11243TIP3    H255221   3.467   2.060  12.743  0.3058 -0.5541  0.5892
11244TIP3   OH255222   4.401   0.478  16.348 -0.3689 -0.0355 -0.3691
11244TIP3    H155223   4.357   0.396  16.329 -1.5412  0.1767  1.2699
11244TIP3    H255224   4.340   0.546  16.319 -1.3291  0.2613  2.1794
11245TIP3   OH255225   5.197   2.557   1.590 -0.0690 -0.0825 -0.4686
11245TIP3    H155226   5.157   2.635   1.553 -0.4388 -0.1394 -0.1949
11245TIP3    H255227   5.131   2.488   1.578  0.4119 -0.4441 -1.0700
11246TIP3   OH255228   2.860   4.214   3.539  0.2907 -0.4361  0.0360
11246TIP3    H155229   2.885   4.178   3.453  4.1591  0.0581  0.8622
11246TIP3    H255230   2.921   4.286   3.553 -0.7522 -0.0693  2.9158
11247TIP3   OH255231   1.440   6.192  11.039  0.5098 -0.4421 -0.3347
11247TIP3    H155232   1.385   6.265  11.009 -0.5425 -1.6368 -1.3528
11247TIP3    H255233   1.379   6.131  11.080  1.5619 -0.1675  1.7088
11248TIP3   OH255234   2.525   1.143   3.817 -0.2457 -0.7579  0.2455
11248TIP3    H155235   2.608   1.131   3.864  0.2236  0.0737 -0.3673
11248TIP3    H255236   2.464   1.174   3.885  0.1172 -0.7221  0.5590
11249TIP3   OH255237   6.734   4.237   3.050 -0.4000  0.0341  0.4715
11249TIP3    H155238   6.791   4.247   2.974 -2.5374 -0.4221 -1.2392
11249TIP3    H255239   6.659   4.293   3.032 -0.7234  0.2974  2.4859
11250TIP3   OH255240   2.095   6.378   2.157  0.1222  0.7371  0.2736
11250TIP3    H155241   2.076   6.296   2.202  2.4709  0.5749  1.0504
11250TIP3    H255242   2.055   6.445   2.213 -1.5129  0.1644 -0.1912
11251TIP3   OH255243   2.044   5.391   4.401 -0.0951  0.5860 -0.3380
11251TIP3    H155244   2.005   5.405   4.314 -0.9609  1.1932  0.1348
11251TIP3    H255245   2.076   5.477   4.427  1.2434  0.1593 -0.5591
11252TIP3   OH255246   1.384   2.894  15.338  0.2007 -0.0064  0.1139
11252TIP3    H155247   1.355   2.803  15.346 -0.6134  0.1876 -0.5562
11252TIP3    H255248   1.406   2.904  15.245  1.9664 -0.0079  0.5100
11253TIP3   OH255249   6.472   6.786   1.721  0.1689  0.0286  0.2048
11253TIP3    H155250   6.437   6.789   1.632 -0.0207  1.1442  0.3147
11253TIP3    H255251   6.549   6.842   1.718 -0.7680  1.3799  1.1446
11254TIP3   OH255252   1.946   4.788   3.943  0.3078  0.1148 -0.2882
11254TIP3    H155253   1.856   4.757   3.933 -0.7494  2.2041  2.1434
11254TIP3    H255254   1.953   4.859   3.878 -0.6073  1.5407  1.1407
11255TIP3   OH255255   4.020   1.330   2.613  0.1531  0.1620  0.0383
11255TIP3    H155256   3.929   1.301   2.614  0.3782 -0.5466  0.3720
11255TIP3    H255257   4.070   1.251   2.635  0.9397  0.1760 -1.6353
11256TIP3   OH255258   0.614   1.008  14.658 -0.4870  0.3706  0.2448
11256TIP3    H155259   0.664   0.987  14.737 -0.6606 -0.5985  0.0966
11256TIP3    H255260   0.680   1.038  14.596 -0.5233  2.6414  1.2506
11257TIP3   OH255261   1.004   4.117   1.666  0.1235 -0.3072  0.3268
11257TIP3    H155262   0.986   4.164   1.585 -2.7385 -1.3339  0.3130
11257TIP3    H255263   0.956   4.166   1.734  0.8177 -0.6122  1.0456
11258TIP3   OH255264   4.633   4.229  15.004  0.0482  0.2725 -0.5220
11258TIP3    H155265   4.582   4.299  15.044 -0.5939 -0.3259 -0.2724
11258TIP3    H255266   4.721   4.264  14.995 -0.2717  1.1070 -0.4020
11259TIP3   OH255267   6.710   0.272  15.546  0.2466  0.0176  0.3906
11259TIP3    H155268   6.638   0.262  15.608  0.1939  0.6300  0.4299
11259TIP3    H255269   6.677   0.235  15.465  0.5869 -1.4936  0.9228
11260TIP3   OH255270   2.569   5.566   1.118  0.3379  0.5520  0.5004
11260TIP3    H155271   2.567   5.571   1.213 -0.2192  0.3693  0.5001
11260TIP3    H255272   2.477   5.560   1.092  0.5391 -0.7404  0.0320
11261TIP3   OH255273   4.235   4.788   4.890 -0.4212 -0.1458 -0.2418
11261TIP3    H155274   4.281   4.863   4.929  0.0353 -0.9629  0.8087
11261TIP3    H255275   4.160   4.773   4.948  0.1068 -1.2023  0.1694
11262TIP3   OH255276   5.821   3.292   1.010 -0.6213  0.3717  0.1570
11262TIP3    H155277   5.840   3.241   0.931  0.3432  0.8654  0.0626
11262TIP3    H255278   5.739   3.338   0.989  0.3863  1.6195 -1.1058
11263TIP3   OH255279   1.275   4.505  17.156 -0.3663 -0.4418 -0.1914
11263TIP3    H155280   1.370   4.505  17.168 -0.4900 -1.3448  0.9278
11263TIP3    H255281   1.252   4.412  17.149 -1.0900 -0.1965 -1.1222
11264TIP3   OH255282   2.287   5.270   0.991  0.0074  0.2056 -0.2691
11264TIP3    H155283   2.325   5.187   0.963 -0.5347  0.1581 -0.8875
11264TIP3    H255284   2.265   5.256   1.083  2.0272  0.4476  0.2683
11265TIP3   OH255285   6.440   6.243  14.763 -0.0130 -0.4068  0.0120
11265TIP3    H155286   6.377   6.214  14.696 -0.0470  0.8740 -0.5363
11265TIP3    H255287   6.471   6.328  14.731  0.0343  0.1897  1.5869
11266TIP3   OH255288   0.951   5.917  15.786  0.1446 -0.9389  0.0370
11266TIP3    H155289   0.926   6.001  15.825  1.0703 -0.9691  0.7126
11266TIP3    H255290   0.920   5.852  15.849 -0.2858 -1.0889 -0.3297
11267TIP3   OH255291   6.604   2.004  10.985 -0.2356 -0.0888 -0.0354
11267TIP3    H155292   6.583   2.032  11.075 -1.7464  1.5102 -0.8543
11267TIP3    H255293   6.522   1.967  10.952  0.9555 -2.8873  0.0140
11268TIP3   OH255294   6.684   4.913   0.077 -0.5147  0.2696  0.5859
11268TIP3    H155295   6.660   4.916   0.170 -2.9635  2.4617 -0.0549
11268TIP3    H255296   6.726   4.997   0.060  0.7405 -0.4887 -0.1019
11269TIP3   OH255297   2.203   0.813   3.262 -0.7192  0.0593  0.1424
11269TIP3    H155298   2.206   0.766   3.179  0.2093 -0.3895  0.4179
11269TIP3    H255299   2.195   0.905   3.237 -0.6751 -0.0941 -0.4444
11270TIP3   OH255300   6.434   5.118   1.406  0.1966  0.3416  0.2228
11270TIP3    H155301   6.362   5.165   1.448 -1.1304 -0.7976 -0.7480
11270TIP3    H255302   6.400   5.030   1.392  0.9633  0.4153 -2.3242
11271TIP3   OH255303   3.868   3.535   5.910 -0.4789 -0.1026  0.2178
11271TIP3    H155304   3.809   3.574   5.846 -1.3670  0.0180  1.0898
11271TIP3    H255305   3.928   3.605   5.934  0.5516 -0.4497 -1.2713
11272TIP3   OH255306   5.587   0.430  15.091  0.2388 -0.6669 -0.0444
11272TIP3    H155307   5.619   0.513  15.126  0.2987 -0.2424 -1.1028
11272TIP3    H255308   5.667   0.385  15.061  0.1494 -0.8792  0.0343
11273TIP3   OH255309   2.878   6.265  11.478 -0.3329  0.1738 -0.1999
11273TIP3    H155310   2.887   6.196  11.544  0.9338 -1.6573 -2.2031
11273TIP3    H255311   2.948   6.246  11.415  0.0129  3.2949 -0.8151
11274TIP3   OH255312   4.414   0.369  15.386 -0.4662 -0.0495  0.1890
11274TIP3    H155313   4.432   0.275  15.374 -0.9386 -0.3545  1.7042
11274TIP3    H255314   4.499   0.411  15.374 -0.2567 -0.6668 -0.5563
11275TIP3   OH255315   3.007   1.740  10.666 -0.2203  0.0675 -0.5201
11275TIP3    H155316   3.080   1.741  10.604  1.0318  0.5787  0.9231
11275TIP3    H255317   3.018   1.659  10.716 -0.3003  0.4213  0.0803
11276TIP3   OH255318   1.772   0.476   0.418  0.5027  0.2860 -0.3822
11276TIP3    H155319   1.742   0.385   0.413  1.8932 -0.2275  0.3061
11276TIP3    H255320   1.803   0.486   0.508 -0.5149  1.7357 -0.1741
11277TIP3   OH255321   1.130   1.445   6.249  0.0407  0.6125  0.6916
11277TIP3    H155322   1.035   1.446   6.259 -0.4845  1.9037 -3.3418
11277TIP3    H255323   1.154   1.538   6.241  1.1427  0.1656 -1.7084
11278TIP3   OH255324   5.444   0.360   1.878  0.2053 -0.1577 -0.9026
11278TIP3    H155325   5.493   0.406   1.947 -0.6413 -1.4943  0.6375
11278TIP3    H255326   5.511   0.310   1.832  1.0076  1.9247 -2.0589
11279TIP3   OH255327   3.796   1.505   4.513 -0.1905 -0.2004 -0.2187
11279TIP3    H155328   3.821   1.485   4.603 -0.1271  0.5970 -0.0595
11279TIP3    H255329   3.817   1.425   4.464 -0.1964 -0.6243  0.4619
11280TIP3   OH255330   4.794   5.601   1.085  0.0693  0.4256 -0.5238
11280TIP3    H155331   4.793   5.672   1.020 -3.9511  1.9549  1.0837
11280TIP3    H255332   4.706   5.563   1.081  0.8128 -1.6709  1.6710
11281TIP3   OH255333   5.205   4.926  11.437 -0.2567  0.5935  0.0656
11281TIP3    H155334   5.275   4.956  11.496 -0.1439  0.4560  0.0013
11281TIP3    H255335   5.156   5.006  11.417  1.2744  1.1373 -1.7552
11282TIP3   OH255336   5.230   4.430  17.213 -0.5104 -0.2961  0.6061
11282TIP3    H155337   5.140   4.401  17.196 -0.3206 -0.1937 -0.6093
11282TIP3    H255338   5.224   4.525  17.217 -0.7693 -0.3793  2.4286
11283TIP3   OH255339   4.823   1.657   0.031 -0.3300 -0.4343 -0.3095
11283TIP3    H155340   4.834   1.713   0.107  2.3526  0.3736 -1.2502
11283TIP3    H255341   4.900   1.601   0.030 -0.9456 -1.3059 -1.7142
11284TIP3   OH255342   4.629   0.934  16.498 -0.2750 -0.4130 -0.0458
11284TIP3    H155343   4.715   0.898  16.477 -0.7265 -1.9938  0.7752
11284TIP3    H255344   4.647   1.004  16.561  0.3969 -0.7558  0.1459
11285TIP3   OH255345   2.762   5.377   2.475  0.3304  0.0239 -0.2697
11285TIP3    H155346   2.749   5.307   2.411 -0.6439 -0.6018  0.6065
11285TIP3    H255347   2.829   5.343   2.535  0.5083  0.2013 -0.3671
11286TIP3   OH255348   3.701   1.295  14.786  0.5815 -0.0016 -0.1844
11286TIP3    H155349   3.685   1.219  14.730  2.8477 -1.4274  1.0145
11286TIP3    H255350   3.639   1.285  14.859 -1.4116  1.1157 -1.6896
11287TIP3   OH255351   4.062   3.465   1.070  0.1369 -0.0727  0.3908
11287TIP3    H155352   4.011   3.416   1.135 -1.1414  0.3163 -0.3116
11287TIP3    H255353   4.030   3.555   1.078 -2.0770 -0.5046 -2.7061
11288TIP3   OH255354   1.851   3.958  12.559 -0.8227  0.2228  0.5047
11288TIP3    H155355   1.846   4.037  12.613 -0.7187 -1.6485  3.3285
11288TIP3    H255356   1.769   3.913  12.575 -0.1558 -1.1014  0.2350
11289TIP3   OH255357   4.299   0.112  12.395 -0.6699 -0.2570 -0.2743
11289TIP3    H155358   4.364   0.083  12.332 -0.1962 -1.4996  0.7661
11289TIP3    H255359   4.252   0.183  12.351  1.3423  0.6241 -1.0551
11290TIP3   OH255360   1.423   6.416  11.298 -0.0551 -0.1438  0.3292
11290TIP3    H155361   1.502   6.374  11.333  0.9945  0.4138 -1.2610
11290TIP3    H255362   1.447   6.509  11.292 -1.2751  0.2133  0.9794
11291TIP3   OH255363   3.706   3.070  14.873 -0.0611 -0.6583  0.0776
11291TIP3    H155364   3.660   3.057  14.790  2.2130  0.2732 -1.3808
11291TIP3    H255365   3.663   3.147  14.912  0.6961  0.6792 -1.6309
11292TIP3   OH255366   5.702   2.434   5.112  0.0730 -0.5497  0.0895
11292TIP3    H155367   5.623   2.394   5.149  0.6256 -0.3106  1.5867
11292TIP3    H255368   5.773   2.403   5.168  0.6883  1.4297  0.4617
11293TIP3   OH255369   0.608   5.795   4.583  0.7607  0.3149 -0.2844
11293TIP3    H155370   0.673   5.827   4.520 -0.0006  0.6236 -0.9317
11293TIP3    H255371   0.601   5.864   4.648  1.5842 -0.0238  0.1600
11294TIP3   OH255372   5.861   1.385  14.465 -0.6262 -0.3647 -0.0540
11294TIP3    H155373   5.930   1.398  14.530 -1.2194 -1.5471  0.8317
11294TIP3    H255374   5.881   1.448  14.395 -0.3618  1.3961  1.5705
11295TIP3   OH255375   3.360   0.437  12.858  0.3737  0.2643  0.2235
11295TIP3    H155376   3.454   0.452  12.856  0.2093  1.3552  0.3460
11295TIP3    H255377   3.321   0.521  12.830 -0.6158  0.8231  3.0959
11296TIP3   OH255378   6.322   0.474   1.846  0.3509 -0.5489 -0.5816
11296TIP3    H155379   6.283   0.442   1.928 -0.6462 -1.0386 -1.2318
11296TIP3    H255380   6.388   0.538   1.874  0.1150 -0.8114  0.6082
11297TIP3   OH255381   6.578   1.070   1.424 -0.3942  0.6459  0.3203
11297TIP3    H155382   6.626   1.035   1.348  1.3188  1.9940  0.7498
11297TIP3    H255383   6.486   1.061   1.400  0.1143  1.0963 -1.9415
11298TIP3   OH255384   5.774   6.376  14.355  0.1113  0.0966  0.3275
11298TIP3    H155385   5.796   6.373  14.448  0.9183 -1.6829  0.0980
11298TIP3    H255386   5.844   6.428  14.316  0.8878 -0.8278  0.4445
11299TIP3   OH255387   5.080   3.494   6.094 -0.5206  0.2541  0.1038
11299TIP3    H155388   5.085   3.545   6.175 -1.9995 -2.5170  2.0182
11299TIP3    H255389   5.146   3.426   6.104 -0.0539  0.4396 -1.4850
11300TIP3   OH255390   0.001   1.904  13.573  0.2959  0.4929 -0.4363
11300TIP3    H155391  -0.085   1.944  13.575  1.1870  2.4633 -0.0436
11300TIP3    H255392   0.001   1.842  13.646 -0.7247  0.5859 -0.3558
11301TIP3   OH255393   0.241   5.201  14.445  0.0888 -0.3702 -0.3756
11301TIP3    H155394   0.197   5.223  14.527  1.0274 -1.1792  0.3602
11301TIP3    H255395   0.180   5.229  14.376 -0.7251  0.2652  0.5944
11302TIP3   OH255396   4.300   1.014  15.134  0.6395 -0.4354  0.2699
11302TIP3    H155397   4.223   1.058  15.169 -0.0279 -2.0269  0.8689
11302TIP3    H255398   4.367   1.025  15.202  0.0240 -1.5854  1.0902
11303TIP3   OH255399   2.037   1.593  11.724  0.3930  0.0263 -0.0364
11303TIP3    H155400   1.952   1.550  11.716 -0.0799  1.0779 -0.7540
11303TIP3    H255401   2.050   1.636  11.640  0.3214  2.2369  1.0546
11304TIP3   OH255402   2.225   0.189   5.363 -0.4932 -0.2193  0.2298
11304TIP3    H155403   2.245   0.168   5.271  1.0374  2.3764 -0.0733
11304TIP3    H255404   2.258   0.114   5.412 -0.6143 -1.2821 -1.2761
11305TIP3   OH255405   2.232   3.337   1.056  0.1074 -0.4245  0.2456
11305TIP3    H155406   2.323   3.307   1.051 -0.1172 -1.3118  1.1543
11305TIP3    H255407   2.206   3.320   1.147 -1.3040 -1.2536 -0.2802
11306TIP3   OH255408   6.619   0.463   5.781 -0.1241 -0.2941 -0.1928
11306TIP3    H155409   6.605   0.495   5.871 -0.2539  0.4363 -0.4686
11306TIP3    H255410   6.686   0.396   5.791  0.3377  0.2364  0.3758
11307TIP3   OH255411   1.885   0.930  15.337 -0.4091  0.5282  0.4408
11307TIP3    H155412   1.902   0.985  15.414 -1.6895  1.6886 -0.0839
11307TIP3    H255413   1.800   0.959  15.305 -0.4354 -0.7796 -0.7142
11308TIP3   OH255414   3.349   5.314   0.117 -0.1817 -0.4771  0.4098
11308TIP3    H155415   3.423   5.254   0.101 -0.6820 -0.6954 -1.2172
11308TIP3    H255416   3.386   5.384   0.171  1.1067 -0.8201 -0.0017
11309TIP3   OH255417   1.514   4.392   4.159 -0.1714  0.0745  0.2835
11309TIP3    H155418   1.513   4.429   4.071  0.4119  1.8471  1.0020
11309TIP3    H255419   1.504   4.468   4.217  0.0141 -1.0122  1.7592
11310TIP3   OH255420   6.514   3.142  17.264 -0.2073  0.2115  0.1382
11310TIP3    H155421   6.478   3.095  17.339  0.7914 -1.0333 -0.1370
11310TIP3    H255422   6.539   3.073  17.202  1.8122  1.0482 -0.0447
11311TIP3   OH255423   2.071   3.889   3.971 -0.5512  0.0520  0.6532
11311TIP3    H155424   2.081   3.811   4.025 -0.7425  0.0736  0.7196
11311TIP3    H255425   2.014   3.861   3.899 -0.5253  0.0981  0.6148
11312TIP3   OH255426   3.177   3.537  16.985 -0.2789 -0.3661 -0.2010
11312TIP3    H155427   3.101   3.479  16.989  0.0554 -0.8388 -0.6729
11312TIP3    H255428   3.244   3.492  17.038 -0.7511  0.6935  1.3358
11313TIP3   OH255429   2.556   6.128   0.836 -0.2693  0.4698  0.7110
11313TIP3    H155430   2.603   6.187   0.895 -3.0853  1.6197  1.8504
11313TIP3    H255431   2.543   6.048   0.887  0.0675  0.2950  0.5288
11314TIP3   OH255432   1.239   5.216  13.600  0.1544 -0.1548 -0.0382
11314TIP3    H155433   1.204   5.230  13.512  0.3528 -0.9436 -0.2462
11314TIP3    H255434   1.162   5.210  13.656  0.0233  0.2249 -0.1790
11315TIP3   OH255435   0.609   2.224   4.117 -0.0731  0.0472  0.1777
11315TIP3    H155436   0.637   2.175   4.194  2.8071  0.5027 -0.5370
11315TIP3    H255437   0.615   2.160   4.045  3.9882  1.4163 -0.8108
11316TIP3   OH255438   1.569   4.226   1.228  0.2228  0.4177  0.4506
11316TIP3    H155439   1.506   4.253   1.295  0.8728  1.9580  0.4538
11316TIP3    H255440   1.594   4.307   1.184  0.9968 -0.3869 -0.6127
11317TIP3   OH255441   5.191   0.858  13.840 -0.0886  0.1209 -0.4806
11317TIP3    H155442   5.136   0.782  13.818 -1.8522  1.6522 -1.4827
11317TIP3    H255443   5.168   0.924  13.775  0.3821  2.0131  1.2123
11318TIP3   OH255444   4.594   3.771  15.259 -0.2977  0.0595  0.5906
11318TIP3    H155445   4.661   3.781  15.191 -0.1099  0.5500  0.8416
11318TIP3    H255446   4.530   3.838  15.240 -1.1522 -0.9501 -0.1388
11319TIP3   OH255447   1.951   5.440  15.874  0.2965  0.1285 -0.1651
11319TIP3    H155448   2.044   5.419  15.864  0.0364 -1.1857  0.0609
11319TIP3    H255449   1.932   5.425  15.966 -0.0706  0.6800 -0.1485
11320TIP3   OH255450   5.149   3.348  11.553  0.5087 -0.4084  0.4776
11320TIP3    H155451   5.206   3.306  11.488 -0.0496  0.6499 -0.7359
11320TIP3    H255452   5.115   3.277  11.606 -0.1121 -1.4437 -1.2841
11321TIP3   OH255453   5.592   4.196   1.028  0.3154 -0.1139 -0.2746
11321TIP3    H155454   5.595   4.101   1.018 -0.1606 -0.2571  0.8949
11321TIP3    H255455   5.511   4.213   1.077  1.0519  0.7810  0.6566
11322TIP3   OH255456   2.681   4.010   1.261 -0.0096  0.3921  0.9422
11322TIP3    H155457   2.694   3.947   1.190 -1.4363  1.7210 -0.5565
11322TIP3    H255458   2.723   3.970   1.337  1.2454 -1.2286 -0.5648
11323TIP3   OH255459   4.218   5.506  16.872  0.3758  0.6124 -0.1655
11323TIP3    H155460   4.300   5.460  16.857 -1.3731 -1.9577 -2.3208
11323TIP3    H255461   4.182   5.521  16.784 -2.8363 -1.0092  0.7655
11324TIP3   OH255462   5.625   2.682  15.636 -0.9553  0.3376  0.7249
11324TIP3    H155463   5.575   2.726  15.567  0.0483 -0.4689 -0.5419
11324TIP3    H255464   5.595   2.591  15.633  0.0289  0.0110  0.4531
11325TIP3   OH255465   6.055   5.224  12.869  0.5813 -0.5314  0.1930
11325TIP3    H155466   5.988   5.289  12.849  1.4978  0.2462 -0.4213
11325TIP3    H255467   6.075   5.184  12.784  2.2349  0.5687  0.0437
11326TIP3   OH255468   2.668   5.595  16.847  0.8939  0.2899  0.1868
11326TIP3    H155469   2.703   5.654  16.913  0.1866  2.2796 -1.1812
11326TIP3    H255470   2.656   5.649  16.769 -0.6117 -1.4473 -0.8485
11327TIP3   OH255471   1.588   6.698   2.317  0.0424  0.3082  0.6217
11327TIP3    H155472   1.495   6.713   2.334  0.4426  2.0978  1.2997
11327TIP3    H255473   1.607   6.614   2.360 -2.2155 -2.3065 -3.1115
11328TIP3   OH255474   1.981   2.355   0.787  0.1005 -0.0817  0.0784
11328TIP3    H155475   1.947   2.420   0.849 -2.4540 -1.8950  0.6175
11328TIP3    H255476   1.982   2.273   0.836  0.9685 -0.9470 -1.3580
11329TIP3   OH255477   3.986   1.056   4.678 -0.1719  0.7798 -0.2785
11329TIP3    H155478   4.026   1.144   4.678  0.3564  0.5556 -1.5039
11329TIP3    H255479   3.897   1.071   4.647  0.1177  0.8129 -1.1222
11330TIP3   OH255480   1.674   1.163  13.157  0.3179 -0.4529  0.1310
11330TIP3    H155481   1.740   1.165  13.226  0.0453  1.1297  0.3745
11330TIP3    H255482   1.626   1.081  13.172  0.5904 -0.3677  1.5056
11331TIP3   OH255483   2.860   0.585  16.307  0.0952  0.5957 -0.5240
11331TIP3    H155484   2.786   0.598  16.247 -0.0586  1.3324 -0.1744
11331TIP3    H255485   2.880   0.672  16.339  0.4006  0.2467  0.2426
11332TIP3   OH255486   0.902   6.314   1.515  0.2947 -0.0021 -0.3128
11332TIP3    H155487   0.923   6.407   1.511  0.1237  0.0948  0.7746
11332TIP3    H255488   0.879   6.290   1.425 -0.0810  1.1068 -0.5149
11333TIP3   OH255489   5.827   6.128  15.036  0.0049 -0.2601 -0.1463
11333TIP3    H155490   5.878   6.122  15.117 -1.1783 -2.0485  0.5002
11333TIP3    H255491   5.893   6.127  14.966  0.9333 -1.2629  0.7192
11334TIP3   OH255492   6.088   2.681  16.379  0.2396 -0.2901  0.0687
11334TIP3    H155493   6.018   2.744  16.399 -0.3211 -0.6899 -0.6183
11334TIP3    H255494   6.063   2.602  16.428  0.3558 -0.3438  0.0389
11335TIP3   OH255495   1.767   5.265  11.932  0.6287  0.3815  0.1371
11335TIP3    H155496   1.809   5.316  11.863 -0.6628 -0.6942 -1.4717
11335TIP3    H255497   1.750   5.329  12.001  2.7067  1.3077 -0.1403
11336TIP3   OH255498   2.288   4.284   4.443 -0.4246 -0.0150 -0.5933
11336TIP3    H155499   2.358   4.240   4.491 -2.4785 -1.0970  1.4962
11336TIP3    H255500   2.299   4.376   4.464  0.3357 -0.1827 -0.2391
11337TIP3   OH255501   1.622   0.259   1.326 -0.3434  0.0766 -0.5085
11337TIP3    H155502   1.526   0.248   1.324 -0.3026 -0.0615 -2.2409
11337TIP3    H255503   1.646   0.274   1.235  1.1213  1.6799  0.1294
11338TIP3   OH255504   4.363   0.907   1.377  0.0179  0.0226  0.0723
11338TIP3    H155505   4.280   0.898   1.329 -0.2445 -1.0534  0.6990
11338TIP3    H255506   4.342   0.966   1.450 -1.2172 -3.1115  2.3824
11339TIP3   OH255507   4.173   0.332   0.872 -0.2870  0.7165 -0.4882
11339TIP3    H155508   4.089   0.370   0.847 -0.9012 -0.4347 -0.1955
11339TIP3    H255509   4.234   0.405   0.868 -1.1894  1.4440 -1.2596
11340TIP3   OH255510   4.478   5.710   6.019 -0.6286  0.0791 -0.6787
11340TIP3    H155511   4.567   5.677   6.003 -0.6808  0.3925 -1.5949
11340TIP3    H255512   4.491   5.797   6.055 -0.5823  0.5379 -1.7825
11341TIP3   OH255513   4.831   4.539   2.547  0.3316 -0.1995  0.0778
11341TIP3    H155514   4.927   4.538   2.546  0.3357  0.4249 -0.6023
11341TIP3    H255515   4.806   4.475   2.480  0.2751 -0.0930 -0.0024
11342TIP3   OH255516   2.476   5.010  13.171  0.8118 -0.4329 -0.1812
11342TIP3    H155517   2.456   5.097  13.135  0.7184 -0.0470  0.8085
11342TIP3    H255518   2.556   5.022  13.221 -0.0139 -0.5986  1.1858
11343TIP3   OH255519   6.435   4.613  13.828 -0.4892 -0.2221 -0.7058
11343TIP3    H155520   6.490   4.570  13.763  1.0142  0.0076  0.3814
11343TIP3    H255521   6.374   4.666  13.777  0.3975 -0.3726 -1.9330
11344TIP3   OH255522   6.712   5.375   3.742  0.0937  0.2007 -0.4033
11344TIP3    H155523   6.626   5.377   3.700 -1.0404  0.2449  1.8131
11344TIP3    H255524   6.737   5.282   3.741  0.6728  0.3608 -2.2767
11345TIP3   OH255525   0.266   5.614  11.345 -0.2026 -0.0070 -0.4902
11345TIP3    H155526   0.303   5.542  11.294  1.1612 -0.0013  0.4704
11345TIP3    H255527   0.339   5.675  11.357 -0.7746  0.4742  0.6092
11346TIP3   OH255528   1.124   2.386   0.398 -0.3562  0.5093 -0.1637
11346TIP3    H155529   1.142   2.304   0.443  0.2725  1.3192  1.0965
11346TIP3    H255530   1.029   2.395   0.402 -0.6656 -1.2762 -2.3568
11347TIP3   OH255531   5.978   6.132  14.049  0.6777 -0.5505  0.5730
11347TIP3    H155532   5.968   6.101  13.959  1.6591  1.2207 -0.1658
11347TIP3    H255533   5.889   6.132  14.084 -0.0620  1.1078 -1.1972
11348TIP3   OH255534   4.245   1.743  16.722 -0.4581  0.3613  0.4641
11348TIP3    H155535   4.329   1.761  16.679 -0.5735  2.6399  1.1456
11348TIP3    H255536   4.269   1.711  16.809 -0.3012  2.3836  1.1750
11349TIP3   OH255537   2.509   1.181   0.530  0.1234 -0.0130 -0.0168
11349TIP3    H155538   2.427   1.192   0.577  0.3835  1.1545  0.1934
11349TIP3    H255539   2.508   1.251   0.464  2.7579  2.6729  2.6484
11350TIP3   OH255540   6.206   3.106   1.399 -0.2587  0.4515 -0.5597
11350TIP3    H155541   6.237   3.045   1.466  0.4549  0.0945 -1.1974
11350TIP3    H255542   6.135   3.155   1.441  1.1492  1.2615  0.9460
11351TIP3   OH255543   6.111   3.025   1.026  0.2817  0.4014  0.4645
11351TIP3    H155544   6.031   2.997   0.982  0.5918 -1.2838  0.9182
11351TIP3    H255545   6.176   3.033   0.956  0.7662 -2.2400  0.5678
11352TIP3   OH255546   3.774   1.518   5.391 -0.4256  0.4350  0.0814
11352TIP3    H155547   3.844   1.582   5.379 -0.3355  0.3130 -0.0459
11352TIP3    H255548   3.703   1.567   5.432 -1.1193  1.1325 -1.8692
11353TIP3   OH255549   1.949   3.004  13.811  0.0520 -0.6927 -0.5049
11353TIP3    H155550   1.933   2.986  13.719  0.8572  1.6739 -1.1608
11353TIP3    H255551   2.045   3.004  13.820 -0.0250 -1.4631  0.4590
11354TIP3   OH255552   0.648   2.037   0.957 -0.5551  0.0558  0.4654
11354TIP3    H155553   0.573   1.999   0.911 -0.2412 -0.1616  0.1272
11354TIP3    H255554   0.613   2.066   1.041 -1.4369  1.6314 -0.4055
11355TIP3   OH255555   5.778   4.797   1.577  0.2507 -0.4279  0.5722
11355TIP3    H155556   5.700   4.744   1.590  0.0336 -0.2612 -0.0350
11355TIP3    H255557   5.850   4.743   1.610 -0.1491 -0.4750  1.3706
11356TIP3   OH255558   4.072   3.781  12.235 -0.4131  0.5856 -0.0851
11356TIP3    H155559   4.107   3.713  12.179 -0.0665  0.6372  0.0707
11356TIP3    H255560   3.983   3.751  12.255 -1.0364  1.2496 -1.7842
11357TIP3   OH255561   6.183   3.835  15.977  0.4388 -0.7448 -0.1063
11357TIP3    H155562   6.199   3.761  15.917  1.4042 -1.3584  0.8861
11357TIP3    H255563   6.151   3.794  16.057 -0.4011  0.0371 -0.0412
11358TIP3   OH255564   3.677   0.729  12.574 -0.0968 -0.3150  0.0305
11358TIP3    H155565   3.609   0.675  12.533 -1.3096  0.5642  0.8411
11358TIP3    H255566   3.632   0.771  12.647  1.1327  0.9150  0.0826
11359TIP3   OH255567   1.358   4.938  16.421 -0.1074  0.3067  0.4451
11359TIP3    H155568   1.394   4.953  16.508 -0.0760 -0.7657  0.6190
11359TIP3    H255569   1.264   4.957  16.431 -0.4111 -1.4645  1.1396
11360TIP3   OH255570   5.433   5.286  11.912 -0.3468 -0.4942  0.2317
11360TIP3    H155571   5.417   5.379  11.900  0.0664 -0.1573  2.1661
11360TIP3    H255572   5.399   5.245  11.832 -1.8385  1.1516 -0.0003
11361TIP3   OH255573   3.307   2.756   4.384  0.0155 -0.3420 -0.0546
11361TIP3    H155574   3.377   2.789   4.441  0.6570  1.0157 -1.5970
11361TIP3    H255575   3.310   2.661   4.396  1.1432 -0.1936  1.0199
11362TIP3   OH255576   4.638   0.550   3.639  0.3175 -0.5385 -0.2963
11362TIP3    H155577   4.649   0.458   3.663  0.4358 -0.4668 -0.0710
11362TIP3    H255578   4.546   0.558   3.614  0.2955 -0.7067 -0.2654
11363TIP3   OH255579   3.860   1.459   1.898  0.2639 -0.3741 -0.1364
11363TIP3    H155580   3.776   1.491   1.931 -0.4336 -0.6779 -1.5914
11363TIP3    H255581   3.924   1.525   1.926 -0.5248  0.0982  0.5498
11364TIP3   OH255582   6.250   5.944  12.223 -0.4060  0.3257 -0.6424
11364TIP3    H155583   6.158   5.929  12.243 -0.5647  1.8574 -0.1575
11364TIP3    H255584   6.280   5.863  12.182 -1.4751 -0.8762  0.9270
11365TIP3   OH255585   6.694   0.705   1.060  0.6095 -0.2108  0.2103
11365TIP3    H155586   6.650   0.621   1.045  0.6142 -0.0612 -0.7124
11365TIP3    H255587   6.623   0.769   1.057  0.7147 -0.1019  0.0595
11366TIP3   OH255588   3.102   4.896  10.635 -0.3186  0.2641 -0.6815
11366TIP3    H155589   3.037   4.925  10.699  0.7420 -1.0129  1.0158
11366TIP3    H255590   3.080   4.805  10.618  0.0961  0.2704 -1.2551
11367TIP3   OH255591   1.383   6.086  12.053  0.0383 -0.4688 -0.5337
11367TIP3    H155592   1.350   6.018  11.995  3.0534 -1.3516 -1.2703
11367TIP3    H255593   1.350   6.062  12.139 -1.6595 -1.0043 -1.2967
11368TIP3   OH255594   3.762   5.275   3.853 -0.1268 -0.3368  0.3033
11368TIP3    H155595   3.712   5.352   3.880  0.8458  1.1356 -1.9522
11368TIP3    H255596   3.697   5.206   3.842 -1.0259  0.1896  2.1870
11369TIP3   OH255597   5.934   4.407  16.175 -0.1706 -0.1588 -0.1151
11369TIP3    H155598   6.021   4.389  16.140 -0.4535 -0.5133 -0.6501
11369TIP3    H255599   5.876   4.402  16.099 -0.4831  1.4298 -0.0202
11370TIP3   OH255600   2.288   3.951  17.139 -0.4635 -0.6250 -0.2564
11370TIP3    H155601   2.206   3.980  17.178  0.6317  0.4393  1.3468
11370TIP3    H255602   2.312   4.021  17.078 -0.4235 -0.5968 -0.2103
11371TIP3   OH255603   2.290   3.796  11.711 -0.5019 -0.0202 -0.0823
11371TIP3    H155604   2.301   3.716  11.762 -0.6553 -0.3157 -0.5134
11371TIP3    H255605   2.333   3.863  11.764  0.3857 -0.5420 -0.1289
11372TIP3   OH255606   5.482   5.569  12.529  0.4969 -0.0727  0.5844
11372TIP3    H155607   5.458   5.485  12.568  1.0045 -0.5663 -0.1601
11372TIP3    H255608   5.574   5.580  12.549  0.3889  0.3974  0.8375
11373TIP3   OH255609   3.285   4.203   0.014 -0.2104 -0.0229  0.1703
11373TIP3    H155610   3.223   4.133  -0.006 -0.2392  0.0792 -0.0994
11373TIP3    H255611   3.331   4.173   0.092 -0.2888 -0.3012  0.1097
11374TIP3   OH255612   2.543   3.865   4.075  0.0670  0.3434 -0.1779
11374TIP3    H155613   2.471   3.804   4.088 -0.3540  0.6923 -0.8586
11374TIP3    H255614   2.518   3.915   3.997  1.2157  0.2258 -0.6217
11375TIP3   OH255615   3.433   4.786  12.249 -0.3259 -0.0351  0.2399
11375TIP3    H155616   3.415   4.875  12.219  0.6602  0.1241  0.1148
11375TIP3    H255617   3.504   4.795  12.312  0.8175 -0.8910 -0.9014
11376TIP3   OH255618   3.138   3.123   5.419  0.0476  0.2471  0.4961
11376TIP3    H155619   3.228   3.133   5.452  0.5547 -2.2820  0.0017
11376TIP3    H255620   3.143   3.152   5.328  0.1380  0.9720  0.7245
11377TIP3   OH255621   2.293   6.678   3.381  0.8952  0.0548  0.2735
11377TIP3    H155622   2.281   6.773   3.385  5.0559  0.6557  1.2471
11377TIP3    H255623   2.253   6.645   3.461 -4.6966  0.3011 -2.1807
11378TIP3   OH255624   1.908   5.975   3.806  0.2356 -0.0157 -0.0560
11378TIP3    H155625   1.985   6.010   3.852  0.3121  0.8098 -0.8082
11378TIP3    H255626   1.934   5.974   3.714 -1.0676  1.3757 -0.4563
11379TIP3   OH255627   4.602   4.721  14.953 -0.1313 -0.8678  0.2205
11379TIP3    H155628   4.686   4.689  14.986  0.4855 -0.1739 -0.6529
11379TIP3    H255629   4.598   4.690  14.863  0.4563  1.4220 -0.6267
11380TIP3   OH255630   2.156   1.250  13.280 -0.3253  0.4482  0.3056
11380TIP3    H155631   2.146   1.161  13.314 -1.8509 -0.4510 -2.2998
11380TIP3    H255632   2.246   1.274  13.299  0.3582 -1.9978  0.2834
11381TIP3   OH255633   3.569   4.435   2.009  0.2569  0.1255 -0.1919
11381TIP3    H155634   3.507   4.403   2.075 -0.5780  0.1893 -0.9296
11381TIP3    H255635   3.592   4.523   2.039 -0.2842  0.2384 -0.0888
11382TIP3   OH255636   1.983   1.111   0.537 -0.3105 -0.3232 -0.5872
11382TIP3    H155637   2.013   1.033   0.584 -1.1474 -0.0463  0.4309
11382TIP3    H255638   2.052   1.129   0.473  0.2230 -1.4755 -0.3367
11383TIP3   OH255639   4.677   4.507   0.503  0.2931 -0.3472  0.1241
11383TIP3    H155640   4.761   4.462   0.493  0.5696  0.0073  0.7995
11383TIP3    H255641   4.667   4.559   0.424 -0.4883 -2.3350 -1.1285
11384TIP3   OH255642   5.851   4.281  14.402  0.4427 -0.7541 -0.1149
11384TIP3    H155643   5.758   4.284  14.381  0.5670 -1.0481 -0.7184
11384TIP3    H255644   5.877   4.191  14.383  0.7154 -0.8400  0.6508
11385TIP3   OH255645   1.490   2.758  12.945  0.3327  0.5985  0.0530
11385TIP3    H155646   1.420   2.738  13.008  1.8603 -0.0583  1.5897
11385TIP3    H255647   1.535   2.675  12.932  1.9728  1.3809  0.5459
11386TIP3   OH255648   6.716   2.956   0.653  0.7002  0.0615  0.3045
11386TIP3    H155649   6.697   2.965   0.747  1.6745  0.6707  0.4426
11386TIP3    H255650   6.724   2.861   0.640  0.5840 -0.0265  0.8339
11387TIP3   OH255651   2.334   3.586  11.879  0.5181  0.0252  0.2685
11387TIP3    H155652   2.387   3.607  11.955  0.8584  0.9518 -0.2145
11387TIP3    H255653   2.315   3.493  11.888 -0.2053  0.3150  1.9568
11388TIP3   OH255654   6.638   2.646   2.541 -0.1897  0.3332 -0.4406
11388TIP3    H155655   6.658   2.559   2.576  0.5062  0.0744 -1.4489
11388TIP3    H255656   6.586   2.688   2.609  0.2476 -0.5397  0.4453
11389TIP3   OH255657   2.170   1.833   2.746  0.5074  0.0378  0.4240
11389TIP3    H155658   2.175   1.893   2.820 -0.6035 -0.8183  1.1986
11389TIP3    H255659   2.255   1.790   2.744  0.8272  0.6590  0.6978
11390TIP3   OH255660   2.562   6.147  14.089  0.3646  0.3523 -0.9176
11390TIP3    H155661   2.513   6.067  14.070 -1.9218  1.3163  0.6473
11390TIP3    H255662   2.625   6.154  14.017 -2.1566 -0.6522 -3.3109
11391TIP3   OH255663   1.497   6.234  15.929  0.1106 -0.4329  0.0785
11391TIP3    H155664   1.438   6.255  16.001 -0.6399  0.5240 -0.7958
11391TIP3    H255665   1.559   6.307  15.926 -1.3522  0.7967 -1.7655
11392TIP3   OH255666   2.029   6.313   5.602  0.2097 -0.0950  0.1733
11392TIP3    H155667   2.053   6.254   5.673  1.6422  1.5294  1.0673
11392TIP3    H255668   1.941   6.342   5.624  0.1357 -0.6191  0.5866
11393TIP3   OH255669   2.789   5.494  11.003  0.3459  0.1101  0.1846
11393TIP3    H155670   2.807   5.513  10.911  0.1980  0.3148  0.2002
11393TIP3    H255671   2.861   5.535  11.051 -0.0519  0.7606  0.2291
11394TIP3   OH255672   2.238   4.434   0.150 -0.8353 -0.0672 -0.4380
11394TIP3    H155673   2.172   4.374   0.116 -1.0537  0.5542 -1.1073
11394TIP3    H255674   2.321   4.386   0.142 -1.3024 -1.2257  1.2836
11395TIP3   OH255675   6.170   1.578   5.083 -0.0353 -0.1149  0.0153
11395TIP3    H155676   6.163   1.485   5.058 -0.0806  0.2655 -1.4295
11395TIP3    H255677   6.080   1.604   5.102  0.1275 -0.6814  1.6198
11396TIP3   OH255678   4.546   3.999  11.832  0.3961 -0.2843 -0.5428
11396TIP3    H155679   4.460   4.004  11.791  0.2724  1.9551 -0.0916
11396TIP3    H255680   4.588   3.924  11.791 -0.6252  0.4515 -3.0346
11397TIP3   OH255681   0.340   1.411  13.779 -0.2049  0.1178  0.0022
11397TIP3    H155682   0.287   1.490  13.780 -0.8413 -0.3109  1.7365
11397TIP3    H255683   0.378   1.409  13.691  0.7965  2.9815  0.3203
11398TIP3   OH255684   0.410   5.939   5.604  0.0919  0.0810 -0.1388
11398TIP3    H155685   0.341   5.913   5.543 -0.8492  0.3952  0.7870
11398TIP3    H255686   0.364   5.982   5.676  1.4422  2.2182 -0.5237
11399TIP3   OH255687   3.579   4.808   3.239 -0.0179 -0.4669  0.0283
11399TIP3    H155688   3.520   4.775   3.171  0.2950  0.8342 -0.8858
11399TIP3    H255689   3.525   4.869   3.290  0.3247  0.1632 -0.3554
11400TIP3   OH255690   5.527   4.474  11.624 -0.5671  0.4005  0.0949
11400TIP3    H155691   5.557   4.561  11.600  1.3498  0.0788  1.2316
11400TIP3    H255692   5.439   4.487  11.660 -0.5758  1.7462 -0.4050
11401TIP3   OH255693   0.087   0.707  14.848 -0.1928  0.1706 -0.4488
11401TIP3    H155694   0.149   0.727  14.779  0.4795  0.1183  0.1362
11401TIP3    H255695   0.119   0.625  14.887 -0.1463  0.5853  0.4062
11402TIP3   OH255696   5.250   5.765   1.921 -0.6574 -0.5742  0.2140
11402TIP3    H155697   5.155   5.759   1.911 -0.7229  1.9247 -1.0245
11402TIP3    H255698   5.277   5.676   1.946 -3.2709 -1.3752  0.3518
11403TIP3   OH255699   2.944   0.069   1.584  0.5458 -0.9813  0.6770
11403TIP3    H155700   2.917   0.160   1.599  1.7597 -0.4134 -0.4925
11403TIP3    H255701   2.925   0.025   1.667 -0.8635  0.1370  0.9696
11404TIP3   OH255702   5.958   2.492   1.802  0.0823 -0.8760 -0.1864
11404TIP3    H155703   6.029   2.553   1.819  0.6549 -1.4220 -0.6010
11404TIP3    H255704   5.889   2.545   1.763 -0.0219 -0.2133  0.8699
11405TIP3   OH255705   3.859   3.440  14.819 -0.6330 -0.5510 -0.2030
11405TIP3    H155706   3.816   3.379  14.880 -1.3556 -2.8131 -2.8591
11405TIP3    H255707   3.937   3.392  14.790 -0.3037  0.5016 -1.0547
11406TIP3   OH255708   1.663   3.067   5.189  0.4227  0.2734 -0.5517
11406TIP3    H155709   1.627   3.008   5.122 -0.4337  1.1339 -0.8623
11406TIP3    H255710   1.750   3.032   5.207  0.3723 -0.4136 -1.5801
11407TIP3   OH255711   2.356   3.690   4.024  0.7606 -0.4070 -0.7481
11407TIP3    H155712   2.289   3.641   4.072  1.4012 -0.6393 -0.0767
11407TIP3    H255713   2.323   3.694   3.934 -0.1310 -0.5509 -0.4315
11408TIP3   OH255714   0.020   6.311  16.717 -0.3178  0.0912  0.1330
11408TIP3    H155715   0.006   6.311  16.811  0.0822 -1.2534  0.2014
11408TIP3    H255716   0.093   6.250  16.703 -0.6943 -0.0986 -1.0856
11409TIP3   OH255717   1.599   1.493   2.073 -0.2616  0.1542 -0.6019
11409TIP3    H155718   1.592   1.403   2.104  1.2354  0.5335  0.9163
11409TIP3    H255719   1.583   1.547   2.151 -1.2456  1.2057 -1.5122
11410TIP3   OH255720   0.912   2.923  16.086 -0.1272 -0.3990 -0.7281
11410TIP3    H155721   0.974   2.994  16.072 -0.7629  0.2967 -0.0732
11410TIP3    H255722   0.830   2.967  16.111 -0.2882 -1.3855  0.5274
11411TIP3   OH255723   1.149   1.358  12.679  0.6985 -0.4150 -0.4932
11411TIP3    H155724   1.129   1.406  12.759  1.3754  0.0201 -0.5802
11411TIP3    H255725   1.089   1.284  12.680  0.7909 -0.4828  0.4800
11412TIP3   OH255726   5.003   5.133  11.408  0.5250 -0.0007 -0.4038
11412TIP3    H155727   4.931   5.122  11.470  1.2410  0.3376  0.4845
11412TIP3    H255728   5.023   5.226  11.409 -0.1885  0.1750 -1.9626
11413TIP3   OH255729   2.910   2.810   0.941  0.0492 -0.1377  0.2687
11413TIP3    H155730   2.981   2.867   0.971  1.4109 -1.8613  0.4256
11413TIP3    H255731   2.840   2.870   0.915  1.2732  1.5760  0.8436
11414TIP3   OH255732   1.841   1.081  12.481 -0.2949  0.4781 -0.9329
11414TIP3    H155733   1.756   1.081  12.437 -1.5908 -0.2411  1.4756
11414TIP3    H255734   1.863   1.173  12.491 -2.2964  0.7645  1.1582
11415TIP3   OH255735   1.538   5.234  10.743 -0.2534 -0.0977  0.1646
11415TIP3    H155736   1.497   5.315  10.771  0.5254  0.0199  1.0082
11415TIP3    H255737   1.483   5.202  10.672 -0.5955  1.1363 -0.1335
11416TIP3   OH255738   5.267   3.343   0.334 -0.3919  0.5565 -0.2656
11416TIP3    H155739   5.324   3.412   0.368  0.7751 -0.0614 -0.9345
11416TIP3    H255740   5.183   3.359   0.376  0.5424  0.8638  1.5336
11417TIP3   OH255741   3.801   6.764   1.312 -0.3583 -0.1599  0.5421
11417TIP3    H155742   3.885   6.752   1.356  0.8662 -0.7657 -1.8896
11417TIP3    H255743   3.746   6.693   1.345  0.9361 -1.3575  0.1753
11418TIP3   OH255744   3.720   4.346  15.501 -0.3978  0.0056 -0.6323
11418TIP3    H155745   3.808   4.384  15.511  0.3103 -1.7773  0.0125
11418TIP3    H255746   3.664   4.401  15.556  0.7093 -0.1745  0.7138
11419TIP3   OH255747   2.547   0.968   3.092  0.5292  0.1333  0.0007
11419TIP3    H155748   2.618   0.955   3.030  0.4849 -0.5957  0.1037
11419TIP3    H255749   2.511   0.881   3.107 -0.8961  0.5923 -0.6491
11420TIP3   OH255750   0.816   1.665   5.862  0.1625 -0.5664 -0.1925
11420TIP3    H155751   0.770   1.586   5.892  1.7182 -1.4636 -0.0886
11420TIP3    H255752   0.907   1.651   5.889  0.0303  2.4209  2.1148
11421TIP3   OH255753   0.890   6.068  16.605 -0.3770 -0.0031 -0.1754
11421TIP3    H155754   0.821   6.132  16.619 -0.0297  0.0702  1.3262
11421TIP3    H255755   0.857   6.011  16.536 -1.8805  0.1099  0.4356
11422TIP3   OH255756   6.378   4.246  15.294  0.2724 -0.1182 -0.6140
11422TIP3    H155757   6.449   4.194  15.257 -0.6028 -2.1164  0.4347
11422TIP3    H255758   6.375   4.222  15.386 -2.3540 -0.7784 -0.8277
11423TIP3   OH255759   3.649   0.424  16.294 -0.2670 -0.4537 -0.0544
11423TIP3    H155760   3.677   0.366  16.365 -1.0693 -2.5758 -1.3993
11423TIP3    H255761   3.554   0.425  16.301 -0.3852 -1.0804 -1.3587
11424TIP3   OH255762   2.661   1.401   1.707 -0.4744  0.6383 -0.0887
11424TIP3    H155763   2.594   1.468   1.720 -0.6956  0.1105  1.6210
11424TIP3    H255764   2.736   1.449   1.671 -1.1347  1.5338 -0.2978
11425TIP3   OH255765   1.932   5.708   3.971  0.0705 -0.6666 -0.0034
11425TIP3    H155766   1.889   5.679   3.891 -2.3223  2.2284  0.1708
11425TIP3    H255767   1.982   5.785   3.945  0.7176 -0.7577  0.9475
11426TIP3   OH255768   4.776   3.261   2.176 -0.1590  0.1050  0.0269
11426TIP3    H155769   4.819   3.248   2.092  0.4218  0.8309  0.2007
11426TIP3    H255770   4.705   3.322   2.157  0.4015  0.8152  0.1820
11427TIP3   OH255771   2.680   6.441   5.291  0.0267 -0.0862  0.7598
11427TIP3    H155772   2.587   6.463   5.291 -0.3693 -1.6954  1.2983
11427TIP3    H255773   2.724   6.523   5.312 -1.2946  0.5862  0.9752
11428TIP3   OH255774   0.552   1.875   6.145  0.1150 -0.5175 -0.3310
11428TIP3    H155775   0.576   1.782   6.139  0.3314 -0.4415 -0.6630
11428TIP3    H255776   0.518   1.885   6.234  1.5067 -0.5831  0.2304
11429TIP3   OH255777   3.589   4.371  15.208 -0.0708  0.1427  0.8650
11429TIP3    H155778   3.608   4.412  15.292 -2.6929  2.7285  0.2927
11429TIP3    H255779   3.620   4.434  15.143 -2.1257  0.2753 -0.0365
11430TIP3   OH255780   3.905   0.470   4.489 -0.3849  0.2945  0.3382
11430TIP3    H155781   3.939   0.550   4.449  0.0762 -0.2137 -0.2998
11430TIP3    H255782   3.810   0.476   4.477 -0.2242 -0.0709 -1.2808
11431TIP3   OH255783   4.469   4.906  15.544 -0.4964  0.3640  0.2739
11431TIP3    H155784   4.448   4.856  15.465 -1.7183  0.5077  0.4904
11431TIP3    H255785   4.517   4.844  15.599  0.0966  0.1718 -0.4578
11432TIP3   OH255786   5.272   6.243  14.682 -0.0106  0.2283  0.1183
11432TIP3    H155787   5.234   6.297  14.612 -0.8230  0.0533  0.4161
11432TIP3    H255788   5.349   6.203  14.642 -1.0687 -0.7212 -1.0189
11433TIP3   OH255789   3.140   4.943   6.440  0.2279 -0.3394  0.1241
11433TIP3    H155790   3.149   4.892   6.521  2.4175 -0.6277 -0.2507
11433TIP3    H255791   3.229   4.974   6.422 -0.9816  3.2628  0.0822
11434TIP3   OH255792   2.587   4.529   2.605  0.0809  0.7150  0.2828
11434TIP3    H155793   2.616   4.438   2.604  0.6424  0.8592  1.7482
11434TIP3    H255794   2.632   4.569   2.531  1.8660  0.3925  1.1558
11435TIP3   OH255795   1.694   0.829  11.186  0.6494  0.0014 -0.4471
11435TIP3    H155796   1.763   0.762  11.190 -0.2097 -0.8134  1.3963
11435TIP3    H255797   1.669   0.832  11.094  1.6861 -1.2154 -0.7886
11436TIP3   OH255798   0.683   6.272  14.180  0.5267  0.5194  0.4668
11436TIP3    H155799   0.670   6.283  14.085  1.4027  0.0665  0.2866
11436TIP3    H255800   0.615   6.326  14.220  1.7474  2.7507 -0.3943
11437TIP3   OH255801   6.422   3.583  14.791  0.3972  0.2540  0.2448
11437TIP3    H155802   6.351   3.542  14.839 -0.0247 -1.2635 -1.6031
11437TIP3    H255803   6.379   3.630  14.720  1.2080 -0.6420 -0.8629
11438TIP3   OH255804   6.595   1.604  14.973 -0.7189  0.5938 -0.0125
11438TIP3    H155805   6.684   1.612  14.941 -0.9465 -1.8107 -1.4150
11438TIP3    H255806   6.605   1.585  15.067  0.2114  0.8864 -0.0468
11439TIP3   OH255807   0.306   4.821  14.106 -0.0815 -0.3120  0.0338
11439TIP3    H155808   0.342   4.865  14.182  0.3965  1.1638 -1.0271
11439TIP3    H255809   0.382   4.780  14.064 -0.1114  0.1225 -0.4515
11440TIP3   OH255810   3.130   3.219  16.966 -0.8069  0.7716  0.1739
11440TIP3    H155811   3.043   3.231  16.927 -1.0345 -1.6219 -0.1100
11440TIP3    H255812   3.113   3.200  17.058 -0.6470 -0.6781 -0.0891
11441TIP3   OH255813   5.551   2.145  16.808  0.0420 -0.1992  0.2573
11441TIP3    H155814   5.541   2.084  16.881 -0.0061 -2.2760 -1.4377
11441TIP3    H255815   5.461   2.168  16.784  0.0573  0.4578  0.8268
11442TIP3   OH255816   2.575   0.858  11.603  0.6317  0.3210  0.2656
11442TIP3    H155817   2.516   0.925  11.639  0.1268 -0.5211  1.0119
11442TIP3    H255818   2.651   0.861  11.660  0.8033  0.5741  0.0243
11443TIP3   OH255819   5.290   1.724  15.007  0.1153  0.1530 -0.1945
11443TIP3    H155820   5.207   1.715  15.055  0.5030 -1.8955  0.1460
11443TIP3    H255821   5.351   1.759  15.072  0.0210 -0.2733  0.1275
11444TIP3   OH255822   0.808   4.936   2.787 -0.1106  0.0920 -0.8255
11444TIP3    H155823   0.811   4.948   2.692 -1.6111  1.7179 -0.6976
11444TIP3    H255824   0.772   5.018   2.820  0.5644 -0.3989  1.1703
11445TIP3   OH255825   3.140   1.288   4.928  0.5417 -0.0014  0.1123
11445TIP3    H155826   3.105   1.212   4.976  0.7543 -0.0830  0.1399
11445TIP3    H255827   3.188   1.338   4.994 -0.4052  0.6722  0.3052
11446TIP3   OH255828   2.698   6.000   1.810 -1.7218 -0.3970 -0.1236
11446TIP3    H155829   2.693   5.956   1.725 -1.5125 -0.4363 -0.1169
11446TIP3    H255830   2.790   5.992   1.835 -1.7000 -0.0309 -0.0818
11447TIP3   OH255831   1.589   0.081  12.808  0.0561 -0.1291 -0.0857
11447TIP3    H155832   1.578  -0.014  12.803 -0.1587 -0.1454  0.7279
11447TIP3    H255833   1.681   0.095  12.787  0.3413 -0.6061  0.8190
11448TIP3   OH255834   2.914   4.345  13.216 -0.1397  0.2186 -0.6805
11448TIP3    H155835   2.896   4.427  13.171 -1.2670  0.5028  0.2483
11448TIP3    H255836   2.833   4.295  13.208  0.0992 -0.2669 -0.1279
11449TIP3   OH255837   0.876   5.749   5.142 -0.1014  0.0453 -0.0033
11449TIP3    H155838   0.845   5.818   5.201 -0.0026  0.2692 -0.2095
11449TIP3    H255839   0.833   5.768   5.059 -0.6885 -0.6068  0.1462
11450TIP3   OH255840   0.342   0.214   3.804 -0.7092  0.2697  0.7842
11450TIP3    H155841   0.301   0.181   3.724 -0.1022  0.7135  0.2742
11450TIP3    H255842   0.383   0.296   3.777  3.1749 -1.6640  0.5042
11451TIP3   OH255843   4.593   6.482   3.200  0.1408 -0.4192  0.3167
11451TIP3    H155844   4.520   6.439   3.244 -1.1582 -0.0445 -1.4081
11451TIP3    H255845   4.632   6.414   3.146 -0.2216 -0.1387 -0.3154
11452TIP3   OH255846   2.185   6.635   0.369  0.4934 -0.2230 -0.5619
11452TIP3    H155847   2.241   6.557   0.359  0.0948 -0.4401 -1.1650
11452TIP3    H255848   2.238   6.707   0.334  0.8246 -0.2401 -0.0977
11453TIP3   OH255849   4.636   2.361   2.775 -0.1846 -0.2803 -0.2698
11453TIP3    H155850   4.560   2.398   2.729  0.5876  0.9229 -0.6132
11453TIP3    H255851   4.607   2.352   2.866 -0.4912  0.9209 -0.2389
11454TIP3   OH255852   2.965   2.081  11.685  0.0473  0.7233 -0.0700
11454TIP3    H155853   3.048   2.043  11.656  0.7536  2.6396 -0.7000
11454TIP3    H255854   2.905   2.068  11.612 -0.4239 -1.2418  0.6386
11455TIP3   OH255855   4.323   2.317  14.361  0.0489  0.4057  0.2381
11455TIP3    H155856   4.294   2.246  14.304  0.2290  0.6095 -0.1089
11455TIP3    H255857   4.246   2.341  14.411 -0.9023  2.1959 -1.9829
11456TIP3   OH255858   5.957   4.943  11.865  0.1742 -0.6161  0.2723
11456TIP3    H155859   5.863   4.939  11.850  0.0065 -0.5105  1.2466
11456TIP3    H255860   5.967   5.006  11.936  1.0319 -0.1758 -0.2262
11457TIP3   OH255861   4.522   0.086   4.501  0.4628  0.3877  0.6802
11457TIP3    H155862   4.507   0.063   4.593  0.2687  0.7813  0.7467
11457TIP3    H255863   4.537   0.180   4.502 -3.4380  1.1254 -0.1116
11458TIP3   OH255864   4.800   0.959   4.717 -0.7313  0.3509 -0.5298
11458TIP3    H155865   4.866   0.920   4.660 -0.7324 -0.5357  0.0474
11458TIP3    H255866   4.832   1.047   4.735  0.8485 -0.4332  0.5926
11459TIP3   OH255867   5.471   0.966   5.266  0.3584  0.3021  0.0548
11459TIP3    H155868   5.460   0.905   5.193 -1.9429  0.1874  0.4695
11459TIP3    H255869   5.518   1.040   5.229 -0.7952  0.2499 -1.5440
11460TIP3   OH255870   3.055   6.269  11.097 -0.3221 -0.6262  0.0505
11460TIP3    H155871   3.135   6.262  11.044 -0.0976 -0.5529  0.3786
11460TIP3    H255872   3.030   6.361  11.090 -0.6840 -0.7641 -0.4931
11461TIP3   OH255873   2.418   1.513   3.839  0.4800  0.3110  0.4143
11461TIP3    H155874   2.442   1.506   3.932  2.2087  0.1994 -0.0193
11461TIP3    H255875   2.499   1.541   3.796  0.1073 -1.1129 -1.2686
11462TIP3   OH255876   0.324   1.769   4.344  0.2140 -0.0736 -0.2974
11462TIP3    H155877   0.352   1.684   4.378 -0.1421  0.2536  0.8195
11462TIP3    H255878   0.406   1.811   4.317  0.5535 -0.1891  0.5161
11463TIP3   OH255879   1.948   5.323  15.416  0.1823 -0.5784  0.2717
11463TIP3    H155880   1.927   5.416  15.423  0.0605 -0.6812  1.4535
11463TIP3    H255881   2.013   5.318  15.347  0.8025  0.4992  0.7637
11464TIP3   OH255882   6.061   4.375  12.309 -0.2038  0.1996 -0.4007
11464TIP3    H155883   5.990   4.383  12.373 -0.8278 -2.1667 -0.7477
11464TIP3    H255884   6.049   4.288  12.271  1.0907  0.9697 -2.6437
11465TIP3   OH255885   6.088   6.498   2.404  0.1460 -0.1824  0.3467
11465TIP3    H155886   6.018   6.506   2.469 -0.1790  0.9488 -0.1311
11465TIP3    H255887   6.158   6.450   2.450 -0.3689 -0.0601  1.2805
11466TIP3   OH255888   2.280   1.869   3.845  0.2664  0.2595  0.1646
11466TIP3    H155889   2.276   1.877   3.940  2.6578  1.4219  0.1926
11466TIP3    H255890   2.374   1.864   3.825 -0.2663 -2.1357 -1.9629
11467TIP3   OH255891   4.884   4.042   0.181  0.4538 -0.2423  0.1767
11467TIP3    H155892   4.948   3.973   0.165 -0.2555 -1.0599  0.7521
11467TIP3    H255893   4.935   4.121   0.193  1.3378 -0.8408  0.3979
11468TIP3   OH255894   1.688   5.816   5.742 -0.6022  0.2031 -0.0361
11468TIP3    H155895   1.699   5.857   5.655  1.1609 -3.1236 -1.4421
11468TIP3    H255896   1.753   5.859   5.797  0.2426  0.3021 -1.1021
11469TIP3   OH255897   2.388   4.181  11.304 -0.2513  0.5444  0.6677
11469TIP3    H155898   2.411   4.088  11.294 -0.0516  0.7250 -0.6489
11469TIP3    H255899   2.327   4.183  11.377  0.2103 -0.5551  1.0902
11470TIP3   OH255900   2.077   5.502   3.624 -0.4805 -0.8594 -0.2038
11470TIP3    H155901   2.091   5.570   3.558 -0.6383 -0.9104 -0.2912
11470TIP3    H255902   2.048   5.426   3.574  3.1045 -2.1236 -0.5300
11471TIP3   OH255903   3.720   3.120  16.577 -0.7826  0.3922 -0.1545
11471TIP3    H155904   3.801   3.169  16.560 -0.5161  0.9251  2.4930
11471TIP3    H255905   3.743   3.029  16.557  0.5520  0.5153  0.7376
11472TIP3   OH255906   0.768   0.887  10.699 -0.1760 -0.0663  0.0220
11472TIP3    H155907   0.801   0.811  10.652  1.4887  0.9745 -0.5684
11472TIP3    H255908   0.810   0.883  10.785  1.6755  1.3364 -0.7771
11473TIP3   OH255909   4.944   3.113   3.936  0.3781  0.8106 -0.3109
11473TIP3    H155910   5.015   3.176   3.944  0.4865  0.5895  0.5793
11473TIP3    H255911   4.988   3.029   3.919  0.2673  0.8572 -0.8418
11474TIP3   OH255912   4.607   2.494   4.604  0.2004 -0.2530  0.3842
11474TIP3    H155913   4.525   2.540   4.619 -0.8123 -1.1575 -2.0118
11474TIP3    H255914   4.665   2.560   4.565  0.7327  0.4593  2.3408
11475TIP3   OH255915   4.385   4.767  15.336 -0.1831  0.1994  0.2663
11475TIP3    H155916   4.321   4.717  15.285  0.3250 -0.6706  0.4801
11475TIP3    H255917   4.470   4.734  15.307  0.0902 -1.0205  2.4034
11476TIP3   OH255918   4.510   0.093   2.267  0.2711 -0.2322  0.1829
11476TIP3    H155919   4.428   0.124   2.306 -0.1714 -0.1410 -0.7869
11476TIP3    H255920   4.506  -0.003   2.277  0.6304 -0.1335  1.2545
11477TIP3   OH255921   5.986   5.126  12.310 -0.0448 -0.1458  0.2252
11477TIP3    H155922   6.073   5.091  12.293 -0.3476 -0.5011 -0.6035
11477TIP3    H255923   5.927   5.052  12.294 -0.6989  0.7521 -1.5783
11478TIP3   OH255924   3.162   4.568   3.127  0.0515 -0.0355 -0.2529
11478TIP3    H155925   3.157   4.510   3.050  0.0161  2.0161 -1.8369
11478TIP3    H255926   3.073   4.572   3.160  0.4064 -2.4766  1.1026
11479TIP3   OH255927   2.535   1.549  12.339 -0.1694  0.1630  0.0881
11479TIP3    H155928   2.588   1.499  12.401  1.1479  0.0268 -1.1321
11479TIP3    H255929   2.555   1.641  12.359 -1.1914  0.1750  1.1089
11480TIP3   OH255930   0.012   4.171  13.267  0.0661  0.6575  0.0066
11480TIP3    H155931  -0.027   4.134  13.188 -0.2457  2.2317 -0.5972
11480TIP3    H255932  -0.059   4.169  13.332 -0.2125  0.9990 -0.2824
11481TIP3   OH255933   1.027   5.151  11.959 -0.5542 -0.0900 -0.4643
11481TIP3    H155934   1.000   5.187  12.043 -1.0835  0.9872 -1.0771
11481TIP3    H255935   1.036   5.227  11.902 -0.0136 -0.7863 -1.3327
11482TIP3   OH255936   4.820   0.563   4.433 -0.6309  0.4687  0.0128
11482TIP3    H155937   4.901   0.535   4.390 -0.0968  1.0093  0.6579
11482TIP3    H255938   4.847   0.632   4.493 -1.5897  0.7240  0.1609
11483TIP3   OH255939   4.829   0.164  10.833 -0.0762 -0.6996  1.1091
11483TIP3    H155940   4.747   0.207  10.808  0.5369  1.1360  2.1915
11483TIP3    H255941   4.879   0.232  10.877  2.3377 -1.6010 -0.1516
11484TIP3   OH255942   2.969   4.516   4.244 -0.1429 -0.1112 -0.3149
11484TIP3    H155943   3.033   4.521   4.315 -1.6023 -0.0716  1.0145
11484TIP3    H255944   2.956   4.607   4.216  0.0531 -0.0745 -0.2831
11485TIP3   OH255945   6.780   2.986  12.728 -0.0175 -0.3680  0.0054
11485TIP3    H155946   6.801   3.059  12.787  1.2126  0.2550 -1.1559
11485TIP3    H255947   6.859   2.976  12.674 -0.9459 -1.2075 -1.2271
11486TIP3   OH255948   2.113   1.461   1.877  0.0665  0.3340 -0.9751
11486TIP3    H155949   2.036   1.489   1.829 -2.3574 -0.6532  2.1520
11486TIP3    H255950   2.167   1.416   1.812 -4.4840 -3.6669 -2.2752
11487TIP3   OH255951   0.326   2.258  13.530 -0.2707 -0.4954 -0.0070
11487TIP3    H155952   0.326   2.320  13.603  1.8519 -1.3682  0.7649
11487TIP3    H255953   0.309   2.173  13.570 -0.2831 -0.8138 -0.6832
11488TIP3   OH255954   2.764   6.627   6.622  0.2480  0.1139  0.0275
11488TIP3    H155955   2.853   6.625   6.587  0.1933  0.9849 -0.1667
11488TIP3    H255956   2.748   6.719   6.642 -0.6724 -0.0204 -0.0825
11489TIP3   OH255957   3.638   2.240  12.329 -0.1620  0.5560 -0.5568
11489TIP3    H155958   3.625   2.242  12.424  0.2998 -0.9050 -0.4522
11489TIP3    H255959   3.668   2.152  12.311 -1.2057  0.5137 -2.2049
11490TIP3   OH255960   2.519   3.592   5.491 -0.6189 -0.0388 -0.8984
11490TIP3    H155961   2.495   3.640   5.412 -1.6650  1.8105  0.5011
11490TIP3    H255962   2.548   3.660   5.552  2.3935 -1.6359 -0.4352
11491TIP3   OH255963   0.741   3.233   0.922  0.0375  0.1575  0.4117
11491TIP3    H155964   0.648   3.254   0.916 -0.1534 -0.7985  0.0177
11491TIP3    H255965   0.780   3.273   0.844  0.3498  2.5261  1.7201
11492TIP3   OH255966   1.352   0.917   5.512 -0.0667  0.2300  0.4924
11492TIP3    H155967   1.393   0.849   5.566 -0.4530 -0.6348 -0.3024
11492TIP3    H255968   1.280   0.873   5.468  0.5865  0.7786 -1.1737
11493TIP3   OH255969   4.178   5.993  16.056 -0.1566 -0.1045  0.0370
11493TIP3    H155970   4.091   5.970  16.088 -0.1151  1.2461  1.1578
11493TIP3    H255971   4.232   5.916  16.075 -0.4105  0.2027  2.1265
11494TIP3   OH255972   4.604   4.048  11.456  0.2969  0.1080  0.0187
11494TIP3    H155973   4.651   3.966  11.471 -1.2059 -0.6819  0.4252
11494TIP3    H255974   4.666   4.116  11.484  1.2549 -0.9026  0.3995
11495TIP3   OH255975   0.218   1.955  12.109  0.0576  0.2689 -0.4904
11495TIP3    H155976   0.266   1.968  12.191  0.9616  0.5058 -1.0485
11495TIP3    H255977   0.142   1.902  12.134  0.7338 -0.3256  0.3722
11496TIP3   OH255978   6.356   3.938  17.103 -0.2505  0.1957  0.8660
11496TIP3    H155979   6.361   4.018  17.052  0.7334 -0.9085 -0.8581
11496TIP3    H255980   6.426   3.947  17.168  2.1466 -0.6508 -1.4845
11497TIP3   OH255981   6.818   6.119   5.360 -0.3995 -0.3012 -0.3488
11497TIP3    H155982   6.838   6.026   5.369 -0.8400 -0.2907  0.8789
11497TIP3    H255983   6.725   6.122   5.341 -0.0883 -0.1664 -1.9225
11498TIP3   OH255984   6.198   2.191  13.145 -0.0845 -0.1067 -0.8149
11498TIP3    H155985   6.126   2.130  13.128 -0.0822 -0.5122  0.5981
11498TIP3    H255986   6.276   2.148  13.110 -0.0433 -1.0415  0.3861
11499TIP3   OH255987   4.111   5.034  11.102 -0.0753 -0.4575  0.1951
11499TIP3    H155988   4.068   4.953  11.129  1.5165 -1.3130  0.2621
11499TIP3    H255989   4.040   5.092  11.076 -1.3037 -1.4750  1.2354
11500TIP3   OH255990   3.988   6.457   6.154  0.1680  0.2578 -0.3217
11500TIP3    H155991   3.955   6.400   6.223 -1.2030  1.4248  0.0065
11500TIP3    H255992   3.973   6.408   6.073  0.2596 -0.4057  0.0540
11501TIP3   OH255993   0.130   5.178  16.617 -0.3930 -0.1290 -0.0009
11501TIP3    H155994   0.054   5.229  16.645 -0.1918 -0.2842  0.8597
11501TIP3    H255995   0.097   5.088  16.611 -0.4402 -0.0927 -0.2594
11502TIP3   OH255996   4.402   5.996   1.733  0.0751  0.2578 -0.0640
11502TIP3    H155997   4.495   5.984   1.713 -0.0309 -0.6598 -0.0071
11502TIP3    H255998   4.370   6.053   1.663  0.7852  0.9678  0.1835
11503TIP3   OH255999   6.390   5.532  13.342  0.8884 -0.4544  0.2005
11503TIP3    H156000   6.429   5.586  13.273 -1.2062 -1.0689 -1.5235
11503TIP3    H256001   6.301   5.514  13.311 -0.6635  0.5288  3.7587
11504TIP3   OH256002   2.506   1.475   4.099  0.1462  0.1042  0.2000
11504TIP3    H156003   2.480   1.539   4.165  1.6673  2.0226 -1.0119
11504TIP3    H256004   2.601   1.478   4.099  0.1905 -0.8332 -1.1407
11505TIP3   OH256005   6.554   0.860  13.535  0.2637  0.3465  0.3010
11505TIP3    H156006   6.577   0.919  13.607 -0.2222 -0.2218  0.9236
11505TIP3    H256007   6.581   0.774  13.566  0.2006  0.1241 -0.2682
11506TIP3   OH256008   6.263   2.406   5.221  0.9259  0.4335 -0.7764
11506TIP3    H156009   6.289   2.403   5.313  2.4019  1.0812 -1.1595
11506TIP3    H256010   6.327   2.464   5.180  0.0139  0.5020 -2.1340
11507TIP3   OH256011   6.317   3.621   1.862 -0.0876 -0.1941  0.0231
11507TIP3    H156012   6.396   3.643   1.813 -1.8599  1.9108 -1.9881
11507TIP3    H256013   6.277   3.549   1.813 -1.0418  0.8571 -0.7613
11508TIP3   OH256014   6.259   5.140   2.012  0.2510 -0.1564 -0.7075
11508TIP3    H156015   6.319   5.071   1.985 -0.7618 -1.6470  0.7501
11508TIP3    H256016   6.286   5.161   2.101 -1.5480 -1.0277  0.0541
11509TIP3   OH256017   4.648   3.805   4.288  0.6690  0.2286 -0.6518
11509TIP3    H156018   4.714   3.740   4.310  0.1861  0.0454  0.3199
11509TIP3    H256019   4.626   3.788   4.196  0.5020 -1.0273 -0.3955
11510TIP3   OH256020   0.383   5.470   3.330 -0.1147 -0.0959  0.2795
11510TIP3    H156021   0.442   5.441   3.400  2.6250 -0.5943 -2.1358
11510TIP3    H256022   0.372   5.392   3.275 -0.2367  0.9242 -1.1667
11511TIP3   OH256023   0.812   1.956   4.081  0.5241  0.6616 -0.3317
11511TIP3    H156024   0.762   1.985   4.005  0.4957  0.8615 -0.2392
11511TIP3    H256025   0.850   1.872   4.055  0.8700  0.9325 -0.7224
11512TIP3   OH256026   3.298   0.595  14.945  0.3739 -0.0817  0.4576
11512TIP3    H156027   3.266   0.533  15.011  0.4087 -0.1263  0.4332
11512TIP3    H256028   3.269   0.558  14.862  0.3856 -0.0596  0.4447
11513TIP3   OH256029   0.754   1.702  13.409  0.5312 -0.1261  0.4279
11513TIP3    H156030   0.683   1.706  13.473 -0.5571 -1.0905 -0.6957
11513TIP3    H256031   0.761   1.610  13.386  0.2822  0.3212 -1.5319
11514TIP3   OH256032   3.672   4.015   6.328  0.5661  0.3248  0.5056
11514TIP3    H156033   3.646   3.939   6.380  0.3016 -0.4589 -0.7293
11514TIP3    H256034   3.765   4.000   6.308  0.3980  0.0823 -0.1180
11515TIP3   OH256035   3.944   5.323   6.347 -0.3806  0.2050 -0.5947
11515TIP3    H156036   3.955   5.413   6.379  0.4710  0.5299 -1.7799
11515TIP3    H256037   4.016   5.274   6.388 -1.0116 -0.0136  0.2785
11516TIP3   OH256038   2.531   3.088  13.853  0.3220 -0.5721 -0.0836
11516TIP3    H156039   2.448   3.070  13.808  0.4844 -0.5058 -0.4109
11516TIP3    H256040   2.577   3.005  13.853  1.2459 -0.1047 -1.9539
11517TIP3   OH256041   2.994   4.513   5.776 -0.1718 -0.3393  0.3962
11517TIP3    H156042   2.919   4.570   5.790 -0.9577 -1.6508  1.6729
11517TIP3    H256043   3.056   4.537   5.845  1.2132  1.6955 -1.4828
11518TIP3   OH256044   4.902   2.147   1.807  0.5453  0.0150 -0.1487
11518TIP3    H156045   4.957   2.117   1.879  1.3516  0.0546 -0.7399
11518TIP3    H256046   4.898   2.072   1.747  1.2868  0.5447 -0.8770
11519TIP3   OH256047   4.580   1.402   0.536 -0.2377 -0.4207  0.0074
11519TIP3    H156048   4.632   1.415   0.456  2.0713  2.0261  1.8296
11519TIP3    H256049   4.492   1.433   0.513  0.3497  0.0849 -1.6111
11520TIP3   OH256050   2.255   5.210   5.398 -0.6247 -0.1189  0.2731
11520TIP3    H156051   2.229   5.222   5.489  1.3591  1.5419  0.6574
11520TIP3    H256052   2.257   5.115   5.385 -3.9099 -0.3404  1.0413
11521TIP3   OH256053   2.766   5.515   0.674  0.1335  0.0408 -0.3820
11521TIP3    H156054   2.824   5.439   0.676  1.7194  1.1761 -1.8157
11521TIP3    H256055   2.760   5.543   0.766  2.3376  0.2520 -0.2781
11522TIP3   OH256056   1.099   5.610   0.105  0.1176  0.3596 -0.1555
11522TIP3    H156057   1.009   5.578   0.109  0.7190 -1.5071 -0.9080
11522TIP3    H256058   1.093   5.691   0.053 -1.1770  0.5404  0.2441
11523TIP3   OH256059   4.197   0.762  15.141  0.3673 -0.0622 -0.4798
11523TIP3    H156060   4.219   0.855  15.144 -2.2295  0.5698  0.6023
11523TIP3    H256061   4.281   0.717  15.131  1.5830  2.4262 -1.7738
11524TIP3   OH256062   1.422   1.127   4.374  0.5786  0.6030 -0.1199
11524TIP3    H156063   1.406   1.216   4.406  2.7908  0.0059  2.8462
11524TIP3    H256064   1.350   1.075   4.409 -0.5302  1.1080 -1.5748
11525TIP3   OH256065   1.439   1.693   0.900 -0.2473 -0.0994 -0.3236
11525TIP3    H156066   1.362   1.686   0.844  0.4195 -0.3692 -1.2240
11525TIP3    H256067   1.429   1.622   0.963 -0.4020 -0.5637 -0.8639
11526TIP3   OH256068   0.349   0.260  14.377  0.9080  0.2684  0.3363
11526TIP3    H156069   0.352   0.355  14.391  0.3077  0.1073  1.6673
11526TIP3    H256070   0.388   0.247  14.291  2.7104  1.5777  0.9047
11527TIP3   OH256071   0.082   3.653  11.240  0.0065  0.0111 -0.3601
11527TIP3    H156072   0.029   3.717  11.287 -0.9646 -0.0950 -1.2965
11527TIP3    H256073   0.127   3.704  11.172  0.8402  0.0410  0.2069
11528TIP3   OH256074   4.606   2.287  16.584  0.2338  0.2381 -0.4131
11528TIP3    H156075   4.583   2.204  16.627 -1.7167  1.5435  1.2127
11528TIP3    H256076   4.585   2.273  16.492 -1.3746 -0.6811  0.0584
11529TIP3   OH256077   2.946   5.880  10.855  0.2413  0.2031 -0.6405
11529TIP3    H156078   2.862   5.841  10.834  0.4085 -0.7053  0.3054
11529TIP3    H256079   2.933   5.974  10.842 -1.2252  0.1724  0.4824
11530TIP3   OH256080   4.790   5.769   0.861 -0.5040  0.0626 -0.2178
11530TIP3    H156081   4.881   5.771   0.830  0.9062 -2.0269  3.5451
11530TIP3    H256082   4.750   5.696   0.814 -0.0488  0.4779 -1.2788
11531TIP3   OH256083   1.108   5.678   4.573 -0.2263  0.0649  0.2943
11531TIP3    H156084   1.130   5.646   4.486  0.4925  3.4841 -0.8134
11531TIP3    H256085   1.190   5.677   4.622 -0.0821  0.8648  0.0627
11532TIP3   OH256086   1.537   0.165  13.588 -0.0884  0.2760  0.0452
11532TIP3    H156087   1.454   0.177  13.635 -1.1058 -1.0637 -1.3618
11532TIP3    H256088   1.545   0.243  13.534 -1.3196 -0.3921 -1.1168
11533TIP3   OH256089   6.216   6.004   1.112  0.2565 -0.3297  0.1070
11533TIP3    H156090   6.273   5.927   1.112  1.5788  0.6305 -1.2303
11533TIP3    H256091   6.128   5.967   1.103  0.9280 -1.6809 -1.2798
11534TIP3   OH256092   1.412   1.004   3.975  0.4884  0.1238  0.1770
11534TIP3    H156093   1.424   1.064   4.049  2.9667 -0.2887  0.1495
11534TIP3    H256094   1.401   0.918   4.016  0.3044  0.1092  0.0985
11535TIP3   OH256095   6.479   4.692  14.985  0.1131  0.3459 -0.4339
11535TIP3    H156096   6.416   4.727  14.921  0.3315  1.1506 -0.2177
11535TIP3    H256097   6.428   4.630  15.037 -0.8315  1.8850  0.5254
11536TIP3   OH256098   4.865   4.368   3.293 -0.3302  0.0846  0.5972
11536TIP3    H156099   4.948   4.383   3.338  0.6596 -1.6422 -0.5820
11536TIP3    H256100   4.870   4.422   3.214 -0.4030  0.0989  0.6025
11537TIP3   OH256101   1.401   0.187  13.034 -0.5461  0.0124  0.0245
11537TIP3    H156102   1.453   0.255  13.077 -0.7313  0.0671  0.1623
11537TIP3    H256103   1.462   0.114  13.023 -0.3235  0.2292 -0.1961
11538TIP3   OH256104   5.117   1.748  11.009  0.4587 -0.2397  0.0862
11538TIP3    H156105   5.164   1.815  10.959  0.8234 -0.8237 -0.3574
11538TIP3    H256106   5.026   1.778  11.009  0.5759  0.1260 -0.3236
11539TIP3   OH256107   5.522   4.819   3.519 -0.5199 -0.3310  0.2835
11539TIP3    H156108   5.563   4.884   3.576 -0.5534 -0.6787  0.7023
11539TIP3    H256109   5.595   4.784   3.467 -0.5444  0.2402 -0.1453
11540TIP3   OH256110   3.876   1.417  16.599  0.2419  0.6913  0.2992
11540TIP3    H156111   3.956   1.365  16.605  0.3295  0.8412  0.4429
11540TIP3    H256112   3.890   1.476  16.525  0.8328  1.6789  1.1819
11541TIP3   OH256113   3.891   3.056  13.999  0.4004 -0.3869 -0.2085
11541TIP3    H156114   3.914   3.146  13.976 -0.2991 -0.4938 -1.3581
11541TIP3    H256115   3.873   3.013  13.916 -0.9536 -1.1257  0.4451
11542TIP3   OH256116   6.580   5.616  14.228  0.4061 -0.4168  0.3160
11542TIP3    H156117   6.499   5.661  14.203  1.4773 -0.1324 -2.8725
11542TIP3    H256118   6.619   5.673  14.294 -1.5907 -0.1512  1.3088
11543TIP3   OH256119   2.772   5.606   0.936  0.9124 -0.2842  0.0332
11543TIP3    H156120   2.704   5.592   1.002  0.8584  1.2699  0.3192
11543TIP3    H256121   2.731   5.664   0.872  1.8143  0.2512 -0.0566
11544TIP3   OH256122   6.261   0.912   6.592 -0.0259  0.2513 -0.3658
11544TIP3    H156123   6.302   0.873   6.515  0.1598  1.1711 -0.7363
11544TIP3    H256124   6.333   0.949   6.642  0.1010 -2.1644  1.3327
11545TIP3   OH256125   6.167   4.620  16.604 -0.4565 -0.1809 -0.4405
11545TIP3    H156126   6.218   4.586  16.530 -0.5143  0.5516 -0.8174
11545TIP3    H256127   6.213   4.699  16.630 -0.0785 -0.7770  0.7213
11546TIP3   OH256128   1.283   5.831  15.363  0.4795  0.3401 -0.2363
11546TIP3    H156129   1.302   5.916  15.323  0.0616  0.4902 -0.1121
11546TIP3    H256130   1.234   5.852  15.442  1.7027  0.0744  0.6155
11547TIP3   OH256131   6.234   2.438   3.761  0.1611  0.3564 -0.1161
11547TIP3    H156132   6.327   2.456   3.773 -0.2271  2.1342  0.3435
11547TIP3    H256133   6.204   2.412   3.849  0.7523 -2.9405 -0.7987
11548TIP3   OH256134   0.435   2.470  13.096  0.4957  0.3313 -0.3917
11548TIP3    H156135   0.363   2.517  13.052 -1.1884 -1.6973  0.1243
11548TIP3    H256136   0.465   2.406  13.031 -0.5308 -1.1845  0.6076
11549TIP3   OH256137   4.215   2.283   4.106  0.3194 -0.0831  0.4499
11549TIP3    H156138   4.189   2.227   4.033 -2.0106 -0.9472  1.8860
11549TIP3    H256139   4.235   2.222   4.177  1.4247  0.7833  0.8788
11550TIP3   OH256140   1.044   3.706   0.674  0.5174 -0.6073  0.1399
11550TIP3    H156141   1.046   3.653   0.594 -1.0735 -1.3066  0.5534
11550TIP3    H256142   1.131   3.748   0.677 -0.2228  1.3492 -3.2255
11551TIP3   OH256143   4.450   0.162  16.448  0.2992 -0.1706  0.2266
11551TIP3    H156144   4.423   0.081  16.404 -2.2557 -0.0926  1.5658
11551TIP3    H256145   4.511   0.203  16.386 -1.1979 -1.3244 -2.1094
11552TIP3   OH256146   0.692   0.923  13.163 -0.0566 -0.1101 -0.2485
11552TIP3    H156147   0.619   0.880  13.206 -0.1176  1.0648  0.8590
11552TIP3    H256148   0.738   0.969  13.233  2.4712 -1.8006 -0.7214
11553TIP3   OH256149   4.129   1.732  12.815 -0.0164 -0.4335  0.5835
11553TIP3    H156150   4.179   1.762  12.891 -0.0614 -0.7358  0.7317
11553TIP3    H256151   4.048   1.782  12.817  0.4805  0.4009  0.0751
11554TIP3   OH256152   6.330   2.752  16.888 -0.2943  0.8002  0.0104
11554TIP3    H156153   6.362   2.718  16.972 -0.2112 -0.1742 -0.4064
11554TIP3    H256154   6.324   2.847  16.901  2.4749  0.9889  0.2186
11555TIP3   OH256155   5.600   4.853  14.286  0.4297 -0.6218 -0.1576
11555TIP3    H156156   5.533   4.800  14.243  0.3800  0.0271 -0.8863
11555TIP3    H256157   5.569   4.863  14.376  1.2241 -3.1417  0.4200
11556TIP3   OH256158   2.080   3.982   5.702  0.1659 -0.1060  0.5321
11556TIP3    H156159   2.156   4.030   5.734 -0.2199  1.0723 -0.2946
11556TIP3    H256160   2.116   3.901   5.666  1.3167  1.4319 -1.9146
11557TIP3   OH256161   0.301   1.427  12.823  0.3381  0.4768  0.0097
11557TIP3    H156162   0.333   1.419  12.733  0.6138  1.5432  0.0083
11557TIP3    H256163   0.294   1.521  12.838  0.1311  0.3004  1.0485
11558TIP3   OH256164   6.391   3.675   5.261  0.0939 -0.6985 -0.2244
11558TIP3    H156165   6.377   3.581   5.271  0.9077 -0.6552  1.4339
11558TIP3    H256166   6.337   3.714   5.329  1.6352 -0.0898  0.6541
11559TIP3   OH256167   6.616   1.523  15.255  0.1443 -0.5865  0.2613
11559TIP3    H156168   6.649   1.575  15.329  0.4967 -1.0959  0.4618
11559TIP3    H256169   6.679   1.452  15.246  1.0600  0.4217 -1.6279
11560TIP3   OH256170   3.782   3.817   3.204 -0.1393 -0.4095  0.1351
11560TIP3    H156171   3.768   3.753   3.274 -3.9845 -1.2179 -1.2537
11560TIP3    H256172   3.762   3.901   3.245  1.4763 -0.4281  1.0114
11561TIP3   OH256173   5.113   2.580  11.666  0.1425  0.4622 -0.0653
11561TIP3    H156174   5.202   2.546  11.669  0.5725  1.5953  0.5550
11561TIP3    H256175   5.123   2.675  11.679 -1.2072  0.4951  0.8569
11562TIP3   OH256176   1.897   1.427  16.282 -0.5015 -0.0174 -0.6037
11562TIP3    H156177   1.945   1.385  16.353 -0.1610 -0.5624 -1.1560
11562TIP3    H256178   1.815   1.456  16.323 -0.0698  0.1663  0.1400
11563TIP3   OH256179   0.527   6.391   6.089  0.3167  0.2671  0.3471
11563TIP3    H156180   0.611   6.346   6.078  0.7588  0.7300  1.7560
11563TIP3    H256181   0.543   6.480   6.058 -0.2144 -0.1577 -1.2381
11564TIP3   OH256182   5.541   4.328   0.258 -0.3932  0.2270 -0.1673
11564TIP3    H156183   5.504   4.294   0.177 -0.4919  0.3009 -0.1534
11564TIP3    H256184   5.577   4.251   0.302  0.2197  0.2815 -0.5752
11565TIP3   OH256185   2.601   2.971  12.592 -0.2312  0.0351 -0.5571
11565TIP3    H156186   2.522   2.921  12.613 -0.2107 -0.6435 -2.0183
11565TIP3    H256187   2.624   2.943  12.503  2.5611 -0.9826  0.4121
11566TIP3   OH256188   6.220   5.857   3.003  0.2309 -0.2488 -0.2048
11566TIP3    H156189   6.276   5.844   2.926 -0.3746  0.3450 -0.7531
11566TIP3    H256190   6.135   5.884   2.967 -0.0142  0.1757  0.6772
11567TIP3   OH256191   2.338   0.829  15.404 -0.2179  0.2728  0.1142
11567TIP3    H156192   2.272   0.760  15.403 -0.4607  0.5027  0.7796
11567TIP3    H256193   2.322   0.878  15.323 -0.3487 -0.1531 -0.1233
11568TIP3   OH256194   5.878   5.886  15.677 -0.0805 -0.4240 -0.2233
11568TIP3    H156195   5.838   5.842  15.602  1.3645 -1.7568 -0.2238
11568TIP3    H256196   5.964   5.846  15.686  1.0245  1.9303  0.1881
11569TIP3   OH256197   0.698   1.237   6.161 -0.7526 -0.5511 -0.0837
11569TIP3    H156198   0.621   1.194   6.199 -0.3331 -2.6539 -1.5077
11569TIP3    H256199   0.753   1.165   6.132  0.3148  0.9773 -1.9466
11570TIP3   OH256200   1.575   3.376   3.433 -0.3749  0.1104 -0.1253
11570TIP3    H156201   1.604   3.285   3.431  0.2618  0.2985  0.3953
11570TIP3    H256202   1.621   3.417   3.360  1.6598  0.6888  1.4277
11571TIP3   OH256203   4.841   1.379   0.751  0.3521 -0.7483  0.3401
11571TIP3    H156204   4.849   1.443   0.822  2.6366  0.0137 -0.5604
11571TIP3    H256205   4.858   1.430   0.671 -0.1993 -2.0039 -0.5938
11572TIP3   OH256206   1.892   1.949  14.266 -0.0372 -0.8552  0.3724
11572TIP3    H156207   1.947   2.010  14.316 -0.3041 -0.2411 -0.0707
11572TIP3    H256208   1.835   2.006  14.214  0.6362 -1.4829 -1.0739
11573TIP3   OH256209   2.520   0.853   6.310  0.3745  0.0827  0.3509
11573TIP3    H156210   2.535   0.942   6.279 -0.6217 -0.5691 -2.0831
11573TIP3    H256211   2.427   0.850   6.331  0.1472 -0.7293 -0.7476
11574TIP3   OH256212   3.756   0.367   0.119 -0.0079  0.3109  0.1708
11574TIP3    H156213   3.746   0.310   0.043 -1.4758  1.4247 -0.4874
11574TIP3    H256214   3.709   0.322   0.189 -0.0356  0.0668 -0.0035
11575TIP3   OH256215   2.205   2.574  15.302 -0.1247  0.4847 -0.0590
11575TIP3    H156216   2.207   2.478  15.309 -0.4634  0.4689 -0.1571
11575TIP3    H256217   2.118   2.598  15.334  0.7479  0.9482  2.0481
11576TIP3   OH256218   2.812   3.604   0.480  0.3345  0.0183 -0.3618
11576TIP3    H156219   2.884   3.630   0.536 -0.7136 -0.2387  1.1196
11576TIP3    H256220   2.739   3.587   0.540 -0.1444 -2.4565 -1.5871
11577TIP3   OH256221   5.119   5.741  16.454  0.1871 -0.0604  0.1827
11577TIP3    H156222   5.166   5.679  16.398 -0.3780  0.3930 -0.7967
11577TIP3    H256223   5.184   5.768  16.519  0.7314 -0.9074  0.0038
11578TIP3   OH256224   1.404   1.174  12.422  0.0836  0.4703  0.1764
11578TIP3    H156225   1.359   1.134  12.347 -2.2037  2.1878  0.5596
11578TIP3    H256226   1.459   1.241  12.383 -0.7576  1.0555 -0.0277
11579TIP3   OH256227   6.133   1.037   2.470  0.0813  0.2726  0.3648
11579TIP3    H156228   6.219   1.063   2.502  0.6402  1.2298 -1.8330
11579TIP3    H256229   6.123   0.946   2.498  1.9548  0.0444  0.3165
11580TIP3   OH256230   0.478   5.056   5.573  0.2435  0.6107  0.2660
11580TIP3    H156231   0.517   5.097   5.496 -0.4054  1.8046  0.5544
11580TIP3    H256232   0.536   4.983   5.594  0.8663  0.7739 -0.8682
11581TIP3   OH256233   1.582   1.968  11.419  0.0187  0.6581  0.3922
11581TIP3    H156234   1.611   1.914  11.493  1.6398  0.8456 -0.0973
11581TIP3    H256235   1.570   2.055  11.456 -0.5598  0.4385  0.7317
11582TIP3   OH256236   0.941   1.377  13.105 -0.2879  0.4661  0.2965
11582TIP3    H156237   0.999   1.422  13.043 -0.2748 -2.4308 -1.9215
11582TIP3    H256238   0.983   1.391  13.190  2.0707  0.9617 -0.8822
11583TIP3   OH256239   0.898   0.130  10.957  0.5202  0.1781  0.3396
11583TIP3    H156240   0.954   0.193  11.002  0.7501  0.1618  0.0747
11583TIP3    H256241   0.893   0.163  10.867  1.2204 -0.5815  0.0238
11584TIP3   OH256242   3.534   6.578   5.043  0.2642 -0.1513  0.5451
11584TIP3    H156243   3.524   6.486   5.019  1.9042  0.1622 -1.5230
11584TIP3    H256244   3.527   6.579   5.138 -0.5227 -2.3127  0.5397
11585TIP3   OH256245   2.994   5.608   2.935  0.3610  0.8573 -0.3275
11585TIP3    H156246   3.073   5.662   2.931  0.9608 -0.0589 -1.4292
11585TIP3    H256247   2.985   5.584   3.027  2.4143 -0.4899 -0.4398
11586TIP3   OH256248   3.701   5.636   0.321  0.4258  0.4446  0.1889
11586TIP3    H156249   3.709   5.658   0.228 -0.2606  1.2877  0.3267
11586TIP3    H256250   3.783   5.667   0.359  1.8681 -2.2851 -0.5769
11587TIP3   OH256251   4.327   4.162  12.855 -0.9814  0.8691  0.1570
11587TIP3    H156252   4.276   4.152  12.774 -2.2827  0.9763  0.9388
11587TIP3    H256253   4.329   4.075  12.894  0.5552  0.5924 -0.5060
11588TIP3   OH256254   5.443   5.894   5.070 -1.1168 -0.2121  0.1253
11588TIP3    H156255   5.434   5.883   5.165  1.3831 -1.6013  0.2500
11588TIP3    H256256   5.507   5.964   5.060 -0.1946 -1.1354 -0.5172
11589TIP3   OH256257   6.022   5.440  15.678  0.1063  0.7277  0.7617
11589TIP3    H156258   5.973   5.359  15.665 -1.2614  1.1855  2.8509
11589TIP3    H256259   6.082   5.421  15.751  0.7886  1.1521  0.3178
11590TIP3   OH256260   1.093   3.706  17.066 -0.1305 -0.2443  0.1151
11590TIP3    H156261   1.063   3.763  17.137  0.8605  1.0539 -0.4858
11590TIP3    H256262   1.133   3.766  17.003 -2.8539 -1.1452 -2.5506
11591TIP3   OH256263   2.479   2.380  10.959  0.1659  0.4364 -0.2450
11591TIP3    H156264   2.528   2.345  11.034 -1.1195 -0.7143  0.0696
11591TIP3    H256265   2.388   2.357  10.977 -0.3919  1.7847 -1.2649
11592TIP3   OH256266   3.217   2.387  11.457 -0.3437  0.2193 -0.1743
11592TIP3    H156267   3.183   2.475  11.473 -1.2632 -0.1608  0.0337
11592TIP3    H256268   3.266   2.365  11.536  0.7567  0.9480 -0.6581
11593TIP3   OH256269   0.392   4.558  10.679  0.3953  0.4775 -0.0971
11593TIP3    H156270   0.436   4.561  10.594  0.0952  1.1392 -0.2277
11593TIP3    H256271   0.439   4.490  10.727  1.7910  1.4083 -0.1212
11594TIP3   OH256272   5.263   0.952   5.058 -0.1582 -0.1216 -0.5710
11594TIP3    H156273   5.204   1.026   5.068 -0.5616 -0.4050 -0.8878
11594TIP3    H256274   5.339   0.988   5.012  1.2668  0.9675  2.4426
11595TIP3   OH256275   5.121   0.600  12.525  0.0280  0.3566  0.3376
11595TIP3    H156276   5.028   0.601  12.505  0.0661  2.0288  0.2063
11595TIP3    H256277   5.163   0.619  12.441  0.4090  1.4906  0.7760
11596TIP3   OH256278   0.067   5.907   3.964  0.2964 -0.3229  0.1986
11596TIP3    H156279   0.154   5.871   3.949  0.3537  0.4435 -1.4935
11596TIP3    H256280   0.016   5.881   3.887 -1.3345 -1.8176  1.7345
11597TIP3   OH256281   2.152   2.361   0.562 -0.0805 -0.0351 -0.4726
11597TIP3    H156282   2.134   2.396   0.649  1.3820 -1.0004  0.2403
11597TIP3    H256283   2.166   2.267   0.576 -0.5002 -0.3179 -1.8432
11598TIP3   OH256284   5.733   2.561   4.541  0.0429 -0.4480 -0.5467
11598TIP3    H156285   5.673   2.506   4.492 -1.2934  0.8062 -0.3479
11598TIP3    H256286   5.696   2.649   4.535  0.1316 -0.1678  2.2420
11599TIP3   OH256287   5.260   5.232   6.015  0.3733 -0.0180  0.3783
11599TIP3    H156288   5.352   5.228   6.038  0.2175 -1.6246  0.7640
11599TIP3    H256289   5.215   5.256   6.096  0.2214 -1.7186  0.8189
11600TIP3   OH256290   0.437   5.040  13.280  0.3071 -0.0516 -0.2807
11600TIP3    H156291   0.399   4.954  13.262  0.9802 -1.0347  2.7267
11600TIP3    H256292   0.368   5.102  13.258  0.6257 -1.1296 -4.8314
11601TIP3   OH256293   2.302   5.735   3.217 -0.2485  0.2061 -0.1688
11601TIP3    H156294   2.249   5.668   3.174  0.0018 -1.2151  1.6472
11601TIP3    H256295   2.384   5.690   3.239 -0.3874  0.8493  1.7891
11602TIP3   OH256296   4.801   4.503   1.828 -0.4090 -0.0027 -0.3313
11602TIP3    H156297   4.823   4.587   1.788  0.8949  0.0360  0.4659
11602TIP3    H256298   4.787   4.444   1.754  0.1762  0.5304 -0.8639
11603TIP3   OH256299   4.094   1.358   0.596 -0.6946 -0.3004 -0.1961
11603TIP3    H156300   4.157   1.415   0.552 -0.3411 -1.4623 -1.2579
11603TIP3    H256301   4.082   1.285   0.534 -2.6859 -0.3429  0.2325
11604TIP3   OH256302   0.973   0.042   3.798  0.0222  0.4324  0.3182
11604TIP3    H156303   0.907   0.045   3.729 -0.8953 -2.2609  1.0012
11604TIP3    H256304   0.927   0.003   3.873  2.3281 -1.3200  0.8776
11605TIP3   OH256305   0.077   2.788   1.605  0.0061 -0.1630 -0.0932
11605TIP3    H156306   0.142   2.812   1.671  0.7488 -0.3190 -0.7585
11605TIP3    H256307  -0.008   2.804   1.647  0.4716  1.8055  0.1365
11606TIP3   OH256308   3.935   0.845   2.942 -0.1857  0.3374 -0.1351
11606TIP3    H156309   3.961   0.830   3.033  0.9148 -0.3446 -0.5569
11606TIP3    H256310   3.877   0.772   2.922 -0.2333  0.3559 -0.0693
11607TIP3   OH256311   6.766   1.533  12.411  0.2527 -0.1179 -0.5644
11607TIP3    H156312   6.726   1.473  12.475 -0.5645 -0.3641 -1.2910
11607TIP3    H256313   6.785   1.612  12.461 -0.6335 -0.2076 -0.0710
11608TIP3   OH256314   5.108   6.270  15.636 -0.1613  0.2916  0.3753
11608TIP3    H156315   5.036   6.215  15.605  0.2126 -0.0527  0.1169
11608TIP3    H256316   5.163   6.283  15.559 -0.4336  1.3237  0.3457
11609TIP3   OH256317   2.141   3.260  14.593  0.7174  0.3455 -0.4932
11609TIP3    H156318   2.164   3.211  14.514 -0.7201 -0.3428 -0.5005
11609TIP3    H256319   2.071   3.319  14.565  1.9687  1.9426 -0.3247
11610TIP3   OH256320   0.726   0.396  14.770 -0.0268 -0.0294 -0.0033
11610TIP3    H156321   0.760   0.312  14.802 -0.1926  0.1746  0.7212
11610TIP3    H256322   0.680   0.433  14.845 -0.4416  0.4542 -0.4902
11611TIP3   OH256323   0.447   2.973   2.835  0.0913 -0.5817  0.0948
11611TIP3    H156324   0.528   2.981   2.885  0.4641 -2.1321 -0.2226
11611TIP3    H256325   0.467   3.015   2.751  0.3594 -0.3915  0.2529
11612TIP3   OH256326   4.606   3.764  14.926 -0.2014 -0.3971  0.4127
11612TIP3    H156327   4.695   3.800  14.918 -0.5562  1.4114  3.9410
11612TIP3    H256328   4.619   3.676  14.961  0.2264 -0.3799  0.3054
11613TIP3   OH256329   1.936   0.730  16.725  0.1043  0.7368  0.2881
11613TIP3    H156330   1.998   0.705  16.656  1.2235 -0.6227  1.7662
11613TIP3    H256331   1.989   0.738  16.804 -1.0848  2.7944  0.9251
11614TIP3   OH256332   1.011   2.774   3.182 -0.0382 -0.7423  0.1635
11614TIP3    H156333   1.057   2.844   3.136 -0.8864  0.6893  1.4152
11614TIP3    H256334   1.077   2.734   3.239  1.1622 -2.9300 -2.6657
11615TIP3   OH256335   6.154   3.257  16.994 -0.4207 -0.2246 -0.0614
11615TIP3    H156336   6.101   3.337  17.003 -0.0975  0.1282 -1.2188
11615TIP3    H256337   6.242   3.284  17.021 -0.5492 -0.4808  0.6205
11616TIP3   OH256338   2.398   3.351   5.265  0.0954 -0.1865  0.1958
11616TIP3    H156339   2.475   3.391   5.226 -0.5474  2.5707  1.6239
11616TIP3    H256340   2.359   3.420   5.318 -1.6590 -2.4289  1.9633
11617TIP3   OH256341   4.779   3.351  13.754 -0.3055 -0.0649  0.4415
11617TIP3    H156342   4.776   3.274  13.810 -1.8867  0.1960  0.7481
11617TIP3    H256343   4.787   3.425  13.816  0.9057  0.0495  0.1655
11618TIP3   OH256344   6.165   5.733  12.044 -0.0465 -0.0957 -0.0954
11618TIP3    H156345   6.215   5.660  12.009  0.2079  0.4028 -0.7689
11618TIP3    H256346   6.194   5.809  11.993 -0.4978  0.4268  0.4233
11619TIP3   OH256347   2.111   2.511  16.248 -0.4831  0.1739  0.0684
11619TIP3    H156348   2.085   2.587  16.299  0.4257 -0.2436  1.1742
11619TIP3    H256349   2.034   2.490  16.195 -0.8830  1.5861  0.0807
11620TIP3   OH256350   6.193   6.553  12.276  0.4219  0.2109 -0.5694
11620TIP3    H156351   6.181   6.604  12.196  1.0446  0.1894 -0.6801
11620TIP3    H256352   6.220   6.617  12.341  0.4895  0.1385 -0.5259
11621TIP3   OH256353   3.919   1.905  12.821 -0.3098  0.1664 -0.1027
11621TIP3    H156354   3.909   1.943  12.908 -1.4449  1.3831 -0.7619
11621TIP3    H256355   3.920   1.980  12.761 -0.4398 -0.7083 -1.2251
11622TIP3   OH256356   3.932   1.295   0.190 -0.1581 -0.3824  0.3373
11622TIP3    H156357   4.016   1.284   0.146 -0.2306  0.1307  0.0635
11622TIP3    H256358   3.911   1.388   0.179 -2.0821 -1.0573 -1.9583
11623TIP3   OH256359   5.413   3.358   1.769 -0.1101  0.1759  0.0332
11623TIP3    H156360   5.491   3.303   1.777  0.2253  0.5142 -0.8477
11623TIP3    H256361   5.435   3.420   1.700 -0.4438  1.4807  1.0775
11624TIP3   OH256362   3.545   1.426   0.043  0.4131 -0.2048 -0.2508
11624TIP3    H156363   3.557   1.507   0.093  1.8856 -1.8031  2.0989
11624TIP3    H256364   3.500   1.453  -0.037 -0.0617  2.7636  0.9689
11625TIP3   OH256365   4.954   1.432  11.197 -0.3260 -0.3037  0.0059
11625TIP3    H156366   4.914   1.353  11.233 -1.0044  0.2406  0.4645
11625TIP3    H256367   4.961   1.415  11.103 -1.4693 -0.4790 -0.0509
11626TIP3   OH256368   3.716   0.543  16.563 -0.0555  0.3988 -0.1218
11626TIP3    H156369   3.793   0.598  16.542  1.3102 -1.6854 -0.6985
11626TIP3    H256370   3.652   0.566  16.495  1.7545 -1.1201 -2.4454
11627TIP3   OH256371   5.645   6.445   0.759 -0.3719  0.4135 -0.4091
11627TIP3    H156372   5.646   6.435   0.854 -1.3488 -0.8162 -0.5171
11627TIP3    H256373   5.663   6.357   0.725  0.4852  0.9462 -1.3595
11628TIP3   OH256374   1.153   0.202  13.362 -0.5790 -0.2729  0.0102
11628TIP3    H156375   1.190   0.270  13.419 -0.5039 -1.3731  1.3061
11628TIP3    H256376   1.220   0.133  13.361  0.7142  0.9455 -3.7738
11629TIP3   OH256377   1.477   6.189  14.740  0.5818  0.0791  0.3172
11629TIP3    H156378   1.525   6.265  14.772 -0.5508  1.0810 -0.3004
11629TIP3    H256379   1.421   6.163  14.813  0.3130  0.4049  0.2293
11630TIP3   OH256380   4.129   4.159   4.587  0.3263 -0.3130  0.5538
11630TIP3    H156381   4.099   4.242   4.624  0.9672 -0.7166  2.0271
11630TIP3    H256382   4.160   4.182   4.500 -0.4644  0.8164  0.5549
11631TIP3   OH256383   4.137   2.890  15.012 -0.2513 -0.8128 -0.3631
11631TIP3    H156384   4.109   2.929  14.929 -0.5016  1.0225  0.5840
11631TIP3    H256385   4.188   2.813  14.985 -0.4595 -0.3312 -2.2215
11632TIP3   OH256386   5.411   0.159  12.303  0.0305 -0.0836 -0.5723
11632TIP3    H156387   5.411   0.198  12.215  2.6799  0.0787 -0.5557
11632TIP3    H256388   5.456   0.075  12.292  0.8564  0.1744  0.6976
11633TIP3   OH256389   3.093   1.842  12.933  0.9917  0.0423  0.6074
11633TIP3    H156390   3.106   1.934  12.913  0.5910  0.0733  0.4992
11633TIP3    H256391   3.022   1.841  12.997  0.6178 -0.2291  0.1911
11634TIP3   OH256392   3.825   5.329   2.342 -0.0749 -0.3756  0.2830
11634TIP3    H156393   3.857   5.406   2.295  1.1983  0.0468  1.7760
11634TIP3    H256394   3.765   5.364   2.407 -0.7032 -0.8041 -0.0668
11635TIP3   OH256395   0.064   5.049  15.761  0.0960 -0.1130 -0.0702
11635TIP3    H156396   0.028   5.136  15.776  1.7356  0.4896  0.4216
11635TIP3    H256397   0.106   5.054  15.675  0.4989 -0.3198  0.1140
11636TIP3   OH256398   2.543   2.478   5.126 -0.0050 -0.2127 -0.3281
11636TIP3    H156399   2.462   2.517   5.095 -0.9596 -1.9097 -0.0277
11636TIP3    H256400   2.530   2.468   5.220  0.2510 -1.1797 -0.3938
11637TIP3   OH256401   5.892   6.348  13.784  0.3711 -0.1319 -0.1360
11637TIP3    H156402   5.979   6.308  13.788  1.5195  2.3094  0.1059
11637TIP3    H256403   5.870   6.369  13.874 -1.2382 -2.2888 -0.0051
11638TIP3   OH256404   1.480   3.684   2.860  0.1196  0.1773 -0.1505
11638TIP3    H156405   1.517   3.665   2.947  2.8510 -2.4261 -1.7827
11638TIP3    H256406   1.543   3.743   2.820 -0.8524  0.9282 -0.5760
11639TIP3   OH256407   4.056   4.086   1.064 -0.0650  0.0247 -0.3815
11639TIP3    H156408   4.151   4.081   1.075 -0.0421 -3.0928 -1.3666
11639TIP3    H256409   4.044   4.130   0.980  0.5744 -0.9836 -1.0119
11640TIP3   OH256410   6.646   6.796   3.901 -0.7272 -0.0514  0.2500
11640TIP3    H156411   6.590   6.730   3.942 -0.5643 -0.7025 -0.5605
11640TIP3    H256412   6.725   6.749   3.876  0.2925  0.9071  1.5633
11641TIP3   OH256413   3.831   4.967   4.680 -0.2738 -0.0386  0.1466
11641TIP3    H156414   3.754   5.019   4.660 -0.7004 -0.4131  0.8216
11641TIP3    H256415   3.846   4.980   4.774 -0.2329 -0.9207  0.2674
11642TIP3   OH256416   0.042   1.932  10.998 -0.2068  0.1169  0.0545
11642TIP3    H156417   0.096   1.988  10.943 -2.1200  0.7733 -1.2100
11642TIP3    H256418  -0.046   1.968  10.990 -1.0443 -1.6138  1.1355
11643TIP3   OH256419   5.510   5.071   5.160  0.1348 -0.4045  0.0693
11643TIP3    H156420   5.542   5.137   5.221 -0.7020 -0.1602  0.2580
11643TIP3    H256421   5.420   5.055   5.188  0.0030 -0.8738 -0.6111
11644TIP3   OH256422   6.192   1.083  16.052 -0.0196 -0.0147  0.0911
11644TIP3    H156423   6.140   1.012  16.089  0.9293 -0.9925 -0.4365
11644TIP3    H256424   6.197   1.148  16.122 -2.0365  0.1566  0.1092
11645TIP3   OH256425   2.867   0.729   0.609  0.2431  0.3313  0.2519
11645TIP3    H156426   2.813   0.764   0.537  0.9183  0.0378 -0.3986
11645TIP3    H256427   2.890   0.641   0.581  1.4556  0.6200  0.3118
11646TIP3   OH256428   5.003   5.439  10.759  0.6485  0.4120 -0.0492
11646TIP3    H156429   4.941   5.408  10.693 -0.4241  0.3018  0.9979
11646TIP3    H256430   4.948   5.484  10.823  1.6829  0.4790  0.7850
11647TIP3   OH256431   1.574   4.405   0.865 -0.2457 -0.1939 -0.2102
11647TIP3    H156432   1.550   4.486   0.911 -0.5562 -0.0170 -0.6737
11647TIP3    H256433   1.510   4.341   0.895  0.2633 -0.3779  0.4824
11648TIP3   OH256434   6.124   3.046   2.421 -0.1417 -0.0915  0.6073
11648TIP3    H156435   6.142   2.957   2.452 -1.1297 -0.3908  0.3420
11648TIP3    H256436   6.059   3.034   2.352  1.9316  0.5706 -1.5056
11649TIP3   OH256437   1.214   6.153   3.417  0.2808 -0.0693  0.5461
11649TIP3    H156438   1.224   6.159   3.322  0.3467 -1.4301  0.4573
11649TIP3    H256439   1.223   6.060   3.437 -1.0879  0.0214  1.7395
11650TIP3   OH256440   3.360   0.674  11.200 -0.0268  0.1523 -0.1718
11650TIP3    H156441   3.424   0.671  11.129 -1.3741 -0.1826 -1.4066
11650TIP3    H256442   3.301   0.601  11.182 -0.6397  0.3374  1.0521
11651TIP3   OH256443   3.093   1.088  16.332  0.3824  0.0768 -0.2796
11651TIP3    H156444   3.149   1.161  16.358  1.0353 -0.4536 -0.1939
11651TIP3    H256445   3.145   1.038  16.269 -0.0688 -0.2979 -0.3598
11652TIP3   OH256446   4.065   4.387   0.315 -0.0894 -0.1715 -0.4760
11652TIP3    H156447   4.027   4.364   0.230  0.0195 -0.9725 -0.3151
11652TIP3    H256448   4.130   4.454   0.295  0.7161 -1.1521 -1.1642
11653TIP3   OH256449   3.327   0.965   2.177  0.1994 -0.6844  0.0315
11653TIP3    H156450   3.380   0.906   2.230  0.4335 -0.9801 -0.5304
11653TIP3    H256451   3.253   0.911   2.148 -0.9454 -0.0293  1.6012
11654TIP3   OH256452   2.659   1.170   4.802 -0.6982 -0.3134 -0.4631
11654TIP3    H156453   2.702   1.155   4.717  1.0925  0.7957  0.2171
11654TIP3    H256454   2.586   1.228   4.782 -0.5928 -0.4699 -1.3210
11655TIP3   OH256455   3.642   1.796   1.156  0.2963 -0.3324 -0.7235
11655TIP3    H156456   3.670   1.708   1.130 -0.8915 -0.5799 -1.1932
11655TIP3    H256457   3.600   1.784   1.241  0.0906 -0.2274 -0.8104
11656TIP3   OH256458   4.563   3.366  14.343  0.0367 -0.6828  0.3615
11656TIP3    H156459   4.573   3.276  14.375 -1.3872 -0.8385  0.3734
11656TIP3    H256460   4.475   3.369  14.305  0.6988  0.2304 -1.1795
11657TIP3   OH256461   3.900   0.867   4.414 -0.5436 -0.0515 -0.3030
11657TIP3    H156462   3.829   0.916   4.455 -0.2207  0.2017 -0.0446
11657TIP3    H256463   3.904   0.900   4.325  0.3828  1.1659  0.1790
11658TIP3   OH256464   0.587   1.205   1.418  0.9800 -0.6732 -0.0568
11658TIP3    H156465   0.559   1.250   1.498  0.3997 -0.7114 -0.2419
11658TIP3    H256466   0.554   1.116   1.427 -1.3862  0.0237 -1.5421
11659TIP3   OH256467   3.889   4.634  15.270 -0.2567  0.3956 -0.0691
11659TIP3    H156468   3.928   4.567  15.214  0.7679  2.0651 -1.4086
11659TIP3    H256469   3.884   4.593  15.356 -0.9837 -1.8989 -1.1528
11660TIP3   OH256470   6.778   5.641  12.360 -0.7221  0.4036  0.0684
11660TIP3    H156471   6.795   5.565  12.415 -0.6467  0.3176 -0.0717
11660TIP3    H256472   6.706   5.687  12.403  0.9047  1.6443  1.5346
11661TIP3   OH256473   2.456   5.407   0.832  0.0761  0.0293  0.0963
11661TIP3    H156474   2.416   5.491   0.811 -0.0731 -0.0050  0.2448
11661TIP3    H256475   2.385   5.354   0.869 -0.4277 -1.0409 -2.3417
11662TIP3   OH256476   5.141   4.677   1.960  0.1868 -0.1698  0.2697
11662TIP3    H156477   5.145   4.772   1.946 -0.2534 -0.0750  0.7354
11662TIP3    H256478   5.048   4.657   1.960  0.3123 -0.7421 -0.6736
11663TIP3   OH256479   4.030   0.252   1.822  0.2366  0.0532  0.4228
11663TIP3    H156480   4.020   0.171   1.773 -2.9344  0.8163 -0.3060
11663TIP3    H256481   3.971   0.243   1.897 -0.5616  1.9054  0.0329
11664TIP3   OH256482   0.323   5.820  14.504  0.2049 -0.0707  0.4705
11664TIP3    H156483   0.366   5.903  14.525  1.2098 -0.7900  1.3241
11664TIP3    H256484   0.275   5.797  14.583 -0.5065 -0.0476  0.0515
11665TIP3   OH256485   6.335   0.341   6.014 -0.5856  0.1285 -0.0176
11665TIP3    H156486   6.407   0.290   5.979 -1.4445 -0.3242 -1.1587
11665TIP3    H256487   6.363   0.364   6.103  0.1628 -1.6297  0.2322
11666TIP3   OH256488   5.518   0.766   5.457  0.4282 -0.7715  0.1374
11666TIP3    H156489   5.507   0.776   5.552 -0.2084 -1.3169  0.1236
11666TIP3    H256490   5.499   0.853   5.422  0.6246 -0.5773  0.5079
11667TIP3   OH256491   0.916   3.604   1.708 -0.1896 -0.9541 -0.4741
11667TIP3    H156492   0.963   3.681   1.679  0.1267 -1.6270 -1.7587
11667TIP3    H256493   0.938   3.536   1.645 -1.0757 -1.8951  0.1986
11668TIP3   OH256494   0.173   3.766  15.768  0.2904  0.1364 -0.2201
11668TIP3    H156495   0.144   3.694  15.712  1.0927  0.7232 -1.4185
11668TIP3    H256496   0.137   3.844  15.726 -1.1178  0.4003  1.4220
11669TIP3   OH256497   2.516   2.932   4.419 -0.7028 -0.7888  0.3547
11669TIP3    H156498   2.550   2.842   4.413 -0.1898 -0.5928  0.2601
11669TIP3    H256499   2.550   2.976   4.341  0.0217 -0.1956  0.9957
11670TIP3   OH256500   0.127   6.180  16.249  0.5090 -0.7566  0.0342
11670TIP3    H156501   0.199   6.130  16.212  1.1636  1.3853 -1.7396
11670TIP3    H256502   0.064   6.189  16.177 -0.5990 -0.9027  0.9716
11671TIP3   OH256503   2.949   0.241  14.236 -0.2712 -0.0694  0.0116
11671TIP3    H156504   2.895   0.270  14.162 -0.0521 -0.1891 -0.1941
11671TIP3    H256505   2.930   0.148  14.244  0.5876 -0.3127 -0.6380
11672TIP3   OH256506   0.567   4.673  15.810  0.2479  0.3860 -0.0011
11672TIP3    H156507   0.521   4.757  15.804 -0.3902  0.1972  1.8915
11672TIP3    H256508   0.659   4.695  15.800  0.2248  1.5418  1.9536
11673TIP3   OH256509   5.104   6.510  16.487  0.8903  0.1248 -0.1113
11673TIP3    H156510   5.086   6.573  16.556 -2.4076 -2.2785  1.3954
11673TIP3    H256511   5.060   6.546  16.410 -1.1420 -0.3236  0.7924
11674TIP3   OH256512   0.823   4.361  11.908 -0.3392 -0.0602 -0.4709
11674TIP3    H156513   0.864   4.319  11.832  1.6629 -1.5677  1.3653
11674TIP3    H256514   0.730   4.346  11.895  0.0416 -1.2762 -2.0727
11675TIP3   OH256515   2.334   0.289   0.793 -0.0304  0.0474 -0.1643
11675TIP3    H156516   2.295   0.377   0.790 -0.6625 -0.1760  1.0740
11675TIP3    H256517   2.346   0.272   0.887  1.9247 -0.3906 -0.4873
11676TIP3   OH256518   2.647   4.941   5.000 -0.3428 -1.1631  0.1383
11676TIP3    H156519   2.585   4.916   4.931  1.1688 -0.8447 -1.3786
11676TIP3    H256520   2.733   4.928   4.960  0.5479  1.5281  1.0625
11677TIP3   OH256521   0.126   2.272   2.441  0.1149 -0.1295  0.6187
11677TIP3    H156522   0.075   2.190   2.440  1.0953 -0.7444 -0.4563
11677TIP3    H256523   0.173   2.269   2.525 -1.5920  0.4486  1.6268
11678TIP3   OH256524   4.343   0.240  14.989 -0.0214  0.2742 -0.2996
11678TIP3    H156525   4.431   0.243  15.025 -0.2117 -0.2309  0.2057
11678TIP3    H256526   4.286   0.267  15.062 -0.4348 -1.0346 -0.1265
11679TIP3   OH256527   1.076   5.893  14.939 -0.4599 -0.1218  0.9874
11679TIP3    H156528   1.066   5.964  14.876  2.5303 -1.9073 -1.6324
11679TIP3    H256529   1.107   5.936  15.019 -0.2318  1.6859 -0.0494
11680TIP3   OH256530   5.626   2.247  11.809 -0.3867  0.3787  0.0661
11680TIP3    H156531   5.603   2.200  11.889 -2.6435  2.1239  0.5048
11680TIP3    H256532   5.586   2.196  11.739  1.2364 -0.9250  0.0694
11681TIP3   OH256533   5.023   0.558   3.523 -0.1944  0.6086  0.0217
11681TIP3    H156534   5.026   0.489   3.589  1.1717  0.1501 -0.5089
11681TIP3    H256535   5.064   0.633   3.565 -0.3398  0.6569  0.0785
11682TIP3   OH256536   3.660   1.961  14.914  0.7883 -0.2052  0.1562
11682TIP3    H156537   3.673   1.987  15.005  0.7312 -0.9726  0.3895
11682TIP3    H256538   3.718   2.019  14.864 -0.6487  1.5662  0.4827
11683TIP3   OH256539   1.679   1.263   1.247  0.4288 -0.7810 -0.1606
11683TIP3    H156540   1.723   1.204   1.308 -0.3359 -1.4105 -0.2110
11683TIP3    H256541   1.720   1.348   1.262 -0.1584 -0.8136  1.6179
11684TIP3   OH256542   6.211   3.885   3.314 -0.6166  0.5826  0.7682
11684TIP3    H156543   6.185   3.793   3.304  0.7009  0.2503  0.2577
11684TIP3    H256544   6.307   3.882   3.314 -0.5507  2.1533 -1.1892
11685TIP3   OH256545   0.779   4.347  12.712 -0.2030 -0.6213  0.5666
11685TIP3    H156546   0.812   4.259  12.697  0.4140 -0.2484 -0.3210
11685TIP3    H256547   0.684   4.339  12.702 -0.4856 -1.8131  3.7236
11686TIP3   OH256548   0.429   1.607  13.971 -0.4399 -0.3322  1.1734
11686TIP3    H156549   0.448   1.555  14.049 -0.2878 -0.5739  0.9779
11686TIP3    H256550   0.487   1.571  13.904 -1.1073 -0.6282  0.7451
11687TIP3   OH256551   2.654   4.117  10.905 -0.2072  0.2437  0.0668
11687TIP3    H156552   2.654   4.209  10.878  1.4795 -0.1075 -1.2511
11687TIP3    H256553   2.575   4.080  10.866  0.6462  0.4588 -1.9183
11688TIP3   OH256554   0.970   0.083   4.443  0.0924  0.2375 -0.2128
11688TIP3    H156555   0.891   0.043   4.480  0.1945 -1.0345 -1.3259
11688TIP3    H256556   0.942   0.171   4.418 -0.5491  0.3444  0.8385
11689TIP3   OH256557   0.424   6.627  15.571  0.1629 -0.4132  0.8719
11689TIP3    H156558   0.504   6.646  15.621  0.4681  0.3884  0.0876
11689TIP3    H256559   0.353   6.637  15.635  0.7647 -2.5681  1.9521
11690TIP3   OH256560   0.560   2.584  17.128 -0.1596 -0.4585  0.4454
11690TIP3    H156561   0.573   2.538  17.045 -2.1005  0.1960 -0.2470
11690TIP3    H256562   0.512   2.521  17.183 -0.0624 -0.4083  0.5868
11691TIP3   OH256563   5.954   1.359  13.704  0.8692  0.0372  0.3347
11691TIP3    H156564   5.916   1.273  13.719 -0.5181  0.5414 -0.1393
11691TIP3    H256565   6.041   1.342  13.669  1.1302 -1.1601  1.5093
11692TIP3   OH256566   6.793   3.140   2.007 -0.5082 -0.0180  0.1063
11692TIP3    H156567   6.858   3.070   2.005 -0.3898  0.0524  1.1494
11692TIP3    H256568   6.844   3.221   2.006 -0.6058  0.0439  0.1652
11693TIP3   OH256569   2.369   3.404  14.248 -0.0140  0.5470 -0.1104
11693TIP3    H156570   2.352   3.310  14.237 -0.9653  0.9876 -2.5763
11693TIP3    H256571   2.409   3.410  14.335 -1.1517 -1.9829  0.6535
11694TIP3   OH256572   2.855   3.907   0.619  0.5568 -0.5403  0.3254
11694TIP3    H156573   2.791   3.915   0.548  0.7584  1.0135  0.3099
11694TIP3    H256574   2.937   3.885   0.574  0.1535 -2.0604  0.3059
11695TIP3   OH256575   3.532   1.612   2.932 -0.1883 -0.5401 -0.4902
11695TIP3    H156576   3.547   1.523   2.965 -0.1330 -0.0420  0.8689
11695TIP3    H256577   3.449   1.639   2.972  0.6323  0.6329  0.4497
11696TIP3   OH256578   4.252   2.963  11.833 -0.0821 -0.3719  0.4067
11696TIP3    H156579   4.182   2.900  11.843 -0.5246  0.3807  2.2381
11696TIP3    H256580   4.332   2.915  11.855 -0.3088 -0.5258  0.8842
11697TIP3   OH256581   4.532   4.685  11.013 -0.2001  0.0160  0.7023
11697TIP3    H156582   4.447   4.706  10.975  0.0834  1.6437  0.9355
11697TIP3    H256583   4.516   4.684  11.108 -0.1792 -0.7292  0.7034
11698TIP3   OH256584   3.620   3.368   4.381 -0.1885  0.2098 -0.0525
11698TIP3    H156585   3.605   3.387   4.288  0.0120 -0.4777 -0.2322
11698TIP3    H256586   3.704   3.320   4.382 -0.8228 -0.9209  0.3444
11699TIP3   OH256587   3.059   2.462  15.397 -0.4601 -0.2425  0.1343
11699TIP3    H156588   2.963   2.461  15.392 -0.4237  2.6561 -2.5881
11699TIP3    H256589   3.079   2.544  15.442  0.7816 -0.6909  0.4114
11700TIP3   OH256590   4.056   0.240   0.066 -0.4040  0.3638 -0.3302
11700TIP3    H156591   3.978   0.224   0.119 -1.0219 -0.1565 -1.3835
11700TIP3    H256592   4.027   0.302  -0.001  0.0434  0.0329 -0.8313
11701TIP3   OH256593   6.237   5.257   1.523 -0.3840 -0.2114 -0.0781
11701TIP3    H156594   6.198   5.179   1.562 -0.8807 -0.3463 -0.8534
11701TIP3    H256595   6.280   5.301   1.597 -0.9019 -0.7230  0.5354
11702TIP3   OH256596   3.133   1.033   2.960  0.7892 -0.6600 -0.3756
11702TIP3    H156597   3.143   1.127   2.947 -1.8465 -0.6752 -2.9856
11702TIP3    H256598   3.172   1.017   3.046  2.6379  2.5448 -0.5358
11703TIP3   OH256599   6.521   4.626  15.823  0.0828  0.0944  0.2879
11703TIP3    H156600   6.576   4.582  15.888  1.1714  2.2362  0.8886
11703TIP3    H256601   6.560   4.713  15.814 -0.8412  0.2929 -2.2797
11704TIP3   OH256602   6.744   5.815  11.558 -0.2232  0.0323  0.4257
11704TIP3    H156603   6.792   5.767  11.490 -0.9880  0.1660 -0.2109
11704TIP3    H256604   6.698   5.884  11.510 -0.6777  0.1988  1.1027
11705TIP3   OH256605   5.140   2.456   1.195 -0.2942  0.4009 -0.2332
11705TIP3    H156606   5.181   2.380   1.235  1.5581  2.1043  1.1982
11705TIP3    H256607   5.055   2.463   1.238  0.6986  0.7838  1.7408
11706TIP3   OH256608   0.321   5.666  16.022  0.1841 -0.0938 -0.1029
11706TIP3    H156609   0.241   5.613  16.027  1.0931 -1.7138 -1.7900
11706TIP3    H256610   0.349   5.675  16.113 -1.0470 -0.8598  0.3782
11707TIP3   OH256611   2.366   5.104   0.202  0.8459 -0.1371  0.5037
11707TIP3    H156612   2.301   5.118   0.133 -0.1529 -0.8374  1.3074
11707TIP3    H256613   2.431   5.046   0.161  1.1974  0.8775 -0.4220
11708TIP3   OH256614   6.219   1.741   4.257  0.2118  0.1646  0.3958
11708TIP3    H156615   6.215   1.767   4.349 -2.6976  0.1758  0.3216
11708TIP3    H256616   6.246   1.820   4.211  1.7028  0.1579  1.2114
11709TIP3   OH256617   4.996   1.484   3.863  0.2298 -0.9011 -0.0404
11709TIP3    H156618   4.922   1.510   3.918 -1.0716 -1.4971 -1.4562
11709TIP3    H256619   4.975   1.395   3.835  1.5768 -1.1392 -0.3139
11710TIP3   OH256620   2.195   0.595  15.352 -0.4072  0.6671 -0.1428
11710TIP3    H156621   2.192   0.504  15.321 -0.2257  1.2097 -1.8023
11710TIP3    H256622   2.146   0.644  15.285  0.0224  1.8765  0.4279
11711TIP3   OH256623   2.052   6.312  15.560  0.1162  0.3725 -0.3141
11711TIP3    H156624   2.038   6.217  15.557  0.6835  0.2790 -0.0179
11711TIP3    H256625   1.986   6.347  15.501  0.9888 -0.3231 -1.7301
11712TIP3   OH256626   4.634   6.479  10.867 -0.2204 -0.0589 -0.0469
11712TIP3    H156627   4.587   6.466  10.784 -0.1495 -0.3745 -0.0408
11712TIP3    H256628   4.716   6.431  10.855 -1.0398 -1.7301  0.9206
11713TIP3   OH256629   4.609   2.757   0.984  0.0494  0.4951  0.0835
11713TIP3    H156630   4.635   2.839   1.025 -0.8065  1.2597 -0.8741
11713TIP3    H256631   4.581   2.782   0.896 -0.8729 -0.7213  0.0170
11714TIP3   OH256632   5.344   6.776  10.437  0.1700 -0.0687 -0.6013
11714TIP3    H156633   5.439   6.778  10.430  0.0933 -0.0048 -1.9091
11714TIP3    H256634   5.319   6.863  10.467  0.6545 -0.7458  1.8024
11715TIP3   OH256635   1.426   6.109   2.071  0.2784 -0.4947  0.0854
11715TIP3    H156636   1.475   6.070   1.998  1.5455  0.3582  0.4606
11715TIP3    H256637   1.374   6.037   2.106  2.4792 -1.8704  0.6672
11716TIP3   OH256638   2.251   3.979  13.412 -0.0388  0.0214  0.1798
11716TIP3    H156639   2.276   3.905  13.357  0.1875  0.0159  0.2875
11716TIP3    H256640   2.261   3.947  13.502  0.9786  0.4686  0.2386
11717TIP3   OH256641   2.997   2.883  12.029  0.8908  1.2344 -0.1130
11717TIP3    H156642   2.976   2.927  12.111 -1.0186  0.8363 -0.3499
11717TIP3    H256643   2.926   2.908  11.969  1.1845 -0.0423 -1.0279
11718TIP3   OH256644   5.586   2.353   0.037 -0.3801  0.5478 -0.0780
11718TIP3    H156645   5.655   2.313  -0.017 -1.3453 -1.1746 -0.0613
11718TIP3    H256646   5.517   2.374  -0.026  0.3549  2.7786 -0.1773
11719TIP3   OH256647   6.152   6.289  14.383 -0.3216 -0.0060 -0.8541
11719TIP3    H156648   6.130   6.361  14.442 -0.6781 -1.4816  0.8383
11719TIP3    H256649   6.192   6.332  14.307 -1.3339  2.0406 -0.2737
11720TIP3   OH256650   2.736   5.801  13.622 -0.2159  0.0626  0.2025
11720TIP3    H156651   2.718   5.829  13.532  0.8667  0.5291  0.1162
11720TIP3    H256652   2.827   5.829  13.637 -0.2025 -0.5393  1.2363
11721TIP3   OH256653   1.743   0.189   0.366  0.2777  0.1957  0.1817
11721TIP3    H156654   1.710   0.099   0.358 -0.0071  0.2673  0.5191
11721TIP3    H256655   1.831   0.179   0.403  0.1730  0.0642  0.3992
11722TIP3   OH256656   0.706   6.184  14.689 -0.2745  0.2899  0.2802
11722TIP3    H156657   0.641   6.115  14.684  1.4352 -1.2059 -2.8014
11722TIP3    H256658   0.656   6.265  14.676 -1.6010 -0.8109 -1.8172
11723TIP3   OH256659   4.352   1.294  11.649  0.3326  1.0679 -0.3600
11723TIP3    H156660   4.376   1.241  11.725  0.7441  1.6378 -0.0853
11723TIP3    H256661   4.330   1.230  11.581  0.0982  0.5574  0.1948
11724TIP3   OH256662   4.387   3.568   5.657  0.2825  0.0154 -0.5838
11724TIP3    H156663   4.350   3.616   5.583  2.1408 -0.4180 -1.8333
11724TIP3    H256664   4.312   3.549   5.713 -0.7619  2.6573 -1.0224
11725TIP3   OH256665   3.507   3.246   1.812 -0.4232 -0.2859 -0.2922
11725TIP3    H156666   3.484   3.339   1.809 -3.0175 -0.8887 -0.7512
11725TIP3    H256667   3.450   3.206   1.747 -0.2137 -2.3581  0.7660
11726TIP3   OH256668   1.716   2.286  14.608  0.5841 -0.1259 -0.2807
11726TIP3    H156669   1.718   2.330  14.524 -0.5941 -0.4076 -0.4657
11726TIP3    H256670   1.779   2.334  14.662  0.0151  1.1795 -0.7611
11727TIP3   OH256671   6.405   5.828   0.776 -0.2513 -0.2234 -0.3616
11727TIP3    H156672   6.412   5.816   0.871  1.7738 -0.5124 -0.5116
11727TIP3    H256673   6.380   5.742   0.742 -1.8975  0.1152 -0.0123
11728TIP3   OH256674   1.996   2.763   4.229 -0.7162 -0.2151 -0.2760
11728TIP3    H156675   2.056   2.798   4.295 -1.5153  1.8339 -0.6004
11728TIP3    H256676   1.910   2.767   4.270 -1.2165  1.0377 -1.4139
11729TIP3   OH256677   1.157   2.664   3.415 -0.2207  0.1625 -0.2286
11729TIP3    H156678   1.141   2.585   3.466 -0.4065  1.0196  1.0581
11729TIP3    H256679   1.155   2.735   3.479  4.0034  0.8505 -0.6997
11730TIP3   OH256680   6.023   5.893   2.530  0.3351 -0.1073 -0.1575
11730TIP3    H156681   6.029   5.837   2.453  1.6393  0.9386 -0.8536
11730TIP3    H256682   5.958   5.851   2.586  1.6692 -2.5989 -0.3978
11731TIP3   OH256683   1.335   2.205   3.210  0.4127  0.8826  0.1273
11731TIP3    H156684   1.286   2.232   3.133 -0.6884  1.6375  1.0917
11731TIP3    H256685   1.288   2.128   3.243 -0.3577  1.8173  1.2575
11732TIP3   OH256686   4.251   2.686   2.391 -0.4073 -0.6211 -0.4768
11732TIP3    H156687   4.169   2.639   2.406 -0.5480 -0.6567 -1.3416
11732TIP3    H256688   4.223   2.771   2.356 -0.0735 -0.7251 -1.0080
11733TIP3   OH256689   3.152   1.147  12.626 -0.3534 -0.4161  0.4023
11733TIP3    H156690   3.201   1.229  12.629  0.3151 -0.8238  0.7700
11733TIP3    H256691   3.062   1.172  12.648 -0.9920  0.8235 -3.2957
11734TIP3   OH256692   4.305   5.822   5.159  0.2912 -0.0527  0.1588
11734TIP3    H156693   4.287   5.915   5.150  0.4650 -0.2160 -1.9568
11734TIP3    H256694   4.227   5.786   5.202 -1.0463  0.5527 -1.7412
11735TIP3   OH256695   0.140   4.577  16.921  0.0993  0.2829  0.0261
11735TIP3    H156696   0.082   4.629  16.977  0.0558  0.1768  0.0789
11735TIP3    H256697   0.220   4.629  16.915 -0.2097  0.7014 -0.5119
11736TIP3   OH256698   3.844   0.181   0.572 -0.0436  0.6395 -0.2954
11736TIP3    H156699   3.789   0.120   0.525 -0.3237 -0.1549  1.0538
11736TIP3    H256700   3.851   0.257   0.514  1.2327 -1.1059 -2.4644
11737TIP3   OH256701   6.058   6.476  15.882 -0.3989 -0.3744 -0.0941
11737TIP3    H156702   6.032   6.516  15.965 -0.7945  0.7356 -0.7344
11737TIP3    H256703   5.984   6.422  15.856 -0.1453 -0.9796  0.4273
11738TIP3   OH256704   3.171   5.692  14.864 -0.0233  0.0361  0.0364
11738TIP3    H156705   3.237   5.762  14.866  0.4930 -0.3808 -1.5396
11738TIP3    H256706   3.185   5.649  14.779 -2.0120 -0.3601 -0.1113
11739TIP3   OH256707   3.182   1.571  15.534 -0.0930 -0.2890 -0.3681
11739TIP3    H156708   3.193   1.516  15.612  1.6946  1.6132  0.7455
11739TIP3    H256709   3.252   1.543  15.475 -0.6669 -0.8425 -0.8002
11740TIP3   OH256710   1.354   5.914   0.534  0.2845 -0.0163  0.1143
11740TIP3    H156711   1.345   5.911   0.629  2.3831 -0.4456  0.3336
11740TIP3    H256712   1.329   6.003   0.510 -3.4530 -0.8280  0.6399
11741TIP3   OH256713   0.598   1.649   0.409  0.1109  0.2723  0.4246
11741TIP3    H156714   0.566   1.702   0.483 -1.6209  0.5777 -0.5331
11741TIP3    H256715   0.521   1.603   0.378  1.2619 -1.4494  0.0914
11742TIP3   OH256716   3.312   5.138  14.863 -0.3605 -0.1828 -0.0306
11742TIP3    H156717   3.315   5.045  14.886 -0.9973  0.1362  1.4244
11742TIP3    H256718   3.228   5.149  14.819  0.1523 -0.4863 -1.0905
11743TIP3   OH256719   6.622   4.534   4.467 -0.1638 -1.1394  0.3940
11743TIP3    H156720   6.566   4.541   4.390  1.6992  2.9779 -0.7473
11743TIP3    H256721   6.576   4.584   4.534  0.1824 -1.1665  0.6523
11744TIP3   OH256722   4.287   2.979   6.289  0.8217 -0.0765  0.9296
11744TIP3    H156723   4.295   2.897   6.240  0.6587  0.1134  0.5838
11744TIP3    H256724   4.220   2.961   6.355 -1.3229  0.6895 -1.0152
11745TIP3   OH256725   2.851   2.931   5.930  0.4292  0.2478 -0.4142
11745TIP3    H156726   2.811   2.984   5.999 -1.0444 -2.3676  0.8449
11745TIP3    H256727   2.784   2.927   5.861  1.3860  1.7701 -1.4613
11746TIP3   OH256728   6.176   3.168   5.505  0.3841 -0.3655 -0.4917
11746TIP3    H156729   6.192   3.188   5.413 -0.3574  0.3006 -0.4802
11746TIP3    H256730   6.106   3.228   5.531 -1.1107 -2.1685 -0.1537
11747TIP3   OH256731   5.913   1.600   0.757  0.3488 -0.3315 -0.1562
11747TIP3    H156732   5.991   1.567   0.802 -1.2134 -2.4250  1.1223
11747TIP3    H256733   5.840   1.565   0.808 -1.4596 -0.1898 -2.5964
11748TIP3   OH256734   3.236   5.455   0.685 -0.3886 -0.3127  0.1275
11748TIP3    H156735   3.197   5.541   0.705  0.0125 -0.5192  1.9671
11748TIP3    H256736   3.329   5.467   0.705  0.2025 -0.3463 -2.4639
11749TIP3   OH256737   0.497   5.254   1.579 -0.4248  0.8468 -0.3116
11749TIP3    H156738   0.522   5.342   1.551 -2.6125  1.1864 -1.2721
11749TIP3    H256739   0.473   5.264   1.671 -1.0801  1.3628 -0.5309
11750TIP3   OH256740   6.393   3.993  10.913  0.0435  0.2030 -0.2258
11750TIP3    H156741   6.471   4.014  10.863  0.9807 -1.8993  0.2804
11750TIP3    H256742   6.391   3.897  10.916  0.7001  0.2209  4.7490
11751TIP3   OH256743   3.123   2.623  12.629 -0.1194  0.0792 -0.2336
11751TIP3    H156744   3.164   2.600  12.713  1.2210  1.6134 -0.4481
11751TIP3    H256745   3.063   2.694  12.650  0.8958  1.0863 -0.7197
11752TIP3   OH256746   5.567   2.870   2.193 -0.2792 -0.1503  0.0341
11752TIP3    H156747   5.547   2.934   2.261  1.5261 -0.1494  0.5870
11752TIP3    H256748   5.573   2.786   2.239  0.9395 -0.1515 -0.0982
11753TIP3   OH256749   2.289   4.192   0.670 -0.2144 -0.0493  0.7120
11753TIP3    H156750   2.284   4.140   0.590  0.7795  0.3587  0.3713
11753TIP3    H256751   2.198   4.213   0.691 -0.5181 -0.6082 -0.0113
11754TIP3   OH256752   2.311   6.081   0.178 -0.3710 -0.1208  0.1001
11754TIP3    H156753   2.323   6.139   0.103 -0.6551 -1.0948 -0.7166
11754TIP3    H256754   2.260   6.007   0.143 -0.3063 -0.6934  1.1959
11755TIP3   OH256755   6.104   4.611   5.615  0.3214  0.0907  0.3515
11755TIP3    H156756   6.081   4.648   5.700  1.1290 -1.5049  1.2987
11755TIP3    H256757   6.024   4.569   5.584 -0.0183  0.8146  0.2232
11756TIP3   OH256758   6.678   4.510  13.237  0.2850  0.2453  0.3902
11756TIP3    H156759   6.599   4.558  13.263 -0.4451 -1.1172  0.7131
11756TIP3    H256760   6.716   4.481  13.320 -0.4945 -1.6372  0.1225
11757TIP3   OH256761   2.476   6.733  13.053  0.5155 -0.5258  0.7332
11757TIP3    H156762   2.550   6.790  13.030 -0.3596  0.3369  0.0678
11757TIP3    H256763   2.504   6.646  13.026  0.9680 -0.0807 -0.2403
11758TIP3   OH256764   2.021   3.797  14.433 -1.2087  0.6711 -0.1399
11758TIP3    H156765   2.068   3.716  14.416 -1.5786  0.2922  0.6279
11758TIP3    H256766   2.080   3.866  14.401 -1.4064  0.0483 -1.8791
11759TIP3   OH256767   2.238   0.197  15.531 -0.1485  0.3433  0.2583
11759TIP3    H156768   2.201   0.251  15.461 -0.3792 -0.6266 -0.3786
11759TIP3    H256769   2.167   0.186  15.594 -0.3337  0.1519  0.0171
11760TIP3   OH256770   6.801   2.233  13.868 -0.7633  0.2380 -0.3502
11760TIP3    H156771   6.706   2.221  13.876 -0.4481 -2.9278 -0.7643
11760TIP3    H256772   6.820   2.215  13.776  0.3230  0.3542 -0.1583
11761TIP3   OH256773   3.652   5.493   4.213  0.0025 -0.4261  0.3346
11761TIP3    H156774   3.609   5.414   4.180 -1.7588  0.0633  1.3573
11761TIP3    H256775   3.670   5.545   4.135 -1.6588 -0.4802 -0.1110
11762TIP3   OH256776   5.681   3.227  12.702 -0.9698  0.0174  0.2667
11762TIP3    H156777   5.640   3.250  12.786 -1.3194  1.7931 -0.3539
11762TIP3    H256778   5.775   3.239  12.717 -0.9673 -0.4563  0.6352
11763TIP3   OH256779   5.079   1.684   1.424 -0.0095  0.3107  0.0475
11763TIP3    H156780   5.006   1.645   1.377 -0.0498  0.1127  0.2744
11763TIP3    H256781   5.147   1.617   1.422  0.3192  0.6544 -0.5307
11764TIP3   OH256782   5.312   0.921  16.854  0.0745 -0.3603  0.1062
11764TIP3    H156783   5.237   0.977  16.832  0.8903  0.5700 -0.3047
11764TIP3    H256784   5.380   0.946  16.792  1.0784 -0.4650  1.1603
11765TIP3   OH256785   3.187   2.076  16.162  0.3816 -0.1354  0.0778
11765TIP3    H156786   3.181   2.142  16.092  1.1572  1.0573  1.0975
11765TIP3    H256787   3.277   2.084  16.194  0.7808 -2.3754 -0.4120
11766TIP3   OH256788   1.649   4.467  16.418  0.1629 -0.4241  0.0527
11766TIP3    H156789   1.648   4.477  16.322  1.2764 -1.4376 -0.0821
11766TIP3    H256790   1.565   4.501  16.446  0.6676  1.8522 -1.0808
11767TIP3   OH256791   2.869   4.028  14.980 -0.1399  0.1061  0.1421
11767TIP3    H156792   2.806   4.005  14.911 -0.5957  0.8121  0.3102
11767TIP3    H256793   2.930   3.954  14.983 -0.1035  0.0805 -1.0334
11768TIP3   OH256794   1.064   2.195  12.343  0.3571  0.5239 -0.3994
11768TIP3    H156795   0.973   2.204  12.317  0.0644 -0.0201  0.3949
11768TIP3    H256796   1.113   2.188  12.261 -0.1873  1.8754 -0.8558
11769TIP3   OH256797   2.916   6.577   2.491 -0.0256 -0.8778  0.1260
11769TIP3    H156798   2.932   6.555   2.399  2.0251  0.8421  0.0535
11769TIP3    H256799   2.920   6.672   2.494 -1.8076 -0.8267  1.7129
11770TIP3   OH256800   6.692   3.104  13.670 -0.2176  0.4323  0.1803
11770TIP3    H156801   6.747   3.117  13.748  0.0426  2.1952 -0.2716
11770TIP3    H256802   6.644   3.187  13.661 -1.7632 -0.5042 -0.3666
11771TIP3   OH256803   1.045   6.516  14.700 -0.7046  0.0005 -0.3661
11771TIP3    H156804   0.949   6.514  14.702 -0.7031 -1.3592 -1.5009
11771TIP3    H256805   1.070   6.435  14.657  0.9695  0.3735 -0.1181
11772TIP3   OH256806   2.714   3.839   0.848 -0.2985  0.4551 -0.2544
11772TIP3    H156807   2.749   3.900   0.913  0.3826 -0.3298  0.1301
11772TIP3    H256808   2.773   3.847   0.773 -0.1560  0.2186 -0.1703
11773TIP3   OH256809   5.833   1.766  12.866 -0.6438  0.0212 -0.5227
11773TIP3    H156810   5.846   1.860  12.853 -1.9233  0.1818 -0.7114
11773TIP3    H256811   5.902   1.741  12.928  0.5457  0.8071 -1.5078
11774TIP3   OH256812   4.772   4.693   4.793  0.2134  0.1495  0.4190
11774TIP3    H156813   4.777   4.617   4.735  0.3574  1.4658 -1.3350
11774TIP3    H256814   4.684   4.689   4.830 -0.4422  0.1357 -1.1050
11775TIP3   OH256815   4.750   3.191  15.204 -0.2805  0.0979  0.2980
11775TIP3    H156816   4.742   3.216  15.111 -0.4794 -0.1680  0.2424
11775TIP3    H256817   4.803   3.112  15.203 -0.2399  0.1242  0.4149
11776TIP3   OH256818   1.782   0.314   2.332  0.5189  0.3685  0.2622
11776TIP3    H156819   1.772   0.310   2.427  0.1577  1.1956  0.2602
11776TIP3    H256820   1.802   0.224   2.307 -2.2366 -0.4230  0.8053
11777TIP3   OH256821   2.657   1.782  15.308 -0.1780 -0.0625  0.0293
11777TIP3    H156822   2.748   1.769  15.335  0.2728  0.7647 -1.0857
11777TIP3    H256823   2.653   1.747  15.219 -0.7116  0.8253 -0.3000
11778TIP3   OH256824   1.242   6.655   3.132  0.3090 -0.5275  0.4323
11778TIP3    H156825   1.265   6.748   3.135  0.4465 -0.4904 -1.4011
11778TIP3    H256826   1.223   6.632   3.223  2.2882  0.7821  1.2061
11779TIP3   OH256827   5.932   3.498  16.790  0.1236 -0.0811 -0.3767
11779TIP3    H156828   5.952   3.558  16.862  0.9269  0.0784 -0.7239
11779TIP3    H256829   5.907   3.416  16.832  1.1749 -0.1708  0.0784
11780TIP3   OH256830   6.676   3.002  11.798  0.5355 -0.5738  0.1513
11780TIP3    H156831   6.700   3.074  11.740 -0.9221  0.6663  1.0531
11780TIP3    H256832   6.637   2.937  11.740  1.7488 -0.6077 -0.6545
11781TIP3   OH256833   5.628   4.716  10.399 -0.6318  0.6878 -0.4211
11781TIP3    H156834   5.673   4.761  10.328  0.5846  1.1366  0.6281
11781TIP3    H256835   5.633   4.776  10.473  1.5993 -1.3998  1.2009
11782TIP3   OH256836   6.296   4.435   5.699  0.4874 -0.3107  0.1833
11782TIP3    H156837   6.249   4.500   5.647 -1.1428 -0.4637  1.4202
11782TIP3    H256838   6.239   4.358   5.699  2.3842 -1.7582 -1.2411
11783TIP3   OH256839   4.830   5.353   5.368  0.2374  0.2514 -0.2623
11783TIP3    H156840   4.836   5.268   5.324 -0.4157 -0.5491  1.1721
11783TIP3    H256841   4.767   5.403   5.316 -0.4466 -0.6403 -0.2935
11784TIP3   OH256842   1.237   3.081  11.479 -0.1494 -0.2088 -0.1903
11784TIP3    H156843   1.150   3.100  11.515 -0.3771 -0.3375 -0.6666
11784TIP3    H256844   1.250   3.146  11.411  0.4478  0.2783  0.3899
11785TIP3   OH256845   4.810   1.929  13.210  1.0807 -0.6333 -0.1430
11785TIP3    H156846   4.781   1.959  13.124  1.6674  2.0185  0.5471
11785TIP3    H256847   4.765   1.845  13.223 -1.0781  0.2138 -1.8994
11786TIP3   OH256848   4.090   2.046  16.910 -0.1082  0.8390 -0.0122
11786TIP3    H156849   4.165   1.993  16.886 -0.5128  0.2822 -0.0664
11786TIP3    H256850   4.116   2.090  16.991  0.6310  1.4061 -0.5511
11787TIP3   OH256851   2.392   5.255  13.553  0.0829 -0.3155 -0.2521
11787TIP3    H156852   2.314   5.287  13.509 -0.4188 -0.9319  0.1816
11787TIP3    H256853   2.461   5.262  13.487 -0.0510  1.4491 -0.2311
11788TIP3   OH256854   2.733   1.650  11.630  0.3822  0.2101  0.0452
11788TIP3    H156855   2.799   1.697  11.682  0.9292 -0.6815  0.1742
11788TIP3    H256856   2.784   1.585  11.581 -0.4187 -0.5658  0.2330
11789TIP3   OH256857   3.950   0.229   3.582 -0.4032 -0.1414  0.5465
11789TIP3    H156858   3.964   0.274   3.665  0.9420  0.0127  0.2432
11789TIP3    H256859   4.004   0.150   3.589 -2.4353 -1.5324  0.9231
11790TIP3   OH256860   5.962   0.873  16.436 -0.4002 -0.0137 -0.2988
11790TIP3    H156861   5.891   0.810  16.422 -0.7508  0.0398  1.2181
11790TIP3    H256862   6.042   0.822  16.422 -0.6915 -0.6936  0.5045
11791TIP3   OH256863   0.601   2.809  15.576  0.2761 -0.2370  0.1444
11791TIP3    H156864   0.687   2.809  15.533 -0.9895  3.4372 -2.7447
11791TIP3    H256865   0.570   2.719  15.568  1.7832 -0.5403 -3.3351
11792TIP3   OH256866   5.085   6.654   2.291 -0.3437  0.3712 -0.4333
11792TIP3    H156867   5.045   6.735   2.322  0.7423  0.6070  0.3902
11792TIP3    H256868   5.122   6.677   2.206 -2.4601 -0.0084 -1.4751
11793TIP3   OH256869   4.308   1.332  14.126  0.2075  0.1621  0.0255
11793TIP3    H156870   4.258   1.386  14.066 -0.9447 -0.2272  0.6066
11793TIP3    H256871   4.246   1.311  14.197  1.4546  0.4190  1.2230
11794TIP3   OH256872   2.839   0.811   3.206  0.2937 -0.0157 -0.1110
11794TIP3    H156873   2.897   0.736   3.214 -0.3843 -0.4754  0.6410
11794TIP3    H256874   2.850   0.841   3.115  0.2694 -1.2726 -0.5393
11795TIP3   OH256875   4.028   5.158   4.631  0.3037  0.2041  0.4384
11795TIP3    H156876   3.955   5.095   4.630  1.1567 -0.8124  0.8268
11795TIP3    H256877   4.103   5.106   4.660  1.0202  1.4244  0.7762
11796TIP3   OH256878   0.760   2.757   3.937 -0.0217 -0.6307  0.1140
11796TIP3    H156879   0.707   2.733   4.012 -0.2077  1.0825  0.5596
11796TIP3    H256880   0.697   2.776   3.867  0.1628 -2.6293 -0.6268
11797TIP3   OH256881   2.618   2.126   2.432 -0.0040 -0.1649  0.1176
11797TIP3    H156882   2.654   2.045   2.397 -0.0510  0.2883 -1.0215
11797TIP3    H256883   2.656   2.135   2.519  0.8882 -0.8240 -0.2030
11798TIP3   OH256884   2.110   0.713  17.250 -0.2985  0.5660  0.3574
11798TIP3    H156885   2.041   0.673  17.304 -0.9730  0.9303 -0.2341
11798TIP3    H256886   2.148   0.640  17.203  0.3113  0.2373  1.3372
11799TIP3   OH256887   2.807   3.498   5.328 -0.2678  0.2927  0.9734
11799TIP3    H156888   2.793   3.476   5.420 -1.0609  1.7844  1.2169
11799TIP3    H256889   2.720   3.522   5.295 -0.0361 -0.4603 -0.2351
11800TIP3   OH256890   0.457   6.434   3.467 -0.2124  0.4545 -0.2270
11800TIP3    H156891   0.501   6.457   3.385  0.8298 -2.6265 -0.5955
11800TIP3    H256892   0.364   6.428   3.443  0.0462 -0.1287 -1.1108
11801TIP3   OH256893   3.429   5.038  10.925 -0.1622 -0.2168  0.8970
11801TIP3    H156894   3.520   5.056  10.904 -0.7217  2.4801  0.5613
11801TIP3    H256895   3.391   5.009  10.842  0.0452  0.1720  0.6623
11802TIP3   OH256896   3.060   1.143   2.145 -0.4621  0.5957  0.4951
11802TIP3    H156897   3.105   1.058   2.146 -1.5544 -0.0340 -0.9832
11802TIP3    H256898   3.115   1.197   2.088  0.0578  0.7806  1.1686
11803TIP3   OH256899   3.308   1.299  11.449  0.5384 -0.2325  0.4337
11803TIP3    H156900   3.300   1.366  11.382 -1.2965  1.0753  1.9204
11803TIP3    H256901   3.305   1.216  11.401 -0.5480  0.6902 -1.1198
11804TIP3   OH256902   6.759   1.268  14.381 -0.1777 -0.2463 -0.2268
11804TIP3    H156903   6.744   1.223  14.298 -0.8499 -0.0405 -0.2224
11804TIP3    H256904   6.854   1.263  14.395 -0.1445 -0.8639 -0.6732
11805TIP3   OH256905   0.783   2.937  14.382  0.3202 -0.3104 -0.1513
11805TIP3    H156906   0.811   3.010  14.328  0.5816 -1.3375 -1.4375
11805TIP3    H256907   0.819   2.859  14.338  1.1613 -1.1225  1.8874
11806TIP3   OH256908   4.613   6.179   0.388 -0.3603 -0.1604  0.4705
11806TIP3    H156909   4.538   6.221   0.344  0.0458  1.2167  1.0611
11806TIP3    H256910   4.690   6.219   0.347  0.1181 -2.7664 -1.3046
11807TIP3   OH256911   0.669   5.002   1.795 -0.0245 -0.6865 -0.1327
11807TIP3    H156912   0.746   4.965   1.751 -0.0007  0.6051 -1.1893
11807TIP3    H256913   0.667   4.958   1.880  1.3442 -1.4133 -0.4621
11808TIP3   OH256914   2.919   6.678  12.846  0.1409 -0.4253 -0.3031
11808TIP3    H156915   2.965   6.682  12.762  0.9010  0.5361  0.1496
11808TIP3    H256916   2.988   6.683  12.912 -0.4080 -1.7200  0.3993
11809TIP3   OH256917   0.931   0.808  14.782 -0.1319 -0.4688  0.4755
11809TIP3    H156918   0.901   0.721  14.756 -3.1399 -0.1769  2.6731
11809TIP3    H256919   1.000   0.792  14.845 -1.7915 -1.3416  2.1135
11810TIP3   OH256920   1.709   5.561  10.668 -0.2585  0.0995  0.8002
11810TIP3    H156921   1.734   5.570  10.576 -0.6378 -1.4995  0.5193
11810TIP3    H256922   1.792   5.553  10.715 -0.0027  2.5555  0.8090
11811TIP3   OH256923   4.245   4.133  11.898 -0.0994 -0.5661  0.2302
11811TIP3    H156924   4.241   4.065  11.831 -0.5463 -1.1654  0.8634
11811TIP3    H256925   4.282   4.209  11.852 -1.7951 -0.4886 -1.1128
11812TIP3   OH256926   0.223   1.108   1.874 -0.1018 -0.3326  0.5221
11812TIP3    H156927   0.291   1.052   1.837  0.7646  0.1945  1.3034
11812TIP3    H256928   0.230   1.097   1.969  0.0896  1.0900  0.6906
11813TIP3   OH256929   5.076   3.591  13.383  0.2645  0.2421 -0.1312
11813TIP3    H156930   4.985   3.618  13.367  0.4680  0.9278 -0.1668
11813TIP3    H256931   5.126   3.632  13.312  0.6636  0.2442  0.1513
11814TIP3   OH256932   3.114   5.539   0.164  0.0704  0.2725 -0.6503
11814TIP3    H156933   3.076   5.619   0.128  0.4738  0.3416 -0.9276
11814TIP3    H256934   3.207   5.559   0.173 -0.3856  1.1562  2.8160
11815TIP3   OH256935   6.570   3.653   2.024 -0.0052 -1.1728  0.0290
11815TIP3    H156936   6.554   3.559   2.034  2.0846 -1.2544  3.1688
11815TIP3    H256937   6.580   3.665   1.929 -0.6932 -4.0256 -0.4651
11816TIP3   OH256938   5.885   2.379   0.125 -0.6009  0.1659  0.0325
11816TIP3    H156939   5.792   2.371   0.104 -0.7750  4.9171 -1.6850
11816TIP3    H256940   5.887   2.414   0.214 -0.5654  1.8491 -0.6110
11817TIP3   OH256941   4.193   6.009   5.759 -0.8707 -0.0052  0.1681
11817TIP3    H156942   4.128   6.053   5.705 -1.0129  0.3933  0.6663
11817TIP3    H256943   4.145   5.978   5.835 -0.2060  1.6474  1.2943
11818TIP3   OH256944   6.565   6.461  10.413  0.2957 -0.1332  0.1971
11818TIP3    H156945   6.476   6.492  10.433  0.4624 -0.9756  2.4598
11818TIP3    H256946   6.622   6.533  10.440  0.3698 -0.1157 -0.0054
11819TIP3   OH256947   4.647   1.315  15.216  0.6735 -0.2400 -0.6202
11819TIP3    H156948   4.742   1.325  15.229  0.8995  0.0949 -2.4484
11819TIP3    H256949   4.628   1.226  15.246  1.7469 -0.6865 -1.2521
11820TIP3   OH256950   0.206   2.285   0.472  0.2147  0.7341  0.4349
11820TIP3    H156951   0.158   2.203   0.460 -1.7248  1.9037 -0.0758
11820TIP3    H256952   0.246   2.277   0.559  2.3506 -1.8587 -0.6993
11821TIP3   OH256953   1.709   3.359  14.645 -0.6544 -0.1710 -0.2308
11821TIP3    H156954   1.690   3.417  14.719  0.3891 -0.9481  0.6560
11821TIP3    H256955   1.647   3.387  14.577 -0.1479  1.9965  0.1595
11822TIP3   OH256956   4.034   3.876  14.003 -0.5293  0.0591 -0.0870
11822TIP3    H156957   3.991   3.916  14.079 -2.4079  0.5445 -1.3491
11822TIP3    H256958   3.997   3.788  13.998  0.7457 -0.5169  0.4447
11823TIP3   OH256959   6.039   2.103   2.476  0.1025 -0.1783 -0.2902
11823TIP3    H156960   6.095   2.042   2.524  0.9072 -0.7125 -1.8845
11823TIP3    H256961   6.046   2.076   2.384 -2.3054  0.1140 -0.6052
11824TIP3   OH256962   0.203   5.721   0.100  0.2502 -0.0778 -0.6734
11824TIP3    H156963   0.265   5.676   0.043  0.6553  1.3575 -1.3939
11824TIP3    H256964   0.239   5.710   0.188  0.6948 -0.5937 -0.9198
11825TIP3   OH256965   4.982   5.679   1.899 -0.7859 -0.1185 -0.3303
11825TIP3    H156966   4.960   5.608   1.837 -0.1948 -1.4069  0.9129
11825TIP3    H256967   4.966   5.759   1.849 -0.6852 -1.1246 -2.0472
11826TIP3   OH256968   0.255   2.280   1.054 -0.2840  0.0836 -0.3434
11826TIP3    H156969   0.212   2.195   1.044 -2.1541  1.0302 -0.6413
11826TIP3    H256970   0.282   2.283   1.146  1.0891 -1.4080 -0.6840
11827TIP3   OH256971   3.558   0.595  11.787 -0.1175  0.2092 -0.1670
11827TIP3    H156972   3.585   0.685  11.804  0.3534 -0.4080  2.7209
11827TIP3    H256973   3.593   0.546  11.861 -2.1639 -2.0020 -0.6145
11828TIP3   OH256974   4.193   0.698   0.156  0.1501 -0.0467 -0.5600
11828TIP3    H156975   4.106   0.699   0.115 -0.6392  0.7550  1.0780
11828TIP3    H256976   4.195   0.618   0.207 -0.6049  1.1613  1.4040
11829TIP3   OH256977   0.518   6.069   5.328 -0.2194  0.1354  0.1616
11829TIP3    H156978   0.529   6.163   5.342  0.9141 -0.0796  0.8060
11829TIP3    H256979   0.504   6.034   5.415 -1.0506 -0.2462 -0.1253
11830TIP3   OH256980   0.795   4.050   4.042  0.0097 -0.0506 -0.5628
11830TIP3    H156981   0.854   3.988   4.000  0.5107 -0.1432  0.2585
11830TIP3    H256982   0.851   4.124   4.066 -0.3398  0.1601 -0.3927
11831TIP3   OH256983   1.404   3.599   5.707 -0.9326 -0.2713  0.8153
11831TIP3    H156984   1.339   3.590   5.777 -1.1938  1.7424  0.8609
11831TIP3    H256985   1.363   3.660   5.645 -0.0131 -0.7490 -0.2751
11832TIP3   OH256986   3.317   5.180  15.805  0.4227 -0.2578  0.3310
11832TIP3    H156987   3.344   5.162  15.895 -0.4541  0.4827  0.7527
11832TIP3    H256988   3.223   5.198  15.811 -0.0450 -2.0273 -0.9880
11833TIP3   OH256989   5.606   1.823   5.158 -1.1244 -0.2038  0.1116
11833TIP3    H156990   5.608   1.734   5.125  0.0886 -0.4651  0.8473
11833TIP3    H256991   5.677   1.868   5.112 -0.7509 -0.0269  0.8551
11834TIP3   OH256992   2.496   4.691  11.416 -0.0852 -0.0584 -0.1626
11834TIP3    H156993   2.518   4.598  11.413  0.7005  0.1249 -0.1823
11834TIP3    H256994   2.417   4.696  11.471  0.7374 -0.5651  1.0666
11835TIP3   OH256995   3.782   4.313  11.972 -0.4521  0.3308  0.0670
11835TIP3    H156996   3.869   4.291  12.006 -0.5311 -0.1561 -0.0469
11835TIP3    H256997   3.782   4.278  11.883  0.4560  3.2718 -1.1536
11836TIP3   OH256998   4.486   4.454   2.577  0.4420 -0.3680  0.4583
11836TIP3    H156999   4.469   4.360   2.586 -0.7273 -0.1818  0.2486
11836TIP3    H257000   4.466   4.491   2.662  0.9325 -0.3022  0.5502
11837TIP3   OH257001   1.592   6.432  11.685 -0.0578  0.7957 -0.4185
11837TIP3    H157002   1.581   6.339  11.669  1.7889  0.6031 -0.7415
11837TIP3    H257003   1.661   6.437  11.751  0.5045  1.9433 -1.0701
11838TIP3   OH257004   1.723   2.522  12.542  0.6676 -0.2029  0.4226
11838TIP3    H157005   1.660   2.479  12.599  0.7644 -0.2308  0.5091
11838TIP3    H257006   1.758   2.452  12.486  2.8395 -0.7784  2.4035
11839TIP3   OH257007   0.311   2.412  13.759 -0.0739  0.3129  0.4523
11839TIP3    H157008   0.388   2.407  13.815  0.7072  2.3301 -0.4151
11839TIP3    H257009   0.273   2.498  13.778 -1.3948 -0.1512 -0.0432
11840TIP3   OH257010   5.910   5.280   5.693  0.0833  0.4427 -0.4049
11840TIP3    H157011   5.985   5.318   5.647 -0.3291  0.9842 -0.6285
11840TIP3    H257012   5.941   5.267   5.783  1.0807 -1.1443 -0.9483
11841TIP3   OH257013   0.790   1.967   3.210 -0.1349  0.2813  0.2633
11841TIP3    H157014   0.730   1.897   3.236 -0.6320  0.3590 -0.6401
11841TIP3    H257015   0.804   1.952   3.116  1.4484  0.1186  0.5172
11842TIP3   OH257016   2.675   5.092  10.554 -0.1091 -0.2116  0.2712
11842TIP3    H157017   2.738   5.092  10.626  1.3255 -0.5006 -0.9476
11842TIP3    H257018   2.728   5.106  10.476 -1.3538 -2.2898 -0.9803
11843TIP3   OH257019   6.615   1.693  17.179 -0.5665 -0.1560 -0.4732
11843TIP3    H157020   6.634   1.772  17.229  0.8378 -0.1056 -1.0572
11843TIP3    H257021   6.664   1.624  17.223 -0.0681 -0.2873 -1.2202
11844TIP3   OH257022   1.514   5.894  17.234  0.2824 -0.6461 -0.0204
11844TIP3    H157023   1.540   5.841  17.158 -0.8520 -1.5440  0.2074
11844TIP3    H257024   1.504   5.983  17.199  0.1388 -0.9807 -0.8419
11845TIP3   OH257025   2.630   4.062   3.603 -0.2343  0.4291 -0.0034
11845TIP3    H157026   2.711   4.109   3.619  0.1362 -0.2238  0.0659
11845TIP3    H257027   2.577   4.076   3.682 -0.3100  1.0907 -0.1675
11846TIP3   OH257028   2.892   4.779   6.140 -0.6666  0.5968  0.2253
11846TIP3    H157029   2.811   4.779   6.191 -0.8220  0.8408 -0.0204
11846TIP3    H257030   2.936   4.859   6.166 -1.5010  1.5421 -1.2110
11847TIP3   OH257031   2.091   3.452  11.637 -0.5139 -0.3918 -0.0988
11847TIP3    H157032   2.165   3.421  11.585  0.0283 -0.4774  0.7089
11847TIP3    H257033   2.068   3.537  11.598  0.6629  0.1087  0.2735
11848TIP3   OH257034   1.128   3.550   3.722  0.7838 -0.2441  0.7227
11848TIP3    H157035   1.133   3.577   3.631  1.1880  1.5286  1.2486
11848TIP3    H257036   1.156   3.459   3.722  1.6105  0.0056 -0.8033
11849TIP3   OH257037   2.179   0.989  12.156  0.0438  0.1195  0.4713
11849TIP3    H157038   2.099   0.966  12.203  0.3193 -1.6166  0.1377
11849TIP3    H257039   2.185   0.923  12.087  2.1833 -0.2612  0.9858
11850TIP3   OH257040   4.060   5.148   1.548  0.2273 -0.2634  0.4112
11850TIP3    H157041   3.999   5.076   1.534  0.0175 -0.6105  2.9218
11850TIP3    H257042   4.017   5.223   1.507 -1.4147 -0.7380  1.2166
11851TIP3   OH257043   4.261   1.764  11.584 -0.0223 -0.1346  0.4342
11851TIP3    H157044   4.192   1.786  11.522  1.2866  1.1871 -0.6016
11851TIP3    H257045   4.320   1.706  11.536  0.3266 -0.1482  0.8674
11852TIP3   OH257046   4.087   0.509  11.788  0.1553 -0.2367 -0.5137
11852TIP3    H157047   4.103   0.530  11.880  0.2606 -0.4098 -0.4917
11852TIP3    H257048   4.162   0.545  11.741 -0.0351  0.0963 -0.5660
11853TIP3   OH257049   3.159   3.752   4.140  0.2133  0.4396  0.0153
11853TIP3    H157050   3.129   3.789   4.223  0.8091 -0.9340  0.8693
11853TIP3    H257051   3.251   3.776   4.134  0.5161 -0.5764  0.4130
11854TIP3   OH257052   6.630   4.683   2.259  0.2695  0.2895 -0.0431
11854TIP3    H157053   6.634   4.679   2.355  1.5291 -1.5753 -0.1514
11854TIP3    H257054   6.677   4.605   2.230 -0.0881  0.8523 -2.1932
11855TIP3   OH257055   3.151   3.239   5.152 -0.5615  0.2647  0.3855
11855TIP3    H157056   3.241   3.268   5.137 -0.6702  1.1241  1.3280
11855TIP3    H257057   3.111   3.240   5.065  0.1971  0.3416  0.0256
11856TIP3   OH257058   1.924   6.313  12.280  0.1010 -0.0169  0.8591
11856TIP3    H157059   1.895   6.292  12.191 -1.0255  0.2522  1.1489
11856TIP3    H257060   1.999   6.256  12.295  0.5960  0.2725 -0.4393
11857TIP3   OH257061   0.979   5.864   3.309 -0.5294  0.4247  0.2351
11857TIP3    H157062   0.948   5.906   3.229  1.8550  1.5211 -0.1803
11857TIP3    H257063   0.930   5.906   3.379 -0.7398  1.3451 -0.4556
11858TIP3   OH257064   1.944   3.356  12.857 -0.2214  0.5667  0.0555
11858TIP3    H157065   1.991   3.275  12.880 -0.3167  0.9524  1.7080
11858TIP3    H257066   1.857   3.326  12.832  0.0073  0.0801 -0.1662
11859TIP3   OH257067   1.259   1.222   4.674  0.2725  0.1726  0.0012
11859TIP3    H157068   1.212   1.177   4.604 -0.6354  0.1845  0.5980
11859TIP3    H257069   1.267   1.156   4.743  0.5062  0.3947  0.1844
11860TIP3   OH257070   1.339   5.092  13.264 -0.1431 -0.2180 -0.3414
11860TIP3    H157071   1.408   5.055  13.319  1.6978 -0.5136 -2.7083
11860TIP3    H257072   1.382   5.165  13.218 -1.8517  0.5781 -0.7129
11861TIP3   OH257073   3.219   1.481  14.261 -0.1226  0.0994 -0.4041
11861TIP3    H157074   3.205   1.450  14.350 -0.9011 -1.0678 -0.9227
11861TIP3    H257075   3.199   1.575  14.265 -1.6035 -0.2269  0.3415
11862TIP3   OH257076   1.394   5.155   3.958  0.1390 -0.9200  0.3744
11862TIP3    H157077   1.415   5.245   3.982  2.6122 -0.2787 -3.6057
11862TIP3    H257078   1.298   5.150   3.963 -0.1682  2.4316 -0.8888
11863TIP3   OH257079   4.154   3.344  16.777  0.2065  0.0474  0.1279
11863TIP3    H157080   4.240   3.302  16.767  0.4651  0.1652  1.6536
11863TIP3    H257081   4.108   3.290  16.840 -0.7879  0.0831 -0.5598
11864TIP3   OH257082   3.530   5.823  14.776  0.6199 -0.2537 -0.2859
11864TIP3    H157083   3.473   5.866  14.840  0.1938 -1.0979 -0.0917
11864TIP3    H257084   3.481   5.824  14.694  1.0715  0.6220 -0.5509
11865TIP3   OH257085   1.844   0.445  16.716  0.3011 -0.1554  0.0408
11865TIP3    H157086   1.842   0.541  16.709  1.7164 -0.0818  0.5146
11865TIP3    H257087   1.825   0.428  16.809  0.2950 -0.3237  0.0069
11866TIP3   OH257088   4.451   2.911  14.839 -0.3644 -0.2124  0.3013
11866TIP3    H157089   4.374   2.956  14.803 -0.8560 -2.2284 -1.2256
11866TIP3    H257090   4.415   2.842  14.894  0.3870  0.6419  1.8788
11867TIP3   OH257091   1.705   1.087   5.667 -0.1337 -0.4591  0.1816
11867TIP3    H157092   1.670   1.023   5.730 -0.0314 -1.4363 -0.7399
11867TIP3    H257093   1.773   1.134   5.715 -0.1471 -1.1087  0.8407
11868TIP3   OH257094   0.043   1.868   4.373  0.2970  0.1223  0.0303
11868TIP3    H157095   0.132   1.867   4.338  0.0439  1.9564 -0.6849
11868TIP3    H257096   0.027   1.777   4.399  2.6797 -0.0664  0.9573
11869TIP3   OH257097   5.285   3.706  13.625 -0.6239 -0.5042 -0.1269
11869TIP3    H157098   5.377   3.721  13.646 -0.2714 -1.3345 -1.0108
11869TIP3    H257099   5.254   3.789  13.590 -0.1899 -0.2386  0.1164
11870TIP3   OH257100   5.334   4.300   1.860 -0.1800 -0.1512 -0.2184
11870TIP3    H157101   5.347   4.388   1.897 -0.7052  0.4017 -1.3184
11870TIP3    H257102   5.239   4.288   1.862 -0.2177 -0.0752 -1.4705
11871TIP3   OH257103   3.573   2.104  13.603 -0.1317 -0.6327 -0.5867
11871TIP3    H157104   3.656   2.128  13.561  0.3299  0.2625  0.7972
11871TIP3    H257105   3.587   2.015  13.634  0.3117 -0.4908 -0.3681
11872TIP3   OH257106   1.184   5.401  13.942 -0.7065 -0.0455 -0.4248
11872TIP3    H157107   1.148   5.387  14.030  0.4533  0.4071  0.1394
11872TIP3    H257108   1.232   5.320  13.924  0.8928  0.7119  0.2933
11873TIP3   OH257109   5.117   4.197   6.260 -0.7214 -1.1317 -0.4197
11873TIP3    H157110   5.079   4.280   6.232  0.9649 -0.7071 -1.4954
11873TIP3    H257111   5.073   4.178   6.343 -0.4366  1.3215  0.3336
11874TIP3   OH257112   4.465   6.448   6.548  0.0634 -0.0149 -0.5930
11874TIP3    H157113   4.377   6.479   6.527  0.1070 -0.1986 -1.0603
11874TIP3    H257114   4.450   6.360   6.584  0.0131  0.1767 -0.1437
11875TIP3   OH257115   1.321   4.325  16.560  0.2591  0.8395  0.8086
11875TIP3    H157116   1.286   4.309  16.648 -0.9834  2.3725  0.6099
11875TIP3    H257117   1.331   4.237  16.522 -1.9290  0.2793  1.4483
11876TIP3   OH257118   3.003   2.533   4.600 -0.0426  0.3166  0.7439
11876TIP3    H157119   2.976   2.456   4.648  0.6944 -0.7481 -0.4923
11876TIP3    H257120   3.091   2.553   4.634 -1.0876  1.9177  2.5764
11877TIP3   OH257121   1.543   2.727   2.316  0.2693  0.2926 -0.0964
11877TIP3    H157122   1.573   2.783   2.388  2.3710 -0.3360 -0.4432
11877TIP3    H257123   1.522   2.788   2.245  1.7498  0.7230 -0.1940
11878TIP3   OH257124   6.581   4.654   6.211 -0.0979  0.2674 -0.3875
11878TIP3    H157125   6.488   4.677   6.202 -0.1220 -0.0741 -1.0346
11878TIP3    H257126   6.595   4.585   6.146  0.4979 -0.0128  0.0369
11879TIP3   OH257127   1.905   1.018  12.922  0.2215  0.3419  0.3837
11879TIP3    H157128   1.864   0.986  13.003  0.1478 -1.1579 -0.2289
11879TIP3    H257129   1.976   1.075  12.952 -0.2757  0.3856  1.4986
11880TIP3   OH257130   1.291   4.787   3.245 -0.1251  0.2785  0.1717
11880TIP3    H157131   1.254   4.875   3.242 -0.5625  0.1388  1.2631
11880TIP3    H257132   1.312   4.773   3.337 -1.9735 -1.5499  0.3445
11881TIP3   OH257133   1.135   1.114  15.190  0.6910 -0.3249 -0.0994
11881TIP3    H157134   1.146   1.180  15.259 -0.5327  1.0628 -1.1940
11881TIP3    H257135   1.180   1.037  15.224  0.5658  0.4876  2.0363
11882TIP3   OH257136   5.525   1.611  12.323  0.2302 -0.0738  0.0384
11882TIP3    H157137   5.564   1.619  12.411 -0.0225 -1.0865  0.2530
11882TIP3    H257138   5.599   1.592  12.266  0.2269 -0.7344  0.2473
11883TIP3   OH257139   2.336   5.434  16.642 -0.5312  0.2754  0.6094
11883TIP3    H157140   2.265   5.393  16.592 -0.4912  2.1966 -1.1026
11883TIP3    H257141   2.294   5.507  16.686  0.5208  1.9887 -1.1556
11884TIP3   OH257142   2.457   5.650   0.437 -0.6363 -0.1611  1.0116
11884TIP3    H157143   2.424   5.624   0.351 -0.2025 -0.8191  1.0434
11884TIP3    H257144   2.547   5.619   0.438  0.1126  1.9584  0.7802
11885TIP3   OH257145   4.337   0.548   4.484 -1.1166  0.5703  0.2357
11885TIP3    H157146   4.421   0.570   4.446 -0.9114 -0.5861  0.0158
11885TIP3    H257147   4.309   0.470   4.438 -1.4916 -0.0661  1.5161
11886TIP3   OH257148   6.591   6.721   3.231  0.7270  0.3212  0.4206
11886TIP3    H157149   6.515   6.663   3.238 -0.2630  1.6404  1.0640
11886TIP3    H257150   6.657   6.670   3.186 -0.8014 -0.6292 -0.7792
11887TIP3   OH257151   3.564   2.973  15.336 -0.4080  0.5952 -0.2569
11887TIP3    H157152   3.541   3.021  15.256 -1.8639  1.1783  0.5010
11887TIP3    H257153   3.492   2.911  15.349 -0.5732  1.0293  1.0113
11888TIP3   OH257154   4.018   4.284   1.722  0.0538 -0.7693 -0.1419
11888TIP3    H157155   3.973   4.229   1.787 -0.1060 -2.5752 -1.7520
11888TIP3    H257156   4.108   4.288   1.753 -0.2180 -0.8445  0.6880
11889TIP3   OH257157   4.604   5.876  15.820  0.0898  0.0693 -0.5538
11889TIP3    H157158   4.689   5.845  15.790  0.2071 -1.2522  1.0340
11889TIP3    H257159   4.542   5.811  15.786 -0.3372  1.1781 -1.9415
11890TIP3   OH257160   5.791   3.945   4.857  0.0449 -0.2914  0.0872
11890TIP3    H157161   5.755   3.975   4.940  0.5357 -2.9304  1.3339
11890TIP3    H257162   5.885   3.934   4.874  0.3561  0.2926 -1.1784
11891TIP3   OH257163   4.912   4.462   3.009  0.4735  0.8547  0.5449
11891TIP3    H157164   4.833   4.459   2.954  0.2344  0.7228  0.8942
11891TIP3    H257165   4.952   4.547   2.989  0.3079  0.8686  0.2726
11892TIP3   OH257166   2.058   4.949  10.344  0.8818 -0.1977 -0.0559
11892TIP3    H157167   2.068   5.018  10.410  0.9545 -0.6446  0.3954
11892TIP3    H257168   1.972   4.911  10.362 -0.4194  1.6471 -2.0696
11893TIP3   OH257169   3.280   2.613  12.849 -0.2923 -0.4856 -0.0886
11893TIP3    H157170   3.347   2.546  12.861  1.4987  0.7108 -2.9008
11893TIP3    H257171   3.322   2.695  12.873 -1.5393 -0.0159  0.5331
11894TIP3   OH257172   1.204   2.209  15.171  0.1661  0.1503  0.3567
11894TIP3    H157173   1.257   2.284  15.197  1.0306 -1.1451  2.5063
11894TIP3    H257174   1.244   2.134  15.215 -2.2526 -1.1671  0.4531
11895TIP3   OH257175   1.789   2.487  16.509  0.0547  0.2418  0.7173
11895TIP3    H157176   1.826   2.562  16.555  0.1456  0.1781  0.7466
11895TIP3    H257177   1.789   2.417  16.574 -2.2101  0.8414  1.4151
11896TIP3   OH257178   4.100   3.929   2.859  0.4960 -0.3996 -0.2981
11896TIP3    H157179   4.048   4.006   2.880  0.5558 -0.1907 -0.9007
11896TIP3    H257180   4.120   3.889   2.944  0.1484  0.0384 -0.0092
11897TIP3   OH257181   5.925   1.117   3.662  0.1439  0.1060 -0.2556
11897TIP3    H157182   5.979   1.112   3.583  0.8918  1.8638  0.1296
11897TIP3    H257183   5.985   1.096   3.733  0.4237  2.3173  0.2005
11898TIP3   OH257184   0.579   2.940  14.173  0.2374 -0.2306 -0.0573
11898TIP3    H157185   0.653   3.001  14.166  0.0262 -0.0291 -0.5072
11898TIP3    H257186   0.534   2.947  14.089  1.0664 -2.1083 -0.6890
11899TIP3   OH257187   4.806   0.650   5.858 -0.6436 -0.1991  0.0410
11899TIP3    H157188   4.839   0.706   5.788 -0.3499 -1.0961 -0.5533
11899TIP3    H257189   4.877   0.646   5.922 -0.2441 -0.7486 -0.4263
11900TIP3   OH257190   4.315   0.924  14.332 -0.2358 -0.0615  0.0273
11900TIP3    H157191   4.287   0.943  14.421  1.3334 -3.0453  1.2419
11900TIP3    H257192   4.268   0.987  14.278 -2.3333  0.8808  2.8159
11901TIP3   OH257193   1.329   6.527   5.017 -0.1314  0.1903  0.1541
11901TIP3    H157194   1.384   6.557   5.089 -0.7169  1.1411  0.2096
11901TIP3    H257195   1.324   6.601   4.957  0.0651 -0.4756 -0.6980
11902TIP3   OH257196   6.398   2.084  12.022  0.5324  0.2039 -0.8714
11902TIP3    H157197   6.330   2.141  12.056 -0.6500 -2.1694  0.8783
11902TIP3    H257198   6.474   2.141  12.010 -0.5424  2.0879  1.0263
11903TIP3   OH257199   0.637   2.245  15.384  0.4222  0.0803 -0.1380
11903TIP3    H157200   0.587   2.260  15.465  0.5824  1.0040 -0.2061
11903TIP3    H257201   0.571   2.220  15.320 -0.0777  2.0006 -0.4177
11904TIP3   OH257202   0.186   3.955  11.188  0.1637 -0.5384 -0.6518
11904TIP3    H157203   0.266   3.911  11.160 -0.4928 -3.3130  1.5670
11904TIP3    H257204   0.116   3.913  11.137 -0.6853 -3.5919  2.7766
11905TIP3   OH257205   0.248   0.954   2.572  0.2252 -0.0533 -0.1218
11905TIP3    H157206   0.322   0.924   2.517 -2.3672 -3.0871 -2.1522
11905TIP3    H257207   0.215   1.032   2.527  0.2147 -0.5663 -1.0320
11906TIP3   OH257208   2.865   2.399   2.536  0.0261  0.9372 -0.3847
11906TIP3    H157209   2.898   2.322   2.583 -1.0554  0.9109  0.3441
11906TIP3    H257210   2.827   2.454   2.604 -2.6565  0.3448 -1.3456
11907TIP3   OH257211   4.907   2.022   2.800 -0.8502  0.2299 -0.7281
11907TIP3    H157212   4.918   2.102   2.852 -1.1904 -0.4981  0.4653
11907TIP3    H257213   4.992   1.977   2.808 -0.8592  0.1825 -0.9053
11908TIP3   OH257214   1.581   4.927  12.601  0.1509 -0.2448 -0.4555
11908TIP3    H157215   1.595   4.901  12.692 -0.2330 -1.1767 -0.6502
11908TIP3    H257216   1.663   4.906  12.557  0.3166  0.1517 -0.3392
11909TIP3   OH257217   6.184   2.331   0.381  0.3057 -0.3863 -0.5689
11909TIP3    H157218   6.119   2.265   0.356 -0.2648 -0.1134  0.1804
11909TIP3    H257219   6.154   2.412   0.338 -1.3287  0.3596  1.9176
11910TIP3   OH257220   5.047   6.810   3.227  0.3365  0.4795  0.1438
11910TIP3    H157221   5.045   6.865   3.149  0.3845  0.5415  0.1871
11910TIP3    H257222   5.042   6.871   3.300 -2.0078  0.2997  0.1630
11911TIP3   OH257223   0.166   4.500   2.368 -0.0232 -0.5162  0.1592
11911TIP3    H157224   0.102   4.571   2.361 -0.3180 -0.8109 -0.0833
11911TIP3    H257225   0.186   4.476   2.278  0.8651 -0.0335  0.2192
11912TIP3   OH257226   2.946   1.256   5.580 -0.5138 -0.8152  0.2182
11912TIP3    H157227   2.876   1.205   5.619 -0.7017  0.0205  0.9906
11912TIP3    H257228   2.903   1.334   5.546 -0.4477 -1.8112 -2.2397
11913TIP3   OH257229   4.989   6.391   2.099  0.0364  0.2769  0.5793
11913TIP3    H157230   5.076   6.361   2.072  0.7447  0.6917  2.3523
11913TIP3    H257231   4.953   6.433   2.021  1.7083  0.6996  0.0117
11914TIP3   OH257232   0.054   4.096   3.676 -0.3443  0.3183  0.6546
11914TIP3    H157233   0.003   4.176   3.661 -2.4159 -0.9511  0.8873
11914TIP3    H257234   0.012   4.029   3.623  1.9779 -0.4312 -0.3126
11915TIP3   OH257235   0.745   1.131   4.431  0.0216  0.3287  0.5771
11915TIP3    H157236   0.689   1.060   4.401  0.3545 -0.7825  2.5251
11915TIP3    H257237   0.685   1.190   4.477 -0.0219  0.6399  0.1302
11916TIP3   OH257238   3.415   3.456  16.781  0.0052  0.4362 -0.0398
11916TIP3    H157239   3.419   3.447  16.876  1.5687 -1.0412 -0.2228
11916TIP3    H257240   3.342   3.516  16.765 -1.5132 -0.8136  2.0071
11917TIP3   OH257241   3.083   3.894   5.888 -0.5822 -0.2079  0.2903
11917TIP3    H157242   3.028   3.904   5.810  1.1977 -0.4028 -1.0290
11917TIP3    H257243   3.162   3.944   5.868 -1.1559  1.8436  3.0446
11918TIP3   OH257244   2.923   2.386  15.131  0.4197  0.3187  0.0666
11918TIP3    H157245   2.965   2.434  15.202  0.5558  2.5388 -1.4344
11918TIP3    H257246   2.985   2.395  15.058  0.0342 -1.4421 -0.4923
11919TIP3   OH257247   4.110   6.420  10.850 -0.5445 -0.3830 -0.2214
11919TIP3    H157248   4.183   6.374  10.891 -0.2030  1.3357  1.1514
11919TIP3    H257249   4.032   6.381  10.889 -0.3038 -0.7373 -0.0913
11920TIP3   OH257250   3.316   2.290   2.165  0.0312  0.3834  0.5669
11920TIP3    H157251   3.272   2.206   2.153  0.3840  0.3456 -0.5736
11920TIP3    H257252   3.397   2.282   2.114  0.3005  1.2362  0.8537
11921TIP3   OH257253   1.066   1.247  11.203 -1.0179 -0.4726 -0.0912
11921TIP3    H157254   1.149   1.203  11.184  0.5754  1.8862  1.1525
11921TIP3    H257255   1.039   1.285  11.120 -1.1485 -1.6854 -0.6151
11922TIP3   OH257256   2.058   3.758   1.707  0.0106 -0.0376  0.4459
11922TIP3    H157257   2.009   3.824   1.756  0.6853 -0.2477  1.4237
11922TIP3    H257258   2.019   3.675   1.733 -2.2222  0.0654 -2.3645
11923TIP3   OH257259   5.351   2.459  11.701 -0.5216 -0.2803  0.7756
11923TIP3    H157260   5.338   2.439  11.794 -0.0308 -0.1098  0.8841
11923TIP3    H257261   5.427   2.518  11.700 -2.3384  2.1604  0.5457
11924TIP3   OH257262   0.461   3.116   1.196  0.3508 -0.2457  0.1099
11924TIP3    H157263   0.397   3.154   1.257  0.5525  0.5644 -0.1674
11924TIP3    H257264   0.546   3.142   1.232  0.4431  1.5451 -1.3177
11925TIP3   OH257265   4.659   3.964   0.668  0.1692 -0.0859  0.1632
11925TIP3    H157266   4.577   3.995   0.629  0.6459  0.4656 -0.4154
11925TIP3    H257267   4.712   3.938   0.592  0.3164 -0.9764  0.5639
11926TIP3   OH257268   5.250   2.811   5.046  0.5667  0.2699  0.0723
11926TIP3    H157269   5.285   2.722   5.039  1.9875  0.7129  1.3057
11926TIP3    H257270   5.293   2.860   4.977  0.0242  0.0837 -0.4026
11927TIP3   OH257271   1.674   5.700   1.780 -0.1931 -0.2053  0.0442
11927TIP3    H157272   1.715   5.613   1.771 -0.1740  0.0527 -2.7719
11927TIP3    H257273   1.744   5.755   1.817  0.0712 -1.1695  1.0110
11928TIP3   OH257274   4.150   2.761   5.031  0.0769 -0.3234 -0.0421
11928TIP3    H157275   4.208   2.705   4.980  0.0806 -0.1448 -0.2376
11928TIP3    H257276   4.145   2.719   5.117  0.1468 -0.5741 -0.1600
11929TIP3   OH257277   5.222   5.915  11.727 -0.3646 -0.5229  0.3235
11929TIP3    H157278   5.209   5.994  11.674 -1.1709  0.6564  2.2176
11929TIP3    H257279   5.296   5.871  11.687  0.6515  1.6612 -0.2517
11930TIP3   OH257280   6.183   4.647  11.131 -0.6094 -0.4899 -0.4959
11930TIP3    H157281   6.151   4.648  11.042  0.9062  0.3499 -1.0541
11930TIP3    H257282   6.276   4.622  11.123  0.0252  1.4017  0.6597
11931TIP3   OH257283   3.685   3.793   5.964  0.0789 -0.0219 -0.2857
11931TIP3    H157284   3.706   3.795   6.057 -2.0818  1.1947  0.2153
11931TIP3    H257285   3.687   3.885   5.937 -0.4219 -0.2602 -1.1598
11932TIP3   OH257286   3.556   5.166   1.992  0.0585  0.8697  0.7209
11932TIP3    H157287   3.647   5.193   1.989 -0.2473  1.7785 -1.5673
11932TIP3    H257288   3.554   5.094   2.055  2.2590  1.1368  1.1248
11933TIP3   OH257289   3.971   6.030   3.059 -0.5017 -0.2871  0.4076
11933TIP3    H157290   4.063   6.011   3.081 -0.8607 -0.8458  1.4158
11933TIP3    H257291   3.929   6.047   3.143 -1.7059 -1.6809  0.0905
11934TIP3   OH257292   5.609   0.808   1.309 -0.3641 -0.5568  0.2232
11934TIP3    H157293   5.676   0.751   1.272  0.0819  0.1603 -0.0819
11934TIP3    H257294   5.635   0.818   1.401  1.3491  1.6940 -0.4612
11935TIP3   OH257295   5.382   6.112   0.125  0.5299 -0.3832 -0.4299
11935TIP3    H157296   5.458   6.160   0.094 -0.2115  1.4104  0.4708
11935TIP3    H257297   5.313   6.178   0.133 -0.5890 -1.6361  0.5495
11936TIP3   OH257298   6.220   3.475   5.631 -0.2576 -0.5419 -0.6843
11936TIP3    H157299   6.227   3.409   5.700  0.4841 -0.0053 -0.2362
11936TIP3    H257300   6.270   3.549   5.665 -0.9898  0.2063 -1.2365
11937TIP3   OH257301   2.217   5.290   1.247 -0.1828 -0.1873  0.4300
11937TIP3    H157302   2.175   5.264   1.329  0.7963  0.1521  1.0488
11937TIP3    H257303   2.194   5.383   1.236  2.3484  0.6838  2.0253
11938TIP3   OH257304   4.311   3.691  14.965 -0.2434 -0.4285  0.3318
11938TIP3    H157305   4.387   3.712  14.911 -2.2449  0.7404 -2.1326
11938TIP3    H257306   4.292   3.599  14.945  1.4724 -1.2512  2.2469
11939TIP3   OH257307   1.482   0.647  13.677  0.0698  0.2599 -0.7886
11939TIP3    H157308   1.410   0.658  13.738  0.5062 -0.3909 -0.1446
11939TIP3    H257309   1.448   0.677  13.593 -1.0420 -0.2976 -0.5426
11940TIP3   OH257310   2.987   5.863  16.920 -0.1436 -0.0013 -0.3931
11940TIP3    H157311   2.919   5.904  16.867  0.8249  0.7249 -1.0924
11940TIP3    H257312   2.965   5.890  17.010 -1.1446 -0.3107 -0.5358
11941TIP3   OH257313   2.222   4.323  12.252  0.4270  0.9768 -0.0070
11941TIP3    H157314   2.231   4.269  12.174 -1.7720  1.9857 -1.0074
11941TIP3    H257315   2.265   4.406  12.228 -0.1705  1.2544 -0.1327
11942TIP3   OH257316   6.734   0.798   4.256 -0.2626  0.5531 -0.2742
11942TIP3    H157317   6.829   0.798   4.246 -0.3785 -0.6774 -1.6683
11942TIP3    H257318   6.704   0.737   4.189 -1.9853  0.3319  0.6928
11943TIP3   OH257319   1.803   0.812  12.566  0.0583 -0.4303  0.5517
11943TIP3    H157320   1.863   0.771  12.628  0.2198  0.3785  0.9340
11943TIP3    H257321   1.840   0.900  12.551  1.8362 -1.7018 -3.1435
11944TIP3   OH257322   5.957   5.822   3.815 -0.0904  0.3118 -0.7069
11944TIP3    H157323   5.932   5.851   3.903 -1.4428 -1.1053 -0.5928
11944TIP3    H257324   5.902   5.745   3.800  0.4120  0.3268 -2.6436
11945TIP3   OH257325   2.487   2.230  15.453  0.4474  0.0475  0.2370
11945TIP3    H157326   2.407   2.250  15.405  0.4893  1.4798  0.7307
11945TIP3    H257327   2.529   2.161  15.403 -0.6885 -0.1299 -0.4815
11946TIP3   OH257328   2.788   2.747  16.577  0.3066 -0.3334  0.7847
11946TIP3    H157329   2.809   2.706  16.493  2.6870 -0.9100  1.6016
11946TIP3    H257330   2.843   2.700  16.640 -0.8143  0.6605  2.5331
11947TIP3   OH257331   0.419   1.159   5.722  0.2183  0.3788 -0.1574
11947TIP3    H157332   0.401   1.128   5.810 -2.2937  1.0686 -0.3975
11947TIP3    H257333   0.498   1.112   5.696 -0.0566 -1.2107  1.7565
11948TIP3   OH257334   6.045   2.577   5.375 -0.3782 -0.4679  0.2668
11948TIP3    H157335   6.075   2.615   5.292 -1.0221  0.0608  0.2728
11948TIP3    H257336   6.034   2.652   5.433  0.0761 -0.8431  0.8297
11949TIP3   OH257337   2.600   5.906  13.417 -0.0757 -0.2606 -0.3272
11949TIP3    H157338   2.511   5.931  13.442  0.2748 -1.2457  2.0567
11949TIP3    H257339   2.627   5.973  13.354 -1.2721  2.0005  1.4722
11950TIP3   OH257340   6.504   6.150   1.749 -0.2590  0.5551  0.7308
11950TIP3    H157341   6.428   6.188   1.703 -1.2718 -0.2158  1.7512
11950TIP3    H257342   6.576   6.162   1.687 -1.9493 -2.1265 -1.9075
11951TIP3   OH257343   6.421   2.443   0.980  0.0217  0.4262  0.5705
11951TIP3    H157344   6.463   2.516   0.935 -2.0337  0.0237 -2.0900
11951TIP3    H257345   6.404   2.378   0.912 -2.2379 -0.6387  2.0786
11952TIP3   OH257346   1.894   1.744  12.448 -0.5520  0.1623 -0.3501
11952TIP3    H157347   1.940   1.728  12.530 -1.1302 -0.7084 -0.1834
11952TIP3    H257348   1.942   1.815  12.407  0.3955 -0.1192  0.2466
11953TIP3   OH257349   5.980   1.373  15.456 -0.5289  0.7414  0.2906
11953TIP3    H157350   5.905   1.414  15.413 -0.1336  0.8133 -0.3409
11953TIP3    H257351   6.035   1.446  15.484  0.2528  0.6508 -0.9748
11954TIP3   OH257352   6.219   1.296   0.907  0.4195 -0.9536 -0.1821
11954TIP3    H157353   6.178   1.378   0.934  0.2651 -1.0691 -0.0618
11954TIP3    H257354   6.157   1.257   0.845  0.5903 -0.8774 -0.4010
11955TIP3   OH257355   1.790   5.773  14.940  0.0104 -0.0726 -0.1000
11955TIP3    H157356   1.713   5.746  14.889 -0.0885 -1.8094  0.9455
11955TIP3    H257357   1.782   5.726  15.022  1.3080  1.0669  0.6966
11956TIP3   OH257358   5.959   5.782   4.671  0.5306 -0.1300  0.5243
11956TIP3    H157359   5.996   5.809   4.755 -0.6094  1.2122  0.6013
11956TIP3    H257360   6.001   5.839   4.607 -1.1032  1.1760  0.5748
11957TIP3   OH257361   0.801   4.561   3.980  0.4294 -0.2978  0.0984
11957TIP3    H157362   0.798   4.466   3.965  1.0527 -0.3191  0.1111
11957TIP3    H257363   0.840   4.596   3.900 -0.0538 -0.0221 -0.0206
11958TIP3   OH257364   0.649   5.949   4.844  0.3237  0.7449  0.6549
11958TIP3    H157365   0.660   6.013   4.773  0.8663 -0.4131 -0.3167
11958TIP3    H257366   0.702   5.984   4.916  0.6158  1.3911  0.1326
11959TIP3   OH257367   0.947   6.618  16.361  0.2872  0.0475  0.0077
11959TIP3    H157368   0.890   6.689  16.330 -0.2102  0.2282  1.2747
11959TIP3    H257369   0.954   6.634  16.455 -0.2261 -1.8683  0.3856
11960TIP3   OH257370   0.248   5.059   1.957 -0.1443 -0.8037 -0.1122
11960TIP3    H157371   0.288   5.028   1.876 -0.6796 -0.5271 -0.4892
11960TIP3    H257372   0.317   5.110   2.000  0.4921 -1.8876  0.1511
11961TIP3   OH257373   0.813   5.486  13.209 -0.5238 -0.3420  0.2002
11961TIP3    H157374   0.742   5.429  13.179 -1.0186  0.3328  0.0971
11961TIP3    H257375   0.880   5.478  13.142 -0.2774 -1.3932  0.5630
11962TIP3   OH257376   6.641   4.007   6.819 -0.2211  0.3171  0.0938
11962TIP3    H157377   6.556   4.027   6.780 -0.0976  1.8502  0.6025
11962TIP3    H257378   6.698   4.078   6.791  0.8511 -0.5992 -0.0783
11963TIP3   OH257379   4.621   1.099  13.266 -0.3627  0.3499  0.3176
11963TIP3    H157380   4.550   1.040  13.243  0.0421  1.1540 -3.2338
11963TIP3    H257381   4.701   1.048  13.250 -0.0191  1.6302 -2.4451
11964TIP3   OH257382   1.659   5.129  14.203  0.0867  0.6098  0.7562
11964TIP3    H157383   1.627   5.040  14.190 -0.4680  1.0264 -0.9102
11964TIP3    H257384   1.642   5.148  14.295 -1.5483 -0.3328  0.6639
11965TIP3   OH257385   0.135   4.621   4.674 -0.1065  0.0640 -0.1563
11965TIP3    H157386   0.079   4.579   4.740 -0.0855  1.7981  0.9911
11965TIP3    H257387   0.196   4.552   4.647 -1.0252 -1.0642  0.5889
11966TIP3   OH257388   3.432   4.025   5.210  0.2194 -0.2743  0.1189
11966TIP3    H157389   3.443   3.946   5.156 -0.3830  0.0429 -0.4826
11966TIP3    H257390   3.479   4.093   5.162  0.4014 -0.1788  0.4345
11967TIP3   OH257391   1.208   4.957  12.964  0.0492 -0.0385 -0.7337
11967TIP3    H157392   1.180   4.920  12.880  2.4149 -0.1772 -1.5144
11967TIP3    H257393   1.248   4.884  13.011  2.4078  0.8955 -1.2138
11968TIP3   OH257394   2.676   3.504   2.909 -0.6461  0.3962  0.1606
11968TIP3    H157395   2.680   3.481   2.816  1.9705 -1.5928  0.6903
11968TIP3    H257396   2.755   3.555   2.925 -1.2621  1.0371  1.2132
11969TIP3   OH257397   3.260   0.455  15.647  0.1427 -0.6582 -0.1703
11969TIP3    H157398   3.264   0.376  15.701 -0.6961 -0.4271  0.2441
11969TIP3    H257399   3.166   0.469  15.632  0.3643 -0.8027 -1.8256
11970TIP3   OH257400   6.335   4.039  15.841 -0.1107 -0.4373 -0.5702
11970TIP3    H157401   6.312   4.084  15.922 -0.6459  0.5202 -1.2509
11970TIP3    H257402   6.339   3.947  15.865 -0.9967 -0.2338  0.3858
11971TIP3   OH257403   0.815   1.133  13.336 -0.6429 -0.6382 -0.0284
11971TIP3    H157404   0.889   1.155  13.280  0.4637 -1.8887  0.9317
11971TIP3    H257405   0.740   1.174  13.292  0.5559  0.4625 -1.1207
11972TIP3   OH257406   3.856   3.238   4.403  0.1917  0.5590  0.3901
11972TIP3    H157407   3.854   3.203   4.492 -0.0934 -0.0679  0.1450
11972TIP3    H257408   3.916   3.180   4.355 -1.5114 -0.5887 -0.4128
11973TIP3   OH257409   3.214   4.562  16.523 -0.0098  0.3901  0.3324
11973TIP3    H157410   3.200   4.612  16.603  0.9801 -0.0882  0.8084
11973TIP3    H257411   3.175   4.616  16.454 -0.7973  0.8392  1.1196
11974TIP3   OH257412   1.518   4.933   2.583 -0.3530  0.3367  0.3713
11974TIP3    H157413   1.508   4.963   2.493 -0.4539 -1.4564 -0.2215
11974TIP3    H257414   1.611   4.942   2.602  0.5116 -3.6144 -1.5036
11975TIP3   OH257415   5.230   5.035  13.898 -0.3860  0.3621 -0.6593
11975TIP3    H157416   5.227   5.116  13.949 -1.3540  0.2810 -0.5814
11975TIP3    H257417   5.271   5.060  13.815  2.9245  0.1057  0.8419
11976TIP3   OH257418   1.042   3.703   1.244 -1.0306  0.7191  0.2040
11976TIP3    H157419   1.049   3.794   1.218 -0.6588  0.8850  0.8815
11976TIP3    H257420   0.949   3.689   1.258 -1.2097  0.6987 -0.9398
11977TIP3   OH257421   6.010   4.533  11.980 -0.7159 -0.1828  0.1311
11977TIP3    H157422   6.038   4.443  11.992  1.7149  0.7058  1.4455
11977TIP3    H257423   6.042   4.557  11.892 -2.8085 -1.0770 -0.9090
11978TIP3   OH257424   0.617   6.677   1.155  0.1899 -0.1499 -0.3368
11978TIP3    H157425   0.554   6.648   1.221 -0.0648 -0.5737 -0.7589
11978TIP3    H257426   0.645   6.763   1.184  0.1853 -0.3981  0.4017
11979TIP3   OH257427   4.150   0.151  16.256 -0.2158  0.0420 -0.4571
11979TIP3    H157428   4.230   0.181  16.212 -0.8904  2.7747  0.1017
11979TIP3    H257429   4.084   0.149  16.187 -0.0391 -0.7156 -0.6053
11980TIP3   OH257430   5.517   0.318  11.658 -0.1650 -0.2413 -0.2238
11980TIP3    H157431   5.532   0.224  11.646 -2.8040 -0.7054 -0.1527
11980TIP3    H257432   5.530   0.332  11.752  1.5325 -0.2580 -0.4373
11981TIP3   OH257433   3.341   4.920   1.981  0.0678  0.6574  0.0485
11981TIP3    H157434   3.354   4.871   1.900  0.8682 -0.1281  0.6430
11981TIP3    H257435   3.429   4.942   2.010 -0.3236  3.5063 -0.8407
11982TIP3   OH257436   5.722   1.786   6.091 -0.4481  0.1980 -0.0552
11982TIP3    H157437   5.711   1.741   6.175 -0.4414 -0.6580 -0.5118
11982TIP3    H257438   5.659   1.746   6.033  0.3856 -0.0509 -0.7982
11983TIP3   OH257439   4.705   5.159   2.400 -0.2231 -0.3833 -0.1128
11983TIP3    H157440   4.794   5.124   2.390 -0.4921 -1.0771 -0.1152
11983TIP3    H257441   4.653   5.109   2.337 -0.2886  1.2511 -1.3885
11984TIP3   OH257442   3.256   3.831  12.062 -0.1098  0.1791 -0.1257
11984TIP3    H157443   3.241   3.743  12.097  0.9116 -0.3952 -1.1176
11984TIP3    H257444   3.227   3.826  11.971 -0.4010  0.9863 -0.0863
11985TIP3   OH257445   6.047   5.559  13.142  0.3591  0.6661  0.2707
11985TIP3    H157446   6.016   5.615  13.213 -1.1547  1.9613 -1.3527
11985TIP3    H257447   5.978   5.494  13.132  0.2868  0.8456 -0.3993
11986TIP3   OH257448   1.050   2.772   2.265 -0.1452 -0.5514  0.1935
11986TIP3    H157449   1.055   2.735   2.176  1.4153  0.7874 -0.2992
11986TIP3    H257450   1.122   2.835   2.268 -0.7499  0.0533  2.1265
11987TIP3   OH257451   5.139   4.687   1.599 -0.6169 -0.2921  0.3321
11987TIP3    H157452   5.055   4.702   1.642 -0.2878  2.5750  0.0645
11987TIP3    H257453   5.134   4.739   1.518  2.7178  2.8926  2.0360
11988TIP3   OH257454   4.593   4.781   3.716  0.0162 -0.0417  0.3855
11988TIP3    H157455   4.657   4.745   3.778 -0.5327 -0.3196  0.8025
11988TIP3    H257456   4.543   4.705   3.687 -1.0596  0.3533  1.1563
11989TIP3   OH257457   6.197   2.289  17.143 -0.7101  0.4427 -0.0365
11989TIP3    H157458   6.259   2.301  17.071 -0.0078 -0.4452  0.4081
11989TIP3    H257459   6.152   2.373  17.150  1.5303  1.6411  0.6383
11990TIP3   OH257460   2.776   2.585  12.584 -0.3353  0.0341  0.4182
11990TIP3    H157461   2.804   2.667  12.542 -2.4391  1.2361  1.2748
11990TIP3    H257462   2.744   2.531  12.512  1.0095 -0.0296 -0.1486
11991TIP3   OH257463   2.801   3.728  13.458  0.0914 -0.9245  0.2356
11991TIP3    H157464   2.871   3.759  13.401  1.1692 -0.7093  1.6410
11991TIP3    H257465   2.728   3.709  13.399  0.5534  1.0423 -0.9921
11992TIP3   OH257466   5.271   1.926  10.865  0.2857  0.8066 -0.7426
11992TIP3    H157467   5.366   1.918  10.873  0.1773  0.6666  0.4570
11992TIP3    H257468   5.257   2.017  10.839  0.8004  0.5499 -1.9708
11993TIP3   OH257469   0.906   2.989   3.991 -0.0688 -0.0870  0.2283
11993TIP3    H157470   0.869   2.908   3.956  0.8705 -0.7357  0.7388
11993TIP3    H257471   0.831   3.049   3.995 -0.3041 -0.1627 -2.3810
11994TIP3   OH257472   3.087   6.799  15.903  0.7586  0.0967 -0.1526
11994TIP3    H157473   3.081   6.750  15.821  1.9500 -0.9581  0.3916
11994TIP3    H257474   3.072   6.734  15.972  1.3824  0.6803  0.5384
11995TIP3   OH257475   0.978   5.704  15.297  0.5026 -0.6076 -0.2601
11995TIP3    H157476   1.049   5.760  15.266 -1.4764  2.5374  0.6772
11995TIP3    H257477   0.992   5.697  15.392  0.6612 -1.6252 -0.3520
11996TIP3   OH257478   1.643   5.147  16.874  0.1484 -0.8493  0.1861
11996TIP3    H157479   1.684   5.062  16.890  0.6508 -0.8326 -0.9781
11996TIP3    H257480   1.596   5.166  16.955 -0.5893 -2.5730  0.1804
11997TIP3   OH257481   0.946   3.028   3.063  0.4967  0.3046  0.5618
11997TIP3    H157482   1.000   3.004   2.987  0.2563  0.2478  0.4108
11997TIP3    H257483   0.979   3.114   3.089  0.1481  0.6076  0.0006
11998TIP3   OH257484   3.288   3.307   6.751  0.4560 -0.0246 -0.7605
11998TIP3    H157485   3.369   3.258   6.734  0.3911 -0.4358  0.1193
11998TIP3    H257486   3.220   3.240   6.759  0.4351  0.1821  0.8467
11999TIP3   OH257487   3.190   4.637  15.788 -0.0859  0.3594 -0.2086
11999TIP3    H157488   3.238   4.562  15.822 -0.5159  0.7990  1.3961
11999TIP3    H257489   3.105   4.634  15.832 -0.7375  0.8060 -1.4223
12000TIP3   OH257490   0.706   4.262   2.699  0.2704  0.0099 -0.5448
12000TIP3    H157491   0.800   4.243   2.699  0.4016  0.6655 -0.6243
12000TIP3    H257492   0.682   4.269   2.792  0.1105 -1.0901 -0.4984
12001TIP3   OH257493   4.857   1.563   1.261 -0.4348  0.1008  0.7422
12001TIP3    H157494   4.900   1.633   1.212  0.6863  0.6285  2.4209
12001TIP3    H257495   4.768   1.595   1.275 -0.7939 -0.0892 -0.9758
12002TIP3   OH257496   2.341   1.179   3.113 -0.0223 -0.0863  1.0070
12002TIP3    H157497   2.411   1.115   3.098 -1.1183 -0.6281 -2.3386
12002TIP3    H257498   2.367   1.256   3.063 -1.3766  0.0144  0.4182
12003TIP3   OH257499   5.871   0.603  15.597  0.1088  0.5347 -0.2335
12003TIP3    H157500   5.796   0.634  15.546  0.1416  0.9586 -0.0198
12003TIP3    H257501   5.925   0.557  15.533 -0.4425  0.0300 -0.3450
12004TIP3   OH257502   3.651   1.915  15.389  0.4616  0.3623 -0.0704
12004TIP3    H157503   3.665   1.974  15.315  0.7789 -1.1498 -1.2528
12004TIP3    H257504   3.716   1.941  15.454 -0.6798  2.5671  0.2420
12005TIP3   OH257505   5.269   0.373   3.874 -0.6423  0.5111 -0.3822
12005TIP3    H157506   5.332   0.403   3.939 -0.8491  1.2375 -0.5111
12005TIP3    H257507   5.293   0.281   3.857  0.3255  0.7592 -0.3758
12006TIP3   OH257508   0.155   5.867  12.428 -0.0211 -0.1279 -0.1075
12006TIP3    H157509   0.070   5.831  12.404 -0.6068  1.7129 -0.8771
12006TIP3    H257510   0.192   5.802  12.488 -3.0784  0.2243  2.3576
12007TIP3   OH257511   4.847   2.025   5.294  0.3154  0.0020  0.3434
12007TIP3    H157512   4.813   1.935   5.286 -0.0955  0.1953 -0.1096
12007TIP3    H257513   4.906   2.035   5.220  1.1778 -0.2459  0.9888
12008TIP3   OH257514   0.941   4.145  15.780 -0.5626  0.1736 -0.0924
12008TIP3    H157515   0.921   4.173  15.691  0.7898 -0.3801 -0.5886
12008TIP3    H257516   0.992   4.217  15.817 -2.3842  1.0533  0.7534
12009TIP3   OH257517   5.271   5.949  15.313  0.0559 -0.4470  0.1890
12009TIP3    H157518   5.294   5.904  15.232 -0.4212 -1.6817  0.7380
12009TIP3    H257519   5.178   5.970  15.303 -0.1380 -1.0978  0.6604
12010TIP3   OH257520   0.148   1.555   0.720  0.3811 -0.1694  0.1038
12010TIP3    H157521   0.129   1.564   0.626  0.3543 -0.7219  0.0522
12010TIP3    H257522   0.151   1.460   0.734  3.3267 -0.1354  0.0648
12011TIP3   OH257523   4.819   5.921   3.880 -0.4319 -0.4140 -0.3250
12011TIP3    H157524   4.760   5.892   3.950 -0.3283 -0.1527 -0.1288
12011TIP3    H257525   4.771   5.991   3.836  0.3281  0.8223  0.7673
12012TIP3   OH257526   2.195   1.038   4.831  0.2996 -0.2908 -0.3129
12012TIP3    H157527   2.118   0.998   4.792  0.5314 -1.4048  0.3571
12012TIP3    H257528   2.166   1.126   4.857 -0.7526 -0.7204 -0.0202
12013TIP3   OH257529   6.295   3.187   6.224 -0.0931  0.0512 -0.2796
12013TIP3    H157530   6.227   3.130   6.188 -1.4069  1.4421 -0.0944
12013TIP3    H257531   6.376   3.137   6.216 -1.0730 -1.4674 -0.9294
12014TIP3   OH257532   1.037   2.707   5.446  0.4173 -0.0035 -0.0536
12014TIP3    H157533   1.078   2.786   5.481  1.6747 -0.2709 -0.8717
12014TIP3    H257534   1.098   2.677   5.379 -0.7772 -0.8435 -0.7755
12015TIP3   OH257535   3.017   6.249  12.934 -0.5934  0.1956  0.3736
12015TIP3    H157536   3.111   6.266  12.940 -0.2759 -0.8396 -1.2718
12015TIP3    H257537   2.976   6.326  12.972  0.9324 -0.0801  2.6729
12016TIP3   OH257538   5.058   0.617  13.798  0.8770  0.7045  0.8495
12016TIP3    H157539   4.968   0.634  13.826  0.2695 -2.6425  1.1509
12016TIP3    H257540   5.090   0.551  13.860  2.2568 -0.8990 -1.5029
12017TIP3   OH257541   4.928   1.950   4.821  0.0139  0.1715 -0.0143
12017TIP3    H157542   4.845   1.970   4.778 -0.0300  1.4643  0.6390
12017TIP3    H257543   4.965   1.877   4.771 -0.8429  0.5273 -1.1660
12018TIP3   OH257544   2.321   6.153  15.597  0.3005 -0.1123 -0.0051
12018TIP3    H157545   2.279   6.147  15.511 -1.5029 -2.0512  0.9595
12018TIP3    H257546   2.403   6.106  15.586 -0.1152 -0.7228 -0.5654
12019TIP3   OH257547   1.003   4.362   5.386 -0.6402 -0.0387 -0.7027
12019TIP3    H157548   1.075   4.328   5.333 -0.2722  1.9926 -1.5504
12019TIP3    H257549   1.014   4.457   5.383 -0.8978  0.1342  2.6340
12020TIP3   OH257550   1.703   4.670  14.572 -0.2795  0.6435  0.5133
12020TIP3    H157551   1.729   4.715  14.492 -0.6562 -1.2321 -0.6871
12020TIP3    H257552   1.607   4.677  14.573 -0.2566  0.9297  0.9717
12021TIP3   OH257553   1.440   4.927   6.223  0.0393  0.0877 -0.1924
12021TIP3    H157554   1.479   5.010   6.253 -0.2303  0.4713 -0.8791
12021TIP3    H257555   1.347   4.947   6.212 -0.3729 -0.8306  1.4563
12022TIP3   OH257556   5.759   6.599  15.766 -0.0983 -0.2376  0.2621
12022TIP3    H157557   5.666   6.608  15.789  0.0506 -0.4601  0.9860
12022TIP3    H257558   5.781   6.510  15.794 -0.0940 -0.7987 -1.4766
12023TIP3   OH257559   0.205   5.485  13.149 -0.7690 -0.3964  0.9398
12023TIP3    H157560   0.178   5.532  13.228  1.6762 -0.0391  1.6334
12023TIP3    H257561   0.207   5.551  13.081  1.4134  0.3081  1.6267
12024TIP3   OH257562   6.031   5.509  12.863 -0.4646  0.4756 -0.1841
12024TIP3    H157563   6.116   5.494  12.822  0.7345  0.5615  2.1927
12024TIP3    H257564   6.035   5.463  12.947 -2.5631  0.9290  0.2136
12025TIP3   OH257565   1.815   6.479   0.340  0.0264 -0.0292  0.3456
12025TIP3    H157566   1.782   6.397   0.377 -0.1828  0.4300  1.1962
12025TIP3    H257567   1.849   6.454   0.254 -2.5368 -0.5003 -0.5646
12026TIP3   OH257568   0.342   3.527  15.102  0.5725 -0.7349  0.2793
12026TIP3    H157569   0.391   3.470  15.162  2.9475 -1.1055 -1.9236
12026TIP3    H257570   0.363   3.615  15.131  0.5772 -0.9151  0.8459
12027TIP3   OH257571   4.279   0.990  14.605  0.3169 -0.3592 -0.0925
12027TIP3    H157572   4.278   0.938  14.685  1.0723 -0.8979 -0.4291
12027TIP3    H257573   4.345   1.057  14.621  0.8440 -0.7883 -0.4653
12028TIP3   OH257574   2.028   2.166   3.304  0.3206  0.5517 -0.3849
12028TIP3    H157575   2.021   2.118   3.387 -1.1231  0.1104 -0.7408
12028TIP3    H257576   2.111   2.136   3.266 -0.0060 -0.8124 -0.0573
12029TIP3   OH257577   3.509   5.618  12.804  0.4658 -0.0037 -0.4629
12029TIP3    H157578   3.484   5.683  12.870  1.6066 -1.7955  1.8004
12029TIP3    H257579   3.493   5.533  12.846  0.3782 -1.1981 -2.8237
12030TIP3   OH257580   2.540   4.406   1.092 -0.1861 -0.4515 -0.0042
12030TIP3    H157581   2.538   4.483   1.035 -0.6469  0.5986  1.4126
12030TIP3    H257582   2.562   4.333   1.033  0.3024  0.7606 -1.3452
12031TIP3   OH257583   2.168   0.267   5.088  0.5298  0.0848 -0.2577
12031TIP3    H157584   2.157   0.351   5.044  2.1994  1.1591  1.2885
12031TIP3    H257585   2.106   0.270   5.161  0.4121 -0.1055 -0.3524
12032TIP3   OH257586   5.839   3.905  16.403  0.0701 -0.3341  0.3202
12032TIP3    H157587   5.781   3.841  16.443 -0.7799 -0.8708 -1.6862
12032TIP3    H257588   5.797   3.989  16.420 -0.6605 -0.6146 -0.0460
12033TIP3   OH257589   3.414   1.198   2.090  0.1870  0.0874 -0.6660
12033TIP3    H157590   3.480   1.204   2.159  0.4773 -0.2076 -0.9202
12033TIP3    H257591   3.379   1.109   2.099  0.9506 -0.3036 -1.5711
12034TIP3   OH257592   1.769   5.283  14.990 -0.3905  0.4742  0.4022
12034TIP3    H157593   1.832   5.210  14.985 -3.4497 -2.1350 -2.6767
12034TIP3    H257594   1.730   5.274  15.077  1.0324 -0.0036  1.0127
12035TIP3   OH257595   6.315   3.750  11.313  0.4606 -0.1014 -0.5144
12035TIP3    H157596   6.358   3.827  11.276  1.6537 -0.4489  0.1249
12035TIP3    H257597   6.258   3.718  11.243 -2.3949  3.0930  0.1985
12036TIP3   OH257598   1.673   2.430   1.990 -0.3168 -0.2106 -0.6305
12036TIP3    H157599   1.732   2.467   2.056 -1.4341 -0.6958  0.6617
12036TIP3    H257600   1.596   2.403   2.040 -1.1595 -0.6203 -2.1414
12037TIP3   OH257601   5.965   2.230  16.399 -0.6574  0.5786 -0.0531
12037TIP3    H157602   5.909   2.210  16.324  0.4951 -1.4104 -0.3912
12037TIP3    H257603   5.982   2.146  16.440  1.8368  1.1982  0.2460
12038TIP3   OH257604   3.373   0.645  16.921  0.5086  0.4334  0.4825
12038TIP3    H157605   3.357   0.560  16.880 -1.9179  0.7350  0.6792
12038TIP3    H257606   3.424   0.694  16.857 -2.7892  0.7450 -2.0591
12039TIP3   OH257607   0.548   1.306   2.262 -0.2707 -0.2800 -0.9435
12039TIP3    H157608   0.600   1.386   2.255  0.2727 -0.6919 -1.6759
12039TIP3    H257609   0.558   1.264   2.177 -0.4484 -1.1949 -0.5162
12040TIP3   OH257610   2.735   5.801   5.773 -0.1681  0.3499  0.9146
12040TIP3    H157611   2.788   5.822   5.850  0.1382 -1.8903  1.3616
12040TIP3    H257612   2.675   5.875   5.764  2.2445  2.3853  1.0755
12041TIP3   OH257613   0.985   0.490  15.646  0.2540 -0.5358 -0.3078
12041TIP3    H157614   0.955   0.401  15.662 -0.4992 -0.7956 -2.9173
12041TIP3    H257615   1.064   0.480  15.591 -0.6376  0.3956 -1.8084
12042TIP3   OH257616   1.788   5.560   1.371  0.6091  0.5584 -0.1576
12042TIP3    H157617   1.755   5.650   1.380  1.5088  0.8155  0.6363
12042TIP3    H257618   1.735   5.509   1.433  2.1162  1.0894  1.6114
12043TIP3   OH257619   5.039   2.457  14.806 -0.4034 -0.0504 -0.2249
12043TIP3    H157620   5.080   2.502  14.880 -0.8577 -0.5525  0.3346
12043TIP3    H257621   5.006   2.376  14.843 -1.0952 -0.0657 -0.8707
12044TIP3   OH257622   3.532   6.258  13.742 -0.3029  0.1822 -0.2489
12044TIP3    H157623   3.489   6.175  13.759  0.6915 -0.6084 -1.4420
12044TIP3    H257624   3.543   6.260  13.646  1.2329  0.8830 -0.0762
12045TIP3   OH257625   4.237   1.240   3.186  0.3987  0.8237 -0.2947
12045TIP3    H157626   4.199   1.328   3.182  1.3576  1.2066 -1.2200
12045TIP3    H257627   4.162   1.182   3.186 -0.2092  1.5992 -1.1650
12046TIP3   OH257628   3.862   2.990   3.316  0.1038 -0.0236 -0.2197
12046TIP3    H157629   3.908   2.907   3.333 -0.6649 -0.3435  0.3088
12046TIP3    H257630   3.820   3.011   3.399  0.3998  0.9738 -0.3159
12047TIP3   OH257631   2.088   2.694   3.639 -0.0488 -0.0586 -0.1512
12047TIP3    H157632   2.118   2.772   3.591  1.2027 -1.2374 -1.3347
12047TIP3    H257633   2.014   2.661   3.588  0.8942 -0.9601 -0.9625
12048TIP3   OH257634   2.057   3.239  14.973 -0.3768  0.1281  0.2731
12048TIP3    H157635   2.029   3.236  15.064 -1.2468 -0.5992 -0.0119
12048TIP3    H257636   2.096   3.326  14.963  1.3946 -0.4624  1.8131
12049TIP3   OH257637   5.915   5.343   1.583 -0.5849 -0.0194  0.2355
12049TIP3    H157638   5.899   5.419   1.639 -3.3827  0.2044 -0.7935
12049TIP3    H257639   5.929   5.270   1.644 -0.2529  0.8395  1.2025
12050TIP3   OH257640   3.514   4.904   2.197  0.1714  0.3026  0.7848
12050TIP3    H157641   3.423   4.894   2.226 -0.0154  0.0426  0.0982
12050TIP3    H257642   3.562   4.925   2.278 -0.0122 -2.4820  1.6670
12051TIP3   OH257643   4.334   3.399   5.356 -0.1783  0.1530  0.4760
12051TIP3    H157644   4.414   3.431   5.397 -0.2336 -0.7813  1.3194
12051TIP3    H257645   4.277   3.373   5.429 -1.3055  0.9027 -0.1072
12052TIP3   OH257646   3.071   3.418  15.356 -0.0735 -0.2079 -0.0391
12052TIP3    H157647   3.004   3.405  15.289 -1.0311  0.7682  0.6929
12052TIP3    H257648   3.051   3.352  15.423  0.1051 -0.3592 -0.1362
12053TIP3   OH257649   0.226   2.965  16.864 -0.3350 -0.6268 -0.4863
12053TIP3    H157650   0.130   2.962  16.862 -0.3164 -1.9764  0.0420
12053TIP3    H257651   0.253   2.918  16.785 -0.1138  1.1861 -1.5006
12054TIP3   OH257652   1.320   5.432   3.136 -0.5351 -0.2575  0.4528
12054TIP3    H157653   1.260   5.414   3.208  0.6335  0.6169  1.6603
12054TIP3    H257654   1.355   5.346   3.112  0.7118 -0.3041  2.3834
12055TIP3   OH257655   1.428   4.360  13.729 -0.0362 -0.1769  0.4117
12055TIP3    H157656   1.486   4.295  13.689  0.7734 -0.5354  2.1309
12055TIP3    H257657   1.483   4.437  13.741 -0.8992  0.7406 -1.2857
12056TIP3   OH257658   2.258   4.107  12.092  0.0328 -0.0217 -0.3982
12056TIP3    H157659   2.225   4.036  12.148 -0.6075  0.6065  0.0246
12056TIP3    H257660   2.231   4.082  12.003  0.9071 -0.9386 -0.4156
12057TIP3   OH257661   2.672   5.019   0.495  0.2321 -0.3723 -0.2649
12057TIP3    H157662   2.690   5.041   0.586  0.0900 -0.4915 -0.2083
12057TIP3    H257663   2.758   5.019   0.453  0.2813 -0.1550 -0.1679
12058TIP3   OH257664   6.459   0.578  10.118 -0.3887 -0.1761 -0.1177
12058TIP3    H157665   6.518   0.502  10.122  0.0940  0.2585  1.7237
12058TIP3    H257666   6.382   0.546  10.072  0.4766 -1.3340 -0.7814
12059TIP3   OH257667   1.565   3.529  11.958  0.7708  0.4760  0.0610
12059TIP3    H157668   1.477   3.565  11.947  0.7612  0.4434  0.0324
12059TIP3    H257669   1.604   3.583  12.027  1.4205  1.7535 -1.2793
12060TIP3   OH257670   1.627   1.440   0.087  0.2091 -0.0089 -0.5250
12060TIP3    H157671   1.648   1.530   0.064  0.3429 -0.3773 -1.9234
12060TIP3    H257672   1.705   1.407   0.132  0.1687  0.5556 -0.0413
12061TIP3   OH257673   5.523   0.824  11.241 -0.6389  0.0940 -0.4287
12061TIP3    H157674   5.503   0.764  11.169 -2.4524  0.9194 -0.6428
12061TIP3    H257675   5.460   0.803  11.309  0.6780 -0.2697  0.7000
12062TIP3   OH257676   1.732   6.205   5.647 -0.4732  0.0652  0.3051
12062TIP3    H157677   1.736   6.204   5.743  2.4508  1.1666  0.2558
12062TIP3    H257678   1.767   6.120   5.621  2.3244  1.1890  0.2077
12063TIP3   OH257679   1.302   6.282  11.837 -0.4361  0.1874 -0.4370
12063TIP3    H157680   1.342   6.199  11.861  0.9135  0.4335 -1.7997
12063TIP3    H257681   1.348   6.348  11.889  0.4082  0.3816 -1.4161
12064TIP3   OH257682   1.365   1.235  13.047 -0.7158 -0.0119 -0.1420
12064TIP3    H157683   1.451   1.276  13.045  0.1449 -1.8479 -1.1104
12064TIP3    H257684   1.327   1.255  12.961 -1.0210  0.2602  0.0515
12065TIP3   OH257685   1.542   4.432   3.856 -0.5086  0.4649 -0.0471
12065TIP3    H157686   1.539   4.488   3.779 -1.7881 -0.5414 -0.7537
12065TIP3    H257687   1.539   4.343   3.821 -1.1268 -0.0033  1.1622
12066TIP3   OH257688   6.192   4.155   3.253  0.1992  0.1916 -0.2191
12066TIP3    H157689   6.129   4.137   3.183  0.2600  1.5855 -0.6552
12066TIP3    H257690   6.195   4.074   3.304 -1.8922  0.0662 -0.2446
12067TIP3   OH257691   5.483   0.560   4.594 -0.1302  0.0393 -0.2516
12067TIP3    H157692   5.545   0.491   4.618  0.8777  1.6106  1.8703
12067TIP3    H257693   5.413   0.551   4.659 -0.2564  0.6434 -0.3036
12068TIP3   OH257694   2.381   2.188   1.620 -0.3959  0.7902  0.7780
12068TIP3    H157695   2.436   2.257   1.658  1.5645  1.1812 -2.5231
12068TIP3    H257696   2.353   2.224   1.536 -1.2849 -1.5426  0.0474
12069TIP3   OH257697   0.627   0.928  11.797 -0.6549 -0.4098 -0.0963
12069TIP3    H157698   0.590   0.939  11.709 -0.3851 -0.4758 -0.2194
12069TIP3    H257699   0.552   0.936  11.856 -1.0254 -1.5436 -0.4047
12070TIP3   OH257700   4.753   4.131   6.483 -0.0050 -0.5197 -0.3096
12070TIP3    H157701   4.837   4.175   6.477 -0.5396  0.2922 -1.9786
12070TIP3    H257702   4.736   4.126   6.578 -0.4335  3.8659 -0.0312
12071TIP3   OH257703   3.897   4.648  13.488  0.0330  0.6459  0.1863
12071TIP3    H157704   3.949   4.587  13.435 -0.9510 -1.2024  1.3050
12071TIP3    H257705   3.961   4.711  13.521  1.3138 -0.5797  0.1147
12072TIP3   OH257706   0.762   6.729  16.986 -0.3996 -0.7759 -0.0109
12072TIP3    H157707   0.811   6.653  17.019 -0.2283 -0.7447 -0.1974
12072TIP3    H257708   0.759   6.717  16.891 -0.9585 -0.8992  0.0160
12073TIP3   OH257709   3.823   0.430  11.705  0.0039 -0.5756  0.1346
12073TIP3    H157710   3.749   0.450  11.763 -1.0998  2.8721 -2.2602
12073TIP3    H257711   3.900   0.435  11.761 -1.2047  0.7130  1.7277
12074TIP3   OH257712   3.619   5.828   4.213  0.3721 -0.0102 -0.1133
12074TIP3    H157713   3.618   5.835   4.118 -1.2918  2.8695  0.0517
12074TIP3    H257714   3.538   5.781   4.235  1.4756 -1.9805 -0.1617
12075TIP3   OH257715   6.418   2.691   0.198 -0.7593 -0.4796  0.5347
12075TIP3    H157716   6.451   2.616   0.247 -0.4699 -1.1034 -0.6069
12075TIP3    H257717   6.483   2.707   0.131 -2.9402 -1.9884 -2.0220
12076TIP3   OH257718   4.295   2.648  14.968 -0.1552 -0.2264 -0.1595
12076TIP3    H157719   4.303   2.584  14.897  0.3827 -0.6261  0.2524
12076TIP3    H257720   4.240   2.606  15.033 -0.1220 -0.1161 -0.0578
12077TIP3   OH257721   5.230   5.481  16.986 -0.1685 -0.2972 -0.1320
12077TIP3    H157722   5.257   5.559  17.034  1.1459 -0.5248 -0.4826
12077TIP3    H257723   5.230   5.509  16.894  0.5814 -0.7909 -0.2825
12078TIP3   OH257724   1.582   5.418  10.247  0.9914  0.1018  0.1963
12078TIP3    H157725   1.548   5.331  10.223 -0.0177 -0.5967  3.8218
12078TIP3    H257726   1.524   5.479  10.202 -0.8410 -1.1219  0.8026
12079TIP3   OH257727   2.854   2.137  15.219 -0.2279  0.6647 -0.6023
12079TIP3    H157728   2.939   2.136  15.262 -0.4045  0.6166 -0.2537
12079TIP3    H257729   2.842   2.228  15.191 -0.4841  0.8787  0.1925
12080TIP3   OH257730   6.813   6.741   2.584  0.0477 -0.1608 -0.2803
12080TIP3    H157731   6.822   6.647   2.567  2.0705  0.2488 -1.6895
12080TIP3    H257732   6.744   6.747   2.650 -0.1138 -2.6347 -0.1704
12081TIP3   OH257733   3.665   4.691  13.298  0.1457  0.0547  0.0855
12081TIP3    H157734   3.732   4.694  13.367 -0.7749  0.4231  0.9741
12081TIP3    H257735   3.630   4.780  13.295 -2.5964 -0.8831  1.9394
12082TIP3   OH257736   5.420   4.932   0.080  0.1837  0.1772 -0.6386
12082TIP3    H157737   5.438   5.001   0.144  1.0809  0.6967 -1.4230
12082TIP3    H257738   5.411   4.852   0.132  1.2005  0.5355  0.1145
12083TIP3   OH257739   4.542   5.311   6.069  0.0573  0.6081 -0.4757
12083TIP3    H157740   4.545   5.347   5.980 -0.2466 -1.9996 -1.5921
12083TIP3    H257741   4.449   5.294   6.085  0.1158  1.0349  0.3396
12084TIP3   OH257742   3.702   3.568   2.258  0.2032 -0.6541  0.1452
12084TIP3    H157743   3.617   3.596   2.293  0.7849  2.3088 -0.6732
12084TIP3    H257744   3.765   3.592   2.327  0.8377  1.0407 -1.0041
12085TIP3   OH257745   6.313   1.648   5.785  0.0856  0.1217 -0.2469
12085TIP3    H157746   6.242   1.621   5.843  0.2244  1.0187  0.3520
12085TIP3    H257747   6.390   1.655   5.843  0.8294 -1.5260 -1.0073
12086TIP3   OH257748   0.765   2.188  15.702 -0.0933  0.2634 -0.6559
12086TIP3    H157749   0.678   2.199  15.662 -1.1196 -0.8516  1.1986
12086TIP3    H257750   0.758   2.232  15.786  0.7544 -0.8822  0.0202
12087TIP3   OH257751   4.411   1.989   1.781  0.1816 -0.0912  0.6308
12087TIP3    H157752   4.407   2.083   1.762 -0.6596  0.0829  1.6557
12087TIP3    H257753   4.351   1.950   1.718 -1.5562  0.3497  1.9666
12088TIP3   OH257754   1.156   6.672  12.436  0.1584 -0.7720  0.4225
12088TIP3    H157755   1.243   6.635  12.428 -0.1830 -1.3438 -0.8904
12088TIP3    H257756   1.106   6.607  12.485 -0.0193 -1.3215 -0.4764
12089TIP3   OH257757   4.393   4.637   4.564 -0.5524  0.5066 -0.0366
12089TIP3    H157758   4.422   4.547   4.547 -0.2199  0.7629 -0.8281
12089TIP3    H257759   4.403   4.682   4.481  0.3530  1.5836  0.6407
12090TIP3   OH257760   5.126   1.445  12.024 -0.3872  0.0290 -0.7607
12090TIP3    H157761   5.213   1.407  12.020 -0.1106  0.7705 -2.1271
12090TIP3    H257762   5.119   1.482  12.112 -0.0293 -1.6617 -0.0088
12091TIP3   OH257763   2.680   3.300  14.227 -0.2830  0.1196  0.6711
12091TIP3    H157764   2.654   3.259  14.309 -0.9806  1.8501  1.3326
12091TIP3    H257765   2.614   3.272  14.164 -0.1803 -0.5787  0.8645
12092TIP3   OH257766   0.259   1.340  11.207 -0.3882  0.3263  0.9530
12092TIP3    H157767   0.167   1.318  11.193 -0.0626 -0.6112  0.1760
12092TIP3    H257768   0.301   1.255  11.224  0.8240  0.3791 -1.5587
12093TIP3   OH257769   1.460   1.951   0.977  0.7781  0.1029 -0.4437
12093TIP3    H157770   1.484   1.861   0.953  0.0813 -0.2580  0.1782
12093TIP3    H257771   1.430   1.944   1.067 -0.0928  0.8136 -0.6705
12094TIP3   OH257772   6.517   5.009   3.174 -0.2394 -0.5561 -0.2326
12094TIP3    H157773   6.534   5.093   3.218 -0.4401 -0.4479 -0.3616
12094TIP3    H257774   6.556   5.020   3.087  0.4963 -0.9059  0.0511
12095TIP3   OH257775   3.494   0.797   4.517 -0.1901  0.1628 -0.4675
12095TIP3    H157776   3.534   0.789   4.430 -0.2322  4.5205 -0.9904
12095TIP3    H257777   3.405   0.827   4.499 -1.4284 -2.4796  0.9936
12096TIP3   OH257778   2.240   0.570  17.043  0.3013 -0.3817 -0.7365
12096TIP3    H157779   2.307   0.503  17.057  0.0474 -0.5420 -0.2717
12096TIP3    H257780   2.157   0.522  17.047 -0.0363  0.4084  2.4722
12097TIP3   OH257781   2.359   2.761  16.116 -0.9934  0.1655  0.4969
12097TIP3    H157782   2.442   2.735  16.076 -0.1975  1.8541  0.9772
12097TIP3    H257783   2.336   2.688  16.173 -0.0104 -0.4834  0.0834
12098TIP3   OH257784   6.086   3.138  11.384  0.4213 -0.4583  0.1499
12098TIP3    H157785   6.042   3.094  11.456  0.2360  1.3051  1.1321
12098TIP3    H257786   6.016   3.176  11.331  0.5610 -1.6294 -0.9113
12099TIP3   OH257787   6.500   2.404   3.425 -0.5530 -0.5846 -0.4960
12099TIP3    H157788   6.595   2.410   3.437 -0.8954  0.0374  2.0591
12099TIP3    H257789   6.485   2.438   3.336  1.3411  1.8094  0.0583
12100TIP3   OH257790   5.028   5.094  12.702  0.3154  0.3682 -0.1933
12100TIP3    H157791   4.949   5.100  12.755  0.7607  1.4641  0.3553
12100TIP3    H257792   5.024   5.006  12.664 -0.6715  0.0563  0.5971
12101TIP3   OH257793   5.085   5.739  15.397  0.5004  0.2100 -0.3560
12101TIP3    H157794   5.088   5.680  15.472 -0.4386  0.5828 -0.0178
12101TIP3    H257795   5.162   5.795  15.408  0.5078  0.0981  0.1885
12102TIP3   OH257796   5.199   0.959  15.966 -0.3184  0.4820  0.3892
12102TIP3    H157797   5.278   0.917  15.931 -2.6122 -2.0820 -1.9841
12102TIP3    H257798   5.206   1.050  15.938  0.8923 -0.1412 -1.4827
12103TIP3   OH257799   6.809   1.589   0.953 -0.5038  0.5089  0.2251
12103TIP3    H157800   6.885   1.585   0.894  0.2943  2.5765  1.0663
12103TIP3    H257801   6.846   1.572   1.040 -1.4597 -1.1228  0.3432
12104TIP3   OH257802   4.505   4.496  10.427  0.0519 -0.4612  0.3969
12104TIP3    H157803   4.418   4.517  10.461 -0.1341 -0.5470 -0.0218
12104TIP3    H257804   4.513   4.401  10.441  0.0876 -0.4477  0.4664
12105TIP3   OH257805   0.793   1.074  16.282  0.2389  0.1258 -0.3795
12105TIP3    H157806   0.815   1.115  16.198 -0.5801 -0.3563 -0.8491
12105TIP3    H257807   0.784   0.981  16.260  0.9975 -0.1388  0.4468
12106TIP3   OH257808   1.716   6.201  10.995 -0.3391 -0.0668  0.2438
12106TIP3    H157809   1.634   6.184  11.041 -0.1940 -0.7888  0.2469
12106TIP3    H257810   1.784   6.175  11.057 -0.1609 -2.1714 -0.7921
12107TIP3   OH257811   4.903   0.936  16.412  0.2616 -0.4891  0.0807
12107TIP3    H157812   4.891   0.999  16.340  1.7939 -0.2716  0.0038
12107TIP3    H257813   4.958   0.867  16.374  1.9639  0.1551  1.3502
12108TIP3   OH257814   4.342   3.316   6.490  0.5551 -0.4875  0.2871
12108TIP3    H157815   4.398   3.255   6.442  0.7092  0.2099 -0.4392
12108TIP3    H257816   4.276   3.261   6.532  2.0863 -1.3931  1.6005
12109TIP3   OH257817   1.002   1.134  13.943 -0.2482 -0.3922 -0.2818
12109TIP3    H157818   1.085   1.136  13.990 -1.3338  1.1359  1.6469
12109TIP3    H257819   0.979   1.227  13.930 -2.1981 -0.7710  0.2265
12110TIP3   OH257820   1.342   0.237  13.771  0.2769 -0.0346 -0.2567
12110TIP3    H157821   1.396   0.282  13.836  0.4654 -1.5422  0.6535
12110TIP3    H257822   1.255   0.274  13.783  0.4462  0.1582  0.4288
12111TIP3   OH257823   4.415   3.728   0.879 -0.0362 -0.1196  0.0530
12111TIP3    H157824   4.478   3.771   0.820 -0.5392 -0.4215 -0.7066
12111TIP3    H257825   4.335   3.779   0.870  0.1141  0.3088  1.0810
12112TIP3   OH257826   0.260   4.489  14.543  0.0849  0.3248  0.2698
12112TIP3    H157827   0.170   4.483  14.512  0.5018  0.7721 -1.0389
12112TIP3    H257828   0.297   4.403  14.526  0.3724  0.6312 -0.6699
12113TIP3   OH257829   4.292   6.465  15.160  0.2838 -0.4412 -0.0348
12113TIP3    H157830   4.347   6.513  15.098  0.4638 -0.0860  0.3908
12113TIP3    H257831   4.346   6.459  15.239 -0.1755 -0.3550  0.2874
12114TIP3   OH257832   5.616   3.026  16.177  0.8968  0.0771  0.5117
12114TIP3    H157833   5.605   3.044  16.083 -1.2857 -0.8958  0.5521
12114TIP3    H257834   5.579   3.103  16.220 -1.1741 -0.9441  0.5944
12115TIP3   OH257835   4.942   2.366  16.319 -0.6838  0.2022  0.1187
12115TIP3    H157836   4.907   2.451  16.346  0.5162  0.3512  1.2657
12115TIP3    H257837   4.875   2.303  16.345 -0.8359  0.6374  0.8000
12116TIP3   OH257838   1.378   5.190   4.500  0.3164 -0.2195 -0.5357
12116TIP3    H157839   1.463   5.151   4.522  0.9227  1.5026  0.2563
12116TIP3    H257840   1.399   5.258   4.436 -0.6109 -0.5305 -1.1801
12117TIP3   OH257841   5.157   1.049  12.011 -0.0685 -0.4788  0.3148
12117TIP3    H157842   5.245   1.055  11.975 -0.7712 -1.5111 -1.6118
12117TIP3    H257843   5.163   1.094  12.096  1.6218  1.9473 -1.0143
12118TIP3   OH257844   3.882   0.536   1.979  0.4825 -0.3567 -0.3916
12118TIP3    H157845   3.803   0.589   1.968 -0.9574 -2.2833  0.2805
12118TIP3    H257846   3.954   0.596   1.963 -1.1174  1.5232 -0.7264
12119TIP3   OH257847   6.081   3.365   3.738  0.0801  0.6028 -0.3390
12119TIP3    H157848   6.108   3.454   3.713  1.8781  0.3682  0.6123
12119TIP3    H257849   6.117   3.355   3.827  0.1407 -1.1756 -0.5666
12120TIP3   OH257850   4.131   1.735   2.272  0.6199 -0.0580  0.2431
12120TIP3    H157851   4.226   1.745   2.273  1.4311 -5.8100  0.0493
12120TIP3    H257852   4.110   1.689   2.353 -1.8719  0.0678 -0.2723
12121TIP3   OH257853   4.242   2.263  13.566 -0.2682 -0.2571  0.2892
12121TIP3    H157854   4.157   2.300  13.588 -0.1480  1.6333 -2.1580
12121TIP3    H257855   4.304   2.333  13.587  0.4655 -0.8050 -0.0284
12122TIP3   OH257856   2.237   3.571   6.523  0.2381  0.3045  0.2374
12122TIP3    H157857   2.157   3.540   6.565  0.5420 -0.1933  0.4552
12122TIP3    H257858   2.307   3.518   6.562  0.6287  0.4624 -0.2386
12123TIP3   OH257859   5.971   4.336  16.806  0.3722  0.3928  0.0582
12123TIP3    H157860   5.930   4.258  16.768  0.4668  1.4489 -2.3102
12123TIP3    H257861   6.057   4.307  16.834 -0.3762 -0.8421  1.1675
12124TIP3   OH257862   5.447   3.001  14.816  0.4980 -0.4692 -0.1313
12124TIP3    H157863   5.516   2.962  14.763  1.7297 -0.4074  1.3860
12124TIP3    H257864   5.366   2.978  14.771  1.4037 -1.9102 -1.0656
12125TIP3   OH257865   2.577   6.528   3.582 -0.4416  0.1230 -0.0343
12125TIP3    H157866   2.518   6.580   3.637  0.2688  0.5796  0.3032
12125TIP3    H257867   2.620   6.468   3.643 -0.1121  0.1999 -0.1935
12126TIP3   OH257868   6.159   5.269  13.369  0.2808  0.2564 -0.3280
12126TIP3    H157869   6.089   5.329  13.394  1.5664  3.2029 -3.3627
12126TIP3    H257870   6.143   5.251  13.276  0.5287 -3.3812  0.2624
12127TIP3   OH257871   2.653   1.159  11.726  0.5458 -0.1760 -0.1770
12127TIP3    H157872   2.582   1.110  11.685 -0.8237  1.6393 -0.0096
12127TIP3    H257873   2.637   1.250  11.702  1.3921  0.5635  1.9139
12128TIP3   OH257874   5.962   4.088   3.094  0.1511  0.2515  0.2091
12128TIP3    H157875   5.948   4.021   3.028 -0.6182  0.8836 -0.2826
12128TIP3    H257876   5.966   4.170   3.045 -0.3537  0.7190  0.9209
12129TIP3   OH257877   3.989   0.364  13.507  0.5444 -0.2462  0.0264
12129TIP3    H157878   3.953   0.442  13.463  1.3409 -0.2623 -0.6697
12129TIP3    H257879   3.976   0.382  13.600  0.3325  0.5328 -0.1432
12130TIP3   OH257880   3.202   1.626   2.511 -0.8321 -0.0582  0.3915
12130TIP3    H157881   3.170   1.714   2.532 -0.6609 -0.0807  0.7416
12130TIP3    H257882   3.290   1.623   2.548 -1.0663 -0.5870  0.9067
12131TIP3   OH257883   5.529   5.298  13.254 -0.0791  0.1299 -0.1412
12131TIP3    H157884   5.531   5.307  13.349  1.0618  0.7669 -0.2172
12131TIP3    H257885   5.535   5.387  13.221  2.1890 -0.2234 -0.8170
12132TIP3   OH257886   6.289   2.353  11.624  0.2076  0.4641  0.5549
12132TIP3    H157887   6.356   2.366  11.692 -1.2576 -1.1636  2.3581
12132TIP3    H257888   6.206   2.372  11.668 -1.1289 -4.4496  0.4241
12133TIP3   OH257889   0.148   2.634  12.706  0.2247 -0.2080 -0.0760
12133TIP3    H157890   0.105   2.719  12.716 -1.3168 -1.0212  0.2078
12133TIP3    H257891   0.125   2.605  12.618 -1.3512 -1.4795  0.7284
12134TIP3   OH257892   4.825   0.670   0.030  0.2511  0.0884  0.4561
12134TIP3    H157893   4.747   0.648  -0.021  0.0128 -1.5169  1.4938
12134TIP3    H257894   4.873   0.732  -0.025 -0.5113 -0.8327 -1.2747
12135TIP3   OH257895   3.561   1.227   3.999 -0.0633  0.2827 -0.8575
12135TIP3    H157896   3.656   1.227   4.014 -0.3060 -0.9533  0.8456
12135TIP3    H257897   3.525   1.271   4.076 -0.7192  3.3275 -2.8438
12136TIP3   OH257898   0.305   0.449  16.017 -0.0799  0.3383  0.1965
12136TIP3    H157899   0.355   0.402  16.084  2.2929  0.5922 -1.3341
12136TIP3    H257900   0.255   0.381  15.971  1.3215 -0.3621 -0.3143
12137TIP3   OH257901   3.294   0.028   3.181  0.0036  0.4228  0.1288
12137TIP3    H157902   3.372   0.084   3.181 -0.0235  0.4606 -0.0922
12137TIP3    H257903   3.320  -0.050   3.132  0.6802 -0.6578  2.1469
12138TIP3   OH257904   1.520   6.537   3.100 -0.2588  0.4148  0.2260
12138TIP3    H157905   1.585   6.536   3.171 -0.1153 -0.7100  0.0810
12138TIP3    H257906   1.437   6.556   3.145 -0.0669  0.3632  0.6060
12139TIP3   OH257907   4.554   6.044  16.037  0.0678 -0.2235 -0.2036
12139TIP3    H157908   4.579   5.987  15.963  0.0719  0.4777 -0.7464
12139TIP3    H257909   4.480   6.095  16.004 -0.9335 -0.9937  0.8034
12140TIP3   OH257910   1.431   6.297   2.916  0.8102 -0.1249  0.0121
12140TIP3    H157911   1.505   6.350   2.885  0.5634  0.9500  1.2099
12140TIP3    H257912   1.354   6.347   2.889  0.5237 -1.0790 -0.9448
12141TIP3   OH257913   4.468   4.883   0.131 -0.0753 -0.0035 -0.1094
12141TIP3    H157914   4.426   4.968   0.116 -1.7115 -0.7245  0.2505
12141TIP3    H257915   4.435   4.828   0.060 -3.4227 -1.8611  2.7409
12142TIP3   OH257916   0.363   5.134   6.162 -0.7256 -0.2286  0.1532
12142TIP3    H157917   0.320   5.209   6.201 -3.0910 -1.7565  0.5502
12142TIP3    H257918   0.420   5.172   6.094 -3.2407  1.7957 -0.8907
12143TIP3   OH257919   6.794   4.901  15.487 -0.5213  0.1073 -0.0921
12143TIP3    H157920   6.870   4.957  15.504 -1.2229  1.0220  0.0893
12143TIP3    H257921   6.794   4.889  15.393  0.8470 -1.3357  0.0833
12144TIP3   OH257922   3.768   4.868  16.904 -0.1201 -0.1960 -0.3865
12144TIP3    H157923   3.673   4.865  16.907 -0.1223  0.1603 -0.0714
12144TIP3    H257924   3.789   4.918  16.825 -0.1910 -0.6126 -0.6699
12145TIP3   OH257925   6.268   2.947   5.196  0.5569 -0.1151 -0.1669
12145TIP3    H157926   6.354   2.986   5.177  0.4661 -0.5732 -1.5116
12145TIP3    H257927   6.286   2.883   5.264  1.1585  0.3209  0.0923
12146TIP3   OH257928   2.229   6.519  15.677 -0.4444  0.1844  0.3381
12146TIP3    H157929   2.188   6.603  15.658  0.5194  0.2458 -1.5256
12146TIP3    H257930   2.255   6.484  15.592 -2.2166 -2.7393  0.9199
12147TIP3   OH257931   5.108   0.438   1.029 -0.6768 -0.1134  0.1892
12147TIP3    H157932   5.100   0.342   1.031 -2.3830 -0.0255 -1.1706
12147TIP3    H257933   5.131   0.462   1.119 -1.0727 -1.7468  0.7452
12148TIP3   OH257934   6.422   1.698   4.466  0.2589 -0.8950  0.1244
12148TIP3    H157935   6.446   1.725   4.554 -1.1697 -1.7534  0.7974
12148TIP3    H257936   6.412   1.780   4.417 -2.0944 -0.2427  1.6182
12149TIP3   OH257937   4.279   4.977  16.788 -0.6534  0.2167  0.3484
12149TIP3    H157938   4.260   4.922  16.864 -2.0068 -0.4715 -0.4771
12149TIP3    H257939   4.372   4.998  16.797 -0.1659 -2.0150  0.7845
12150TIP3   OH257940   1.741   5.557  12.072  0.1556 -0.1707 -0.0402
12150TIP3    H157941   1.698   5.642  12.086 -0.9741 -1.1662  2.7990
12150TIP3    H257942   1.833   5.578  12.059 -0.0833  1.4871  0.8460
12151TIP3   OH257943   1.748   6.461  16.401  0.1262 -0.7312  0.2080
12151TIP3    H157944   1.765   6.545  16.443 -3.0396 -0.2005  0.5602
12151TIP3    H257945   1.698   6.482  16.322  0.3555 -2.1901 -0.3486
12152TIP3   OH257946   4.338   6.182  12.555  0.3988 -0.0028 -0.3081
12152TIP3    H157947   4.420   6.131  12.559  0.1301 -0.6236 -2.5154
12152TIP3    H257948   4.272   6.123  12.590  0.7010  0.1649  0.5842
12153TIP3   OH257949   0.343   6.480  12.424 -0.3037  0.5263  0.2820
12153TIP3    H157950   0.288   6.549  12.462 -0.3169 -0.3242  1.8570
12153TIP3    H257951   0.410   6.464  12.491  2.1396  1.8127 -1.7471
12154TIP3   OH257952   4.929   0.934  14.022  0.2069 -0.3078  0.2825
12154TIP3    H157953   4.977   1.014  14.042  0.7822 -0.8846  1.2843
12154TIP3    H257954   4.989   0.883  13.968  0.0015 -0.2328 -0.0137
12155TIP3   OH257955   3.253   4.537  13.104 -0.0022 -0.0005 -0.1200
12155TIP3    H157956   3.322   4.517  13.167 -0.8394 -0.4555  0.6684
12155TIP3    H257957   3.294   4.598  13.042  0.8519  0.4178  0.8332
12156TIP3   OH257958   3.513   6.681   0.035  0.5638  0.2506  0.9748
12156TIP3    H157959   3.497   6.620  -0.037 -1.5747  0.0120  1.6081
12156TIP3    H257960   3.483   6.766   0.003  1.7239  0.5896  0.7825
12157TIP3   OH257961   0.226   0.865  16.659 -0.0329 -0.6940  0.1329
12157TIP3    H157962   0.307   0.895  16.701 -0.0006  0.6600 -0.8762
12157TIP3    H257963   0.255   0.828  16.576 -0.4743  0.1079 -0.3827
12158TIP3   OH257964   3.827   3.368   5.025 -0.0837 -0.5660  0.2326
12158TIP3    H157965   3.871   3.305   5.082 -1.1514  0.0265  1.7572
12158TIP3    H257966   3.740   3.380   5.064 -0.8278 -0.1029 -1.5026
12159TIP3   OH257967   4.509   5.350  13.336  0.5911  0.5071  0.4027
12159TIP3    H157968   4.509   5.326  13.243 -1.4511  1.9932 -0.0144
12159TIP3    H257969   4.585   5.406  13.346  1.1020 -0.0596 -0.2642
12160TIP3   OH257970   1.385   4.698   0.575  0.2147  0.2023  0.3949
12160TIP3    H157971   1.475   4.677   0.601 -0.0060 -0.2377  0.8117
12160TIP3    H257972   1.395   4.749   0.494  0.8147 -0.2876  0.1532
12161TIP3   OH257973   4.221   2.353  12.460 -0.0120 -0.1236 -0.2340
12161TIP3    H157974   4.248   2.286  12.523  0.1223  1.0524  0.9797
12161TIP3    H257975   4.127   2.339  12.448  0.0994 -0.7999 -0.3047
12162TIP3   OH257976   1.033   2.926  16.718  0.1674 -0.0764 -0.1276
12162TIP3    H157977   1.065   2.910  16.630  0.4839 -0.5811  0.0782
12162TIP3    H257978   0.967   2.858  16.732 -2.7685  2.3727 -1.4352
12163TIP3   OH257979   3.511   3.631  17.104 -1.0005  0.1998  0.4812
12163TIP3    H157980   3.462   3.557  17.067 -0.4403 -0.2930  0.7219
12163TIP3    H257981   3.481   3.635  17.195 -0.0020 -0.6052  0.8491
12164TIP3   OH257982   2.590   4.831  11.835  0.1646  0.1703 -0.2758
12164TIP3    H157983   2.506   4.869  11.860  0.1958 -0.2357  0.4487
12164TIP3    H257984   2.655   4.889  11.874  0.2168 -0.0212 -0.0785
12165TIP3   OH257985   0.831   0.808   6.086 -0.0309  0.0344  0.0527
12165TIP3    H157986   0.756   0.849   6.043  0.0259  0.3015  0.2049
12165TIP3    H257987   0.834   0.719   6.050 -1.5936 -0.6342  1.4658
12166TIP3   OH257988   2.253   1.488  12.440 -0.2068  0.3207 -0.4397
12166TIP3    H157989   2.271   1.400  12.472 -1.2384  0.0880 -0.4770
12166TIP3    H257990   2.270   1.545  12.515 -0.6820 -0.0301 -0.0660
12167TIP3   OH257991   2.712   4.540  16.656 -1.0416 -0.6654 -0.1572
12167TIP3    H157992   2.783   4.558  16.717 -1.4365 -1.0666  0.4215
12167TIP3    H257993   2.695   4.446  16.665 -0.7258 -0.8348 -1.2888
12168TIP3   OH257994   3.825   1.573   2.248  0.2464  0.5316  0.0591
12168TIP3    H157995   3.744   1.522   2.257  1.4292 -1.3312  0.5919
12168TIP3    H257996   3.895   1.507   2.256  1.7702  1.6578 -3.3322
12169TIP3   OH257997   0.530   4.043   4.986  0.6375  0.3171  0.3096
12169TIP3    H157998   0.500   4.133   4.995 -0.5478 -0.1607  1.4527
12169TIP3    H257999   0.557   4.035   4.895  0.5641  1.7674  0.1528
12170TIP3   OH258000   4.063   5.889  16.837 -0.0832  0.2956 -0.6532
12170TIP3    H158001   4.096   5.803  16.862  0.5247  0.9014  0.7270
12170TIP3    H258002   3.972   5.890  16.868 -0.3898 -0.1953 -1.5320
12171TIP3   OH258003   2.276   1.498   5.587 -0.3570  0.3233  0.3764
12171TIP3    H158004   2.290   1.474   5.495  0.5794 -0.2022  0.6464
12171TIP3    H258005   2.266   1.415   5.632 -0.0861  0.5549  0.8646
12172TIP3   OH258006   2.685   1.869  10.769  0.1915 -0.2175 -0.1750
12172TIP3    H158007   2.678   1.822  10.686  0.3950  0.5962 -0.6607
12172TIP3    H258008   2.688   1.801  10.835 -1.9721 -0.8397 -0.6783
12173TIP3   OH258009   4.569   0.004   1.979 -0.5933 -0.2898  0.1693
12173TIP3    H158010   4.505   0.074   1.986 -0.7413 -0.5869  2.0486
12173TIP3    H258011   4.525  -0.073   2.016  0.7463 -0.5604  1.2321
12174TIP3   OH258012   1.898   3.101  15.923 -0.0963  0.2038 -0.1348
12174TIP3    H158013   1.938   3.028  15.970  0.9503  0.3779 -0.7199
12174TIP3    H258014   1.813   3.113  15.964 -0.6790 -1.9570 -0.6599
12175TIP3   OH258015   5.376   4.255   6.170  0.1187 -0.2696 -0.4825
12175TIP3    H158016   5.297   4.246   6.224  0.0469 -1.8477 -0.8519
12175TIP3    H258017   5.405   4.166   6.153  1.5904  0.2817 -0.9549
12176TIP3   OH258018   5.085   3.049  15.928 -0.5749  0.2352  0.0700
12176TIP3    H158019   5.107   3.005  15.845  0.0562 -0.3449  0.5390
12176TIP3    H258020   5.169   3.058  15.973 -1.1596 -1.2501  1.5160
12177TIP3   OH258021   1.533   3.464  13.555 -0.6416 -0.2152 -0.5029
12177TIP3    H158022   1.543   3.369  13.550 -0.9119 -0.2562 -0.3372
12177TIP3    H258023   1.521   3.481  13.649 -2.1230 -0.1855 -0.6882
12178TIP3   OH258024   6.395   5.965   4.490  0.1628  0.1891  0.0640
12178TIP3    H158025   6.401   6.044   4.437  0.7224  0.8986  1.1696
12178TIP3    H258026   6.485   5.933   4.495 -0.1992 -1.1340 -1.2641
12179TIP3   OH258027   4.283   3.615  13.917  0.1697  0.2725  0.8052
12179TIP3    H158028   4.309   3.631  14.008 -1.5296 -1.0409  1.5695
12179TIP3    H258029   4.344   3.666  13.865  3.3517 -1.5443  2.5436
12180TIP3   OH258030   0.131   4.837   2.170 -0.4340  0.3658  0.0532
12180TIP3    H158031   0.039   4.839   2.144 -0.3860  2.1616 -0.0719
12180TIP3    H258032   0.178   4.867   2.092  0.2054  0.0122  0.3020
12181TIP3   OH258033   4.988   1.862   3.948 -0.1423  0.5228  0.6797
12181TIP3    H158034   4.982   1.896   3.859  0.9637  1.0603  0.7958
12181TIP3    H258035   4.898   1.856   3.978 -0.5503 -0.0386 -0.6136
12182TIP3   OH258036   2.523   6.359   4.033 -0.3875 -0.2170 -0.3915
12182TIP3    H158037   2.583   6.348   3.959  1.6696  0.8583  1.0468
12182TIP3    H258038   2.553   6.294   4.097 -1.8932 -0.8665 -0.3237
12183TIP3   OH258039   2.416   2.558   6.299  0.2931 -0.2943  0.1918
12183TIP3    H158040   2.408   2.652   6.283  0.0454 -0.5142 -1.0579
12183TIP3    H258041   2.510   2.541   6.294  0.3400 -0.1183  0.4285
12184TIP3   OH258042   5.400   5.376   2.421  0.0108 -0.5535  0.4773
12184TIP3    H158043   5.473   5.314   2.418 -0.9946 -1.7191 -0.9386
12184TIP3    H258044   5.391   5.398   2.514  0.9671 -1.8443  0.8918
12185TIP3   OH258045   1.734   4.572   0.191  0.1301 -0.5860 -0.0302
12185TIP3    H158046   1.747   4.632   0.117 -2.5086  0.8273  0.5652
12185TIP3    H258047   1.813   4.582   0.244 -1.1314  4.2612  1.2625
12186TIP3   OH258048   6.258   6.387   0.517  0.1853  0.2986 -0.2979
12186TIP3    H158049   6.331   6.447   0.499  0.9872 -0.1969  1.2089
12186TIP3    H258050   6.235   6.351   0.431  0.6927  1.6140 -1.0049
12187TIP3   OH258051   3.461   2.811   0.251  0.6804  0.3967 -0.0596
12187TIP3    H158052   3.473   2.836   0.160 -0.3154  1.8030  0.1710
12187TIP3    H258053   3.534   2.853   0.297  0.3305  0.9485 -0.0029
12188TIP3   OH258054   4.208   1.006  12.155  0.4140  0.1168 -0.4665
12188TIP3    H158055   4.166   0.920  12.165  2.3227 -1.0480 -2.2571
12188TIP3    H258056   4.285   0.989  12.101  1.2697  2.8338 -0.1467
12189TIP3   OH258057   5.688   2.325  16.081  0.5216  0.0470  0.4089
12189TIP3    H158058   5.660   2.381  16.008  0.0542 -0.5279  0.1420
12189TIP3    H258059   5.628   2.347  16.152  0.3569 -0.0839  0.3143
12190TIP3   OH258060   3.043   6.320   0.611 -0.2686  0.0341  0.0572
12190TIP3    H158061   2.987   6.393   0.584 -1.7378 -0.1751  2.4473
12190TIP3    H258062   3.019   6.248   0.551  0.5160  1.1943 -1.6921
12191TIP3   OH258063   0.147   6.177   2.308 -0.3730  0.7306 -0.4189
12191TIP3    H158064   0.085   6.250   2.313 -1.2934 -0.1071  0.8174
12191TIP3    H258065   0.097   6.106   2.268 -0.6221 -0.3494  1.7447
12192TIP3   OH258066   6.635   3.396  16.926  0.4641 -0.6078 -0.0841
12192TIP3    H158067   6.708   3.388  16.987  1.6131  0.8051 -1.2248
12192TIP3    H258068   6.605   3.486  16.938 -1.2509 -1.2457  0.5285
12193TIP3   OH258069   1.035   4.532  15.765  0.5007  0.0038  0.0159
12193TIP3    H158070   1.054   4.482  15.686  2.7780 -0.0412  0.5562
12193TIP3    H258071   0.991   4.470  15.823 -0.1292 -0.2921 -0.7884
12194TIP3   OH258072   0.402   4.431   4.584  0.5876 -0.1916 -0.5517
12194TIP3    H158073   0.363   4.435   4.497  2.7737  1.1807 -1.5051
12194TIP3    H258074   0.477   4.373   4.574  0.4722 -0.5490  0.5841
12195TIP3   OH258075   0.464   0.701  13.728 -0.1653  0.2142 -0.2390
12195TIP3    H158076   0.397   0.642  13.762  0.4774  0.1861  1.0019
12195TIP3    H258077   0.530   0.643  13.691 -0.4372  0.2169 -0.7303
12196TIP3   OH258078   2.130   3.672   3.465  0.5574  0.3910  0.3514
12196TIP3    H158079   2.077   3.648   3.541 -2.1716 -2.7910 -2.3640
12196TIP3    H258080   2.097   3.758   3.439 -0.6877  0.0828  0.8752
12197TIP3   OH258081   5.352   1.274   5.662 -0.6148 -0.3233  0.4102
12197TIP3    H158082   5.277   1.308   5.612 -0.5641 -0.8077  0.0019
12197TIP3    H258083   5.428   1.314   5.619 -0.5071 -1.5373 -0.5497
12198TIP3   OH258084   6.460   3.421  13.271 -0.2988  0.1356 -0.1240
12198TIP3    H158085   6.500   3.502  13.303  2.2647 -1.3653  0.6376
12198TIP3    H258086   6.372   3.447  13.242  0.6569  3.2628 -0.3976
12199TIP3   OH258087   6.583   5.798  14.626  0.5969 -0.4200  0.1350
12199TIP3    H158088   6.635   5.839  14.695  1.5849 -1.6593  0.1371
12199TIP3    H258089   6.640   5.730  14.590 -1.0392 -1.8590  0.2022
12200TIP3   OH258090   3.793   2.985   5.999  0.3068 -0.1525 -0.0917
12200TIP3    H158091   3.751   3.060   5.958  1.0667 -0.7369 -2.0067
12200TIP3    H258092   3.857   3.023   6.060 -1.3954  0.7246  1.2017
12201TIP3   OH258093   1.357   3.496   4.720 -0.2895  0.5730  0.3234
12201TIP3    H158094   1.356   3.592   4.714  0.2041  0.5472 -0.1253
12201TIP3    H258095   1.431   3.469   4.666 -0.3191 -0.0543  0.5946
12202TIP3   OH258096   6.691   4.860   2.728  0.3168 -0.4642 -0.5325
12202TIP3    H158097   6.629   4.893   2.663 -0.3904 -0.8636 -0.0850
12202TIP3    H258098   6.774   4.903   2.708  0.3559 -1.3198 -2.3061
12203TIP3   OH258099   1.792   1.903   1.336 -0.0840  0.6318  0.3134
12203TIP3    H158100   1.869   1.959   1.330 -0.2816  1.0673  1.6141
12203TIP3    H258101   1.718   1.963   1.326 -0.2770  0.4967  0.8698
12204TIP3   OH258102   4.194   2.891   5.514 -0.0511 -0.2032 -0.1935
12204TIP3    H158103   4.154   2.914   5.598 -1.5731 -0.0958 -0.9269
12204TIP3    H258104   4.229   2.803   5.528 -2.8547 -1.3822 -0.2873
12205TIP3   OH258105   1.812   1.939   0.307  0.5932  0.3150  0.1810
12205TIP3    H158106   1.845   1.878   0.373  1.3626  0.1487 -0.3489
12205TIP3    H258107   1.881   2.003   0.296  0.6268  0.1461 -0.7085
12206TIP3   OH258108   0.929   4.379   3.301 -0.1534  0.7481  0.2430
12206TIP3    H158109   0.969   4.423   3.225  1.3127  0.2565  0.7016
12206TIP3    H258110   0.864   4.320   3.263  0.5331  0.5470 -0.6486
12207TIP3   OH258111   0.101   4.698  11.936 -0.2242 -0.1602 -0.0532
12207TIP3    H158112   0.018   4.698  11.888 -0.5654 -0.1420  0.5415
12207TIP3    H258113   0.117   4.790  11.956 -1.7673 -0.4555  2.7839
12208TIP3   OH258114   3.666   5.393  11.172 -0.3486 -0.5166  0.1150
12208TIP3    H158115   3.748   5.360  11.136  0.7787  0.9553  1.2583
12208TIP3    H258116   3.675   5.381  11.266 -0.2497  2.1852  0.4969
12209TIP3   OH258117   5.156   0.710   5.159  0.8462 -0.8433 -0.0967
12209TIP3    H158118   5.196   0.784   5.114  1.6144 -1.2795 -0.1380
12209TIP3    H258119   5.114   0.748   5.237  1.7136 -0.4470  0.1780
12210TIP3   OH258120   3.771   1.428   1.516 -0.6411 -0.4840 -0.0200
12210TIP3    H158121   3.701   1.397   1.574 -2.9808  0.5407 -2.2136
12210TIP3    H258122   3.746   1.519   1.496  1.5184  0.0103 -0.5545
12211TIP3   OH258123   4.138   0.854   1.177 -0.3178 -0.1986  0.0750
12211TIP3    H158124   4.130   0.937   1.129 -1.3911  0.1744  0.9005
12211TIP3    H258125   4.222   0.818   1.147  0.5761  1.6058  0.3540
12212TIP3   OH258126   1.552   6.633  12.879 -0.1458  0.0053 -0.6536
12212TIP3    H158127   1.499   6.554  12.892 -0.5487  0.1262 -1.5303
12212TIP3    H258128   1.640   6.607  12.906 -0.6262 -0.2211  0.7371
12213TIP3   OH258129   5.449   2.889  13.127  0.3322 -0.1300  0.7309
12213TIP3    H158130   5.467   2.950  13.199  2.3551  1.7578 -1.3025
12213TIP3    H258131   5.353   2.892  13.117  0.1765  0.8381  2.2673
12214TIP3   OH258132   5.024   3.551  12.093  0.3474 -0.0038 -0.4042
12214TIP3    H158133   5.070   3.471  12.118 -2.3049 -1.7478 -0.8913
12214TIP3    H258134   4.932   3.526  12.091 -0.4998  2.9641 -1.0281
12215TIP3   OH258135   5.584   3.666   2.938 -0.0974 -0.2352 -0.1862
12215TIP3    H158136   5.497   3.633   2.912 -0.5459  1.7227 -1.2563
12215TIP3    H258137   5.645   3.602   2.901 -1.0818 -1.9095  1.0160
12216TIP3   OH258138   0.529   5.724   3.534 -0.0008 -0.1916  0.2672
12216TIP3    H158139   0.470   5.661   3.575 -0.4190 -0.4407 -0.6933
12216TIP3    H258140   0.472   5.796   3.506  0.0904 -0.6092 -1.0063
12217TIP3   OH258141   1.340   1.579  13.711 -0.4832 -0.0861 -0.1040
12217TIP3    H158142   1.400   1.569  13.638 -2.0236 -0.6042 -1.3386
12217TIP3    H258143   1.396   1.599  13.786  1.0713  1.0074 -1.5279
12218TIP3   OH258144   2.326   6.810   1.873 -0.1282 -0.0612 -0.3308
12218TIP3    H158145   2.419   6.821   1.853 -0.3636  1.8003 -0.4555
12218TIP3    H258146   2.320   6.823   1.967 -0.1107 -1.3010 -0.1528
12219TIP3   OH258147   4.745   4.639  12.345  0.7937 -0.2706  0.1684
12219TIP3    H158148   4.788   4.706  12.291  2.5068 -0.8392  0.7865
12219TIP3    H258149   4.796   4.638  12.426 -1.4692  0.2578  1.6326
12220TIP3   OH258150   4.795   3.457   4.333 -0.2563  0.6355  0.7376
12220TIP3    H158151   4.707   3.473   4.299 -0.7217  1.3876  2.2449
12220TIP3    H258152   4.828   3.544   4.354  0.9186  0.3645  0.0485
12221TIP3   OH258153   1.985   1.066  16.508  0.0498 -0.1135 -0.4869
12221TIP3    H158154   1.906   1.042  16.556 -0.3498  0.4393 -0.8591
12221TIP3    H258155   2.010   1.151  16.544 -0.6633  0.6429 -1.7514
12222TIP3   OH258156   2.034   0.289  12.169 -0.0983  0.2919 -0.0071
12222TIP3    H158157   2.099   0.328  12.228 -0.6268 -0.0734  0.8222
12222TIP3    H258158   1.976   0.239  12.227  0.0230 -0.9661 -0.9680
12223TIP3   OH258159   3.057   2.120  16.850 -0.2917 -0.5197  0.2052
12223TIP3    H158160   3.110   2.138  16.928 -0.1289  1.1613 -0.2790
12223TIP3    H258161   3.120   2.084  16.787 -0.1545 -0.5763  0.3736
12224TIP3   OH258162   0.379   1.724   5.014 -0.0436  0.3477 -0.3346
12224TIP3    H158163   0.346   1.787   4.950  0.6927  2.1982  1.0545
12224TIP3    H258164   0.347   1.756   5.098  1.7865 -0.1317  0.5848
12225TIP3   OH258165   1.855   0.356  12.635 -0.3107  0.1982 -0.3070
12225TIP3    H158166   1.782   0.396  12.587 -0.0411  1.8852  0.6765
12225TIP3    H258167   1.836   0.372  12.727  1.1016  0.3353 -0.0173
12226TIP3   OH258168   1.072   6.517   0.735 -0.0610  0.1917 -0.0183
12226TIP3    H158169   1.032   6.467   0.806  2.8256 -2.6996 -0.3439
12226TIP3    H258170   1.034   6.482   0.655  0.1489  0.2088 -0.1276
12227TIP3   OH258171   5.867   0.915   3.368 -0.1652 -0.5818 -0.1412
12227TIP3    H158172   5.952   0.912   3.323  0.1224 -1.3186  0.4249
12227TIP3    H258173   5.847   1.008   3.376  1.8991 -0.2878  2.1079
12228TIP3   OH258174   5.089   6.017  16.787  0.7284  0.0113  0.1647
12228TIP3    H158175   5.008   6.015  16.736  0.7272 -1.4360  0.2159
12228TIP3    H258176   5.062   5.994  16.876  0.8227  1.9591  0.7439
12229TIP3   OH258177   2.739   1.442  16.098  0.6529 -0.2797 -0.5313
12229TIP3    H158178   2.736   1.469  16.190 -0.2105 -0.6638 -0.4351
12229TIP3    H258179   2.668   1.378  16.090  2.3464 -2.1462 -0.8709
12230TIP3   OH258180   4.053   3.978   3.260 -0.4300  0.2735 -0.1407
12230TIP3    H158181   3.992   3.958   3.331  0.2256  0.3912  0.4705
12230TIP3    H258182   4.054   3.899   3.206 -0.3556 -0.1077  0.4134
12231TIP3   OH258183   1.505   3.954  15.240 -0.2337 -0.5512 -0.5281
12231TIP3    H158184   1.418   3.940  15.279 -0.0463 -0.5548 -0.1038
12231TIP3    H258185   1.505   4.046  15.214 -0.0465 -0.3174  0.2840
12232TIP3   OH258186   1.507   2.301  14.807  0.8863  0.9069  0.2958
12232TIP3    H158187   1.556   2.220  14.823  0.6179  0.7649  0.4017
12232TIP3    H258188   1.511   2.314  14.712 -0.2423  0.0259  0.1128
12233TIP3   OH258189   3.409   2.142   0.314  0.0976  0.1936 -0.3572
12233TIP3    H158190   3.457   2.202   0.371  0.6894  0.1109 -0.7624
12233TIP3    H258191   3.332   2.117   0.365  0.2099  0.7470  0.0890
12234TIP3   OH258192   1.837   4.836   5.697  0.2740 -0.0674 -0.3287
12234TIP3    H158193   1.922   4.814   5.736 -0.0965 -1.5506 -0.3523
12234TIP3    H258194   1.773   4.788   5.749 -0.5378  0.7706 -0.5321
12235TIP3   OH258195   5.988   0.627  13.893 -0.1314 -0.0818 -0.3200
12235TIP3    H158196   6.064   0.596  13.942 -0.2765 -1.4033 -0.9180
12235TIP3    H258197   6.008   0.606  13.802 -0.2938  1.4660 -0.7231
12236TIP3   OH258198   1.632   6.675   0.617  0.4262  0.2768 -0.4038
12236TIP3    H158199   1.572   6.720   0.557 -1.6912 -3.4199 -1.2613
12236TIP3    H258200   1.703   6.643   0.560 -0.4576 -1.3446 -0.6369
12237TIP3   OH258201   4.969   5.065   4.535  0.6820 -0.0075  0.1765
12237TIP3    H158202   4.891   5.016   4.561  1.5225 -0.1675  2.4178
12237TIP3    H258203   4.998   5.023   4.454  0.2865 -1.9952  1.0510
12238TIP3   OH258204   5.086   0.718   0.428 -0.9256  0.5826 -0.4219
12238TIP3    H158205   5.160   0.683   0.477 -1.5072  0.6435  0.5050
12238TIP3    H258206   5.056   0.645   0.374  1.0309  1.1041 -2.3063
12239TIP3   OH258207   4.380   2.494  15.501  0.1946  0.4866  0.4815
12239TIP3    H158208   4.454   2.492  15.441  1.9248 -2.2284  2.5579
12239TIP3    H258209   4.418   2.523  15.584 -1.4458  0.9171  1.0937
12240TIP3   OH258210   1.997   1.400   5.875  0.1627 -0.9668  0.1207
12240TIP3    H158211   2.014   1.419   5.967 -0.4206 -0.3065  0.0969
12240TIP3    H258212   2.079   1.362   5.842  1.1042  0.8361  0.3524
12241TIP3   OH258213   0.917   2.271  12.860 -0.0654 -0.7766 -0.4267
12241TIP3    H158214   0.978   2.303  12.926  1.1754 -1.8660 -1.0046
12241TIP3    H258215   0.857   2.214  12.908  0.3339 -0.9197 -0.0968
12242TIP3   OH258216   3.964   2.258  12.376 -0.1681 -0.1680 -0.0914
12242TIP3    H158217   4.014   2.198  12.321 -0.2904  1.2291 -1.7726
12242TIP3    H258218   3.938   2.329  12.317 -0.0996  1.5094  1.8260
12243TIP3   OH258219   0.280   6.586   4.494 -0.3116 -0.3361 -0.2012
12243TIP3    H158220   0.257   6.668   4.537 -0.9892 -0.8393  0.4071
12243TIP3    H258221   0.372   6.596   4.470  0.4633 -0.5620  2.5372
12244TIP3   OH258222   6.246   1.019  10.650 -0.1433 -0.1385  0.4257
12244TIP3    H158223   6.171   0.992  10.596 -1.0907  0.8291  1.2446
12244TIP3    H258224   6.208   1.038  10.736  1.1509 -0.3154  1.0423
12245TIP3   OH258225   4.659   4.147   3.136  0.3404  0.1092 -0.0217
12245TIP3    H158226   4.730   4.105   3.184  1.0716  0.0144 -1.1694
12245TIP3    H258227   4.580   4.121   3.183  0.7235 -3.0517 -1.0258
12246TIP3   OH258228   5.523   2.429  16.258 -0.2455 -0.7628 -0.3941
12246TIP3    H158229   5.451   2.479  16.297  0.7240 -0.7711  1.4701
12246TIP3    H258230   5.602   2.471  16.293  0.6423 -1.2291 -1.8192
12247TIP3   OH258231   3.592   6.035   5.416 -0.4216  0.8318 -0.1840
12247TIP3    H158232   3.515   5.986   5.446 -1.2291  0.8164 -2.1977
12247TIP3    H258233   3.555   6.112   5.373  0.6586  0.3815 -1.9506
12248TIP3   OH258234   5.573   3.100  14.360 -0.4529 -0.2626  0.3616
12248TIP3    H158235   5.649   3.046  14.381 -1.1655 -0.9498  1.2269
12248TIP3    H258236   5.594   3.140  14.276  1.7409  1.1355  1.5004
12249TIP3   OH258237   3.155   6.571  15.352  0.0649 -0.1467 -0.5340
12249TIP3    H158238   3.081   6.587  15.410  1.1725 -0.7926  1.0844
12249TIP3    H258239   3.179   6.480  15.367  1.5571  0.2170 -0.5889
12250TIP3   OH258240   5.644   4.123   6.705 -0.1324 -0.2795 -0.6989
12250TIP3    H158241   5.641   4.028   6.722  0.1784  0.1576  2.0078
12250TIP3    H258242   5.737   4.145   6.708 -0.1803  0.0742 -1.6545
12251TIP3   OH258243   4.861   1.704  11.817 -0.0165  0.4424  0.2023
12251TIP3    H158244   4.891   1.737  11.901 -0.1019  1.1311 -0.0386
12251TIP3    H258245   4.847   1.782  11.763  0.1507  0.0006 -0.4857
12252TIP3   OH258246   4.383   5.770  16.073  0.5545  0.1970  0.1920
12252TIP3    H158247   4.441   5.787  16.147  0.5486 -1.1238  0.5119
12252TIP3    H258248   4.433   5.799  15.996  1.1405  0.2293  0.5821
12253TIP3   OH258249   4.144   6.731  16.343  0.1403 -0.5234  0.2207
12253TIP3    H158250   4.158   6.825  16.344 -2.2593 -0.0971 -1.6677
12253TIP3    H258251   4.176   6.702  16.258 -1.1481 -1.0290 -0.1149
12254TIP3   OH258252   5.921   5.730  13.340 -0.3618  0.0130 -0.7583
12254TIP3    H158253   5.998   5.749  13.392 -1.3991 -0.4019  0.9580
12254TIP3    H258254   5.847   5.749  13.398 -1.5235 -2.3535 -1.3929
12255TIP3   OH258255   2.292   3.670  13.044  0.1216 -0.6832 -0.1571
12255TIP3    H158256   2.387   3.676  13.042  0.1903 -0.6840  2.0528
12255TIP3    H258257   2.262   3.753  13.006  0.9915 -0.4978 -0.4553
12256TIP3   OH258258   3.995   0.943   6.324 -0.0354  0.0858 -0.4767
12256TIP3    H158259   3.967   1.000   6.396 -2.5770 -0.3179 -1.0806
12256TIP3    H258260   4.038   1.001   6.262  0.9276  0.6701  0.7288
12257TIP3   OH258261   0.268   6.247  12.310  0.0150 -0.4987  0.3097
12257TIP3    H158262   0.184   6.284  12.282  1.6354  1.1010 -2.7792
12257TIP3    H258263   0.309   6.318  12.360  0.3505 -0.5115  0.0565
12258TIP3   OH258264   2.966   4.327  14.606  0.4434 -0.4056  0.1117
12258TIP3    H158265   2.911   4.376  14.545  2.0137 -0.7350 -1.6087
12258TIP3    H258266   2.910   4.256  14.638  0.1630 -1.3879 -2.4551
12259TIP3   OH258267   2.923   3.719   4.847 -0.0755  0.1605  0.3890
12259TIP3    H158268   2.883   3.798   4.884  0.2032  0.6516 -0.3342
12259TIP3    H258269   2.928   3.737   4.753  0.7025 -0.4002  0.3183
12260TIP3   OH258270   3.146   2.220  13.395  0.0927 -0.0993  0.3952
12260TIP3    H158271   3.203   2.211  13.319 -0.2303  0.9236  0.0335
12260TIP3    H258272   3.200   2.193  13.469  1.8158  3.1128  0.3592
12261TIP3   OH258273   3.761   1.745   3.822  0.2405  0.6480 -0.2716
12261TIP3    H158274   3.826   1.726   3.755 -0.0424 -2.8787  0.3680
12261TIP3    H258275   3.689   1.685   3.803 -0.0354 -0.0989  2.8560
12262TIP3   OH258276   3.929   3.155   5.156  0.4179 -0.2379 -0.1464
12262TIP3    H158277   3.940   3.086   5.090  2.3863 -0.3545  0.2573
12262TIP3    H258278   3.927   3.107   5.239 -1.8316 -0.0737 -0.0719
12263TIP3   OH258279   2.653   4.019  14.192 -0.4254 -0.0223  0.1159
12263TIP3    H158280   2.576   4.030  14.136  0.6032  2.2757 -0.8830
12263TIP3    H258281   2.617   4.015  14.281 -1.8064 -0.5168 -0.4468
12264TIP3   OH258282   0.146   1.790  16.483 -0.2698 -0.3180  0.1717
12264TIP3    H158283   0.105   1.704  16.491 -3.2341  1.0760  0.7360
12264TIP3    H258284   0.176   1.794  16.392  0.0721 -1.9976  0.2035
12265TIP3   OH258285   0.219   5.849  15.845  0.2952  0.1395  0.4442
12265TIP3    H158286   0.137   5.799  15.839  0.5511 -0.0532 -1.6868
12265TIP3    H258287   0.282   5.788  15.881  0.3033 -0.7201 -1.0012
12266TIP3   OH258288   3.619   4.228  12.341 -0.4513  0.3003  0.3696
12266TIP3    H158289   3.577   4.294  12.287  1.6507  1.1032 -0.3496
12266TIP3    H258290   3.686   4.276  12.390  1.1022 -1.2737 -0.1564
12267TIP3   OH258291   5.204   4.384   0.867 -0.0974 -0.1211 -0.5385
12267TIP3    H158292   5.149   4.306   0.869 -0.7686  0.3707  1.4798
12267TIP3    H258293   5.167   4.441   0.934  2.3772  0.5753  0.2824
12268TIP3   OH258294   2.904   4.719   0.310  0.1430  0.3491  0.1761
12268TIP3    H158295   2.998   4.724   0.326  0.5995 -2.9061 -1.0293
12268TIP3    H258296   2.875   4.642   0.359 -1.7485  0.8330 -0.1311
12269TIP3   OH258297   3.841   6.412  14.097 -0.2353 -0.0734  0.0218
12269TIP3    H158298   3.931   6.383  14.080  0.1349  1.9305 -1.5875
12269TIP3    H258299   3.851   6.496  14.142 -1.2992  0.4832 -0.7591
12270TIP3   OH258300   0.994   6.651  15.014  0.0678  0.2484 -0.1788
12270TIP3    H158301   1.078   6.696  15.019 -0.4139  1.0773  0.5441
12270TIP3    H258302   0.929   6.721  15.003 -0.8985 -0.0441  2.9661
12271TIP3   OH258303   5.810   5.850   0.437  0.2481 -0.2667  0.6653
12271TIP3    H158304   5.857   5.825   0.357 -1.3466 -1.4131  0.0413
12271TIP3    H258305   5.805   5.945   0.433 -0.0938 -0.3270 -0.7888
12272TIP3   OH258306   3.959   6.116   0.942 -0.0082 -0.2482 -0.1593
12272TIP3    H158307   3.970   6.126   1.036 -0.6243 -0.8243 -0.0171
12272TIP3    H258308   3.993   6.197   0.905  0.8935 -0.3188  0.5079
12273TIP3   OH258309   3.437   3.409   5.900 -0.3370  0.0868 -0.5201
12273TIP3    H158310   3.421   3.497   5.864  1.4987  0.4914 -0.4500
12273TIP3    H258311   3.511   3.422   5.960  1.7199 -1.9555 -2.4926
12274TIP3   OH258312   2.054   3.842   4.838  0.3159 -0.8162  0.0996
12274TIP3    H158313   2.026   3.916   4.892 -0.9019 -1.1906 -0.0029
12274TIP3    H258314   2.100   3.883   4.765 -0.9073 -0.1108 -0.2930
12275TIP3   OH258315   3.283   1.497   3.946 -0.2151 -0.4934 -0.1012
12275TIP3    H158316   3.353   1.477   3.883 -1.4182 -1.4835 -1.1512
12275TIP3    H258317   3.272   1.416   3.996 -0.1797 -0.1324  0.4942
12276TIP3   OH258318   6.441   2.209  11.096  0.2057  0.2734  0.2894
12276TIP3    H158319   6.373   2.274  11.113  1.3217  1.5225  0.0576
12276TIP3    H258320   6.476   2.188  11.183 -2.0433 -2.1471  0.6680
12277TIP3   OH258321   2.721   5.761  17.072  0.3096  0.8413 -0.1912
12277TIP3    H158322   2.629   5.750  17.098 -0.0491 -0.2138 -1.7752
12277TIP3    H258323   2.764   5.681  17.101  0.3921  0.6608 -0.8004
12278TIP3   OH258324   3.613   1.499  13.881 -0.1633  0.2240 -0.0999
12278TIP3    H158325   3.546   1.437  13.852  0.6258 -0.3586 -0.7116
12278TIP3    H258326   3.665   1.516  13.802 -0.5483  1.9017 -0.0040
12279TIP3   OH258327   6.757   6.499  11.425  0.2410  0.5854 -0.5117
12279TIP3    H158328   6.828   6.563  11.429 -0.4802  1.3118  0.8149
12279TIP3    H258329   6.701   6.531  11.353 -1.3849  2.8157  1.6601
12280TIP3   OH258330   6.553   5.968  10.360 -0.1540  0.2735 -0.3147
12280TIP3    H158331   6.510   6.052  10.343  0.0441  0.6085  0.7642
12280TIP3    H258332   6.646   5.990  10.370 -0.0271 -0.1496 -0.5585
12281TIP3   OH258333   4.507   2.038   3.163  0.7594 -0.0900 -0.5362
12281TIP3    H158334   4.600   2.046   3.140  0.7112  1.8727 -0.1313
12281TIP3    H258335   4.508   2.024   3.258  0.7089 -2.4009 -0.8358
12282TIP3   OH258336   4.347   3.563   1.403  0.1415 -0.0924  0.1291
12282TIP3    H158337   4.318   3.613   1.327  0.0203 -0.5526 -0.1272
12282TIP3    H258338   4.370   3.477   1.369 -1.3502 -0.7916  0.8133
12283TIP3   OH258339   3.517   1.620   5.265 -0.1134  0.9486 -0.4330
12283TIP3    H158340   3.430   1.589   5.288 -0.3891  2.1044  0.1192
12283TIP3    H258341   3.526   1.599   5.172  0.1388 -1.7404  0.1466
12284TIP3   OH258342   2.313   4.096  15.108  0.6031  0.6006 -0.2098
12284TIP3    H158343   2.239   4.125  15.055  0.3069 -0.8621 -0.6202
12284TIP3    H258344   2.325   4.004  15.085  2.3159  0.7164  0.1310
12285TIP3   OH258345   3.815   0.752  13.106  0.2488 -0.1904  0.3767
12285TIP3    H158346   3.727   0.787  13.120  0.3827 -0.1911  1.2672
12285TIP3    H258347   3.855   0.812  13.042 -0.9265 -1.0947 -1.2142
12286TIP3   OH258348   3.487   6.000   0.691 -0.0057 -0.0269  0.3369
12286TIP3    H158349   3.506   5.971   0.601 -0.7001  0.9115 -0.1190
12286TIP3    H258350   3.574   6.016   0.729  0.2834 -0.0015 -0.3183
12287TIP3   OH258351   2.774   6.226   5.907  0.1762  0.4995  0.1264
12287TIP3    H158352   2.853   6.273   5.880  1.2375 -1.0470  0.4890
12287TIP3    H258353   2.789   6.204   5.998 -1.0665  0.9404  0.4475
12288TIP3   OH258354   0.252   1.406  11.665 -0.5176 -0.2386  0.4468
12288TIP3    H158355   0.182   1.459  11.627  1.4198  1.0525 -1.4044
12288TIP3    H258356   0.314   1.393  11.594  0.9280 -1.7749  1.9321
12289TIP3   OH258357   2.280   6.527   2.350 -0.2236  0.4387  0.4017
12289TIP3    H158358   2.282   6.467   2.424  2.0210 -0.7459 -0.5609
12289TIP3    H258359   2.252   6.473   2.276 -1.4347  1.3682  0.1709
12290TIP3   OH258360   3.745   5.064   0.483 -0.5195 -0.1256 -0.0742
12290TIP3    H158361   3.758   5.100   0.396 -0.8624  1.9424  0.7098
12290TIP3    H258362   3.829   5.023   0.505  0.2121  1.1037 -0.5624
12291TIP3   OH258363   2.867   4.340   3.144 -0.7298  0.2556 -0.2656
12291TIP3    H158364   2.880   4.248   3.169  0.2773 -0.0172 -1.7406
12291TIP3    H258365   2.791   4.337   3.084 -0.9991  0.4514  0.0664
12292TIP3   OH258366   4.921   2.976  16.228 -0.1285  0.1327  0.5813
12292TIP3    H158367   4.930   3.044  16.162 -2.3001  0.1763  0.2887
12292TIP3    H258368   4.893   2.899  16.180  1.5142 -0.7628  1.0251
12293TIP3   OH258369   5.929   3.517  13.913  0.1320  0.5425 -0.0448
12293TIP3    H158370   5.964   3.603  13.935 -0.4279  1.2962 -1.9932
12293TIP3    H258371   5.905   3.523  13.821  1.4617 -2.1871 -0.6149
12294TIP3   OH258372   5.552   1.687  10.933 -0.0889 -0.0575 -0.5282
12294TIP3    H158373   5.550   1.648  10.845  1.0151  0.9056 -1.0130
12294TIP3    H258374   5.558   1.782  10.916 -2.3169  0.3066  0.6122
12295TIP3   OH258375   3.807   6.400  17.283  0.7305 -0.1800 -0.2309
12295TIP3    H158376   3.795   6.305  17.287  0.2710 -0.0281  2.8141
12295TIP3    H258377   3.870   6.420  17.352  2.6145  1.5142 -2.3549
12296TIP3   OH258378   3.004   5.782   0.086  0.2106  0.2981  0.4347
12296TIP3    H158379   3.028   5.840   0.014 -0.2242 -0.1674 -0.0863
12296TIP3    H258380   2.995   5.840   0.161 -2.5337  1.2445 -0.5853
12297TIP3   OH258381   6.025   0.338  13.867 -0.3056 -0.3682  0.1912
12297TIP3    H158382   6.105   0.361  13.821 -0.0591 -1.2096  0.1894
12297TIP3    H258383   5.955   0.374  13.813 -0.1647 -3.4619 -2.2086
12298TIP3   OH258384   4.716   5.838   3.425 -0.3879  0.2911  0.3294
12298TIP3    H158385   4.786   5.894   3.393 -1.9195  1.3673 -1.2634
12298TIP3    H258386   4.705   5.771   3.358 -0.7587  0.0390  0.6360
12299TIP3   OH258387   5.643   2.627  14.422  0.4062 -0.7545  0.0279
12299TIP3    H158388   5.738   2.622  14.412  0.6390  0.0424  1.6491
12299TIP3    H258389   5.612   2.668  14.340  1.6945  1.0528  0.4149
12300TIP3   OH258390   2.803   6.490  16.432  0.1023  0.1668  0.1461
12300TIP3    H158391   2.855   6.448  16.500  0.6447  1.1613  0.3580
12300TIP3    H258392   2.749   6.420  16.395  1.5714 -0.8669 -0.0633
12301TIP3   OH258393   1.454   3.427  15.961 -0.2943 -0.0497 -0.1882
12301TIP3    H158394   1.390   3.496  15.946  0.5459  0.7908  0.0575
12301TIP3    H258395   1.436   3.362  15.893 -0.7283  0.6663 -0.7610
12302TIP3   OH258396   5.072   2.444   2.179 -0.3073  0.0937 -0.0701
12302TIP3    H158397   5.164   2.454   2.206  0.7779 -1.2449 -3.0451
12302TIP3    H258398   5.061   2.508   2.108 -2.0402  1.0380  1.0148
12303TIP3   OH258399   1.408   0.222   2.528 -0.2376 -0.4567 -0.0631
12303TIP3    H158400   1.436   0.246   2.440 -0.0202  1.0346  0.4061
12303TIP3    H258401   1.476   0.256   2.585 -1.3224  0.2600  0.8228
12304TIP3   OH258402   0.195   4.903  15.959  0.0327  0.1176 -0.5746
12304TIP3    H158403   0.131   4.957  15.912  3.0614  0.9777 -4.0110
12304TIP3    H258404   0.220   4.956  16.035 -1.8774  0.6219 -0.2759
12305TIP3   OH258405   4.311   4.363   4.147  0.0122 -0.5761  0.7876
12305TIP3    H158406   4.354   4.428   4.091 -2.4841 -0.7567 -1.4125
12305TIP3    H258407   4.344   4.279   4.115 -0.3640 -0.6167  0.5101
12306TIP3   OH258408   1.601   0.163  14.142 -0.3332  0.0356  0.3238
12306TIP3    H158409   1.671   0.225  14.123 -0.0097 -0.7150 -1.0127
12306TIP3    H258410   1.630   0.082  14.100 -1.3527 -0.6583  0.9564
12307TIP3   OH258411   1.742   0.306   4.250  0.4410 -0.0289  0.4870
12307TIP3    H158412   1.776   0.280   4.164 -1.8427 -2.9860  0.4066
12307TIP3    H258413   1.683   0.380   4.232 -0.2865 -0.8572 -0.5384
12308TIP3   OH258414   2.059   2.099   0.333  0.0682  0.0326  0.5180
12308TIP3    H158415   2.097   2.112   0.420  0.8678  0.8513  0.0605
12308TIP3    H258416   2.026   2.186   0.309  0.2426 -0.0940 -0.1793
12309TIP3   OH258417   5.040   2.866   4.452 -0.6506 -0.4498  0.0031
12309TIP3    H158418   5.036   2.911   4.537 -2.8597 -0.6007  0.0031
12309TIP3    H258419   5.111   2.803   4.462 -0.5432 -0.1081  1.5684
12310TIP3   OH258420   0.917   5.802   4.124  0.1175 -0.1884 -0.3727
12310TIP3    H158421   0.861   5.757   4.061  0.1200 -1.1912  0.3427
12310TIP3    H258422   0.917   5.894   4.094 -1.2512 -0.3333 -0.8425
12311TIP3   OH258423   2.047   4.755  12.996 -0.2355 -0.2924 -0.0346
12311TIP3    H158424   2.126   4.807  13.001 -0.3453 -0.1882  0.6647
12311TIP3    H258425   2.074   4.673  12.955  0.0612  0.0745 -0.5632
12312TIP3   OH258426   4.296   4.028   3.559  0.1315 -0.0672  0.6586
12312TIP3    H158427   4.207   3.996   3.550  0.2897 -0.3580  0.0753
12312TIP3    H258428   4.296   4.113   3.515 -0.5672  1.2653  3.2007
12313TIP3   OH258429   2.662   6.525  12.969  0.2914  0.4409  0.8141
12313TIP3    H158430   2.695   6.435  12.978 -0.7517 -0.0247  0.1441
12313TIP3    H258431   2.728   6.569  12.916  1.0058  0.1802  1.4735
12314TIP3   OH258432   4.652   2.457  11.503 -0.1093 -0.0696  0.1114
12314TIP3    H158433   4.594   2.522  11.464 -0.3972  0.7733  1.8871
12314TIP3    H258434   4.594   2.395  11.547  0.2604  0.0327  0.7576
12315TIP3   OH258435   0.681   4.314   5.130  0.3010 -0.0787  0.2413
12315TIP3    H158436   0.590   4.316   5.099  0.2373 -1.1511  0.3482
12315TIP3    H258437   0.702   4.406   5.148 -0.6464  0.2156 -0.1183
12316TIP3   OH258438   0.273   5.221  13.154 -0.2917 -0.6332 -0.0670
12316TIP3    H158439   0.252   5.315  13.155  1.6717 -0.1906  1.8415
12316TIP3    H258440   0.294   5.202  13.063 -1.6365  0.5450 -0.6452
12317TIP3   OH258441   4.986   3.510   3.420 -0.4683  0.0786  0.6384
12317TIP3    H158442   5.032   3.472   3.496  0.2878 -1.3981 -0.5284
12317TIP3    H258443   4.985   3.440   3.355 -0.6040  1.5126 -0.9456
12318TIP3   OH258444   2.184   2.464  14.663  0.6072  0.5675  0.6900
12318TIP3    H158445   2.168   2.379  14.704  1.7088  0.2227  0.4228
12318TIP3    H258446   2.277   2.480  14.676  1.0396  0.3530 -1.8667
12319TIP3   OH258447   3.624   3.563   2.655  0.4637  0.3109  0.0470
12319TIP3    H158448   3.592   3.590   2.569 -1.1516  1.5506  1.0096
12319TIP3    H258449   3.632   3.644   2.704  3.0898 -0.1935  0.5426
12320TIP3   OH258450   1.786   0.245  16.550 -0.0569 -0.0349  0.1528
12320TIP3    H158451   1.809   0.322  16.602 -0.6463  0.5557 -0.4565
12320TIP3    H258452   1.720   0.200  16.603  1.0153 -0.6566  0.9703
12321TIP3   OH258453   5.582   4.840  13.562  0.4744 -0.3798 -0.6556
12321TIP3    H158454   5.541   4.758  13.588  0.6857 -0.2566  0.0791
12321TIP3    H258455   5.651   4.814  13.500  1.7527 -0.9476  0.9560
12322TIP3   OH258456   2.253   3.672   3.774 -0.2596  0.2173 -0.1681
12322TIP3    H158457   2.249   3.580   3.747  0.1819  1.0329 -3.1324
12322TIP3    H258458   2.177   3.712   3.733  1.1938  1.7925 -1.3632
12323TIP3   OH258459   4.521   0.208  12.255 -0.0704  0.4361 -0.2486
12323TIP3    H158460   4.567   0.235  12.175  0.3258  1.2501  0.2567
12323TIP3    H258461   4.540   0.276  12.319  1.7513 -1.5220  1.3518
12324TIP3   OH258462   4.079   0.521  14.097 -0.2079  0.0629  0.0094
12324TIP3    H158463   4.020   0.558  14.163 -0.4234 -0.3096  0.0207
12324TIP3    H258464   4.028   0.523  14.016 -0.3096 -0.4482  0.0597
12325TIP3   OH258465   0.315   0.725   0.337 -0.3782  0.1684  0.4639
12325TIP3    H158466   0.348   0.790   0.275  0.7535 -1.4501 -0.6618
12325TIP3    H258467   0.368   0.739   0.416  0.0797  0.4216  0.1182
12326TIP3   OH258468   3.741   5.985  14.884  0.3167 -0.0679 -0.3045
12326TIP3    H158469   3.689   5.914  14.846  0.7178 -0.3362 -0.3540
12326TIP3    H258470   3.687   6.063  14.872 -0.2623 -0.4126  0.0261
12327TIP3   OH258471   1.248   0.617  16.094 -0.2199  0.6778 -0.0310
12327TIP3    H158472   1.194   0.691  16.122 -0.7540  0.7197 -1.1556
12327TIP3    H258473   1.188   0.560  16.046 -0.2502 -1.3977  2.3670
12328TIP3   OH258474   4.987   2.262   0.822 -0.1656 -0.0504 -0.7323
12328TIP3    H158475   4.954   2.247   0.911  1.5440 -1.2267 -0.2898
12328TIP3    H258476   5.056   2.198   0.810  0.8217  1.2556 -2.2889
12329TIP3   OH258477   2.619   3.401  11.306  0.2745 -0.1221 -0.6224
12329TIP3    H158478   2.598   3.317  11.264 -1.8635 -0.4005  0.9150
12329TIP3    H258479   2.626   3.463  11.234 -1.4250 -0.9744 -1.5403
12330TIP3   OH258480   0.326   3.934   3.566 -0.4246  0.3936  0.3630
12330TIP3    H158481   0.302   4.025   3.551 -1.1502  0.0375 -0.7408
12330TIP3    H258482   0.418   3.928   3.539 -0.4832  0.7119  0.0997
12331TIP3   OH258483   1.107   5.606   1.557  0.2597 -0.2518  0.0090
12331TIP3    H158484   1.113   5.650   1.642  0.5779  0.3439 -0.3170
12331TIP3    H258485   1.048   5.661   1.506  0.6045 -0.2427 -0.3809
12332TIP3   OH258486   6.023   4.892   3.418  0.5569  0.1191  0.1923
12332TIP3    H158487   6.073   4.885   3.500  2.5918  3.1076 -0.7356
12332TIP3    H258488   6.069   4.834   3.358  0.8286  0.1998  0.3213
12333TIP3   OH258489   0.270   6.075  15.681 -0.2288  0.2174 -0.0953
12333TIP3    H158490   0.185   6.092  15.641 -0.1173 -1.3589 -1.0588
12333TIP3    H258491   0.252   6.005  15.745  0.0896  0.8423  0.6855
12334TIP3   OH258492   6.763   1.321   5.413  0.0759 -0.0058 -0.4568
12334TIP3    H158493   6.759   1.302   5.319 -0.0840  1.0845 -0.6751
12334TIP3    H258494   6.746   1.415   5.419 -1.1584 -0.3020  0.7731
12335TIP3   OH258495   5.752   0.709   4.226 -0.5823  0.1401  0.5552
12335TIP3    H158496   5.781   0.655   4.299  0.6200  1.7105  1.2925
12335TIP3    H258497   5.766   0.655   4.148  2.9036  0.2395  1.0328
12336TIP3   OH258498   4.121   1.452   5.891 -0.2244 -0.5253 -0.0975
12336TIP3    H158499   4.153   1.533   5.851 -1.4731  0.0716  0.0781
12336TIP3    H258500   4.117   1.389   5.818  0.2672 -0.2837 -0.3351
12337TIP3   OH258501   3.054   1.915   5.500 -0.0834 -0.5754  0.9486
12337TIP3    H158502   2.997   1.985   5.531 -1.6869 -0.8860 -1.1578
12337TIP3    H258503   3.133   1.959   5.470 -0.1017  0.0905  1.8787
12338TIP3   OH258504   0.760   4.079   3.469 -0.2207  0.2373  0.4640
12338TIP3    H158505   0.749   4.141   3.540  0.0878  0.9309 -0.0935
12338TIP3    H258506   0.671   4.047   3.451 -0.4457  0.9047  0.3991
12339TIP3   OH258507   3.067   0.094  12.030 -0.1315  0.5348 -0.1156
12339TIP3    H158508   3.038   0.154  11.962  0.4088 -0.1881 -0.9929
12339TIP3    H258509   3.019   0.121  12.108 -1.4380  0.7910 -0.9991
12340TIP3   OH258510   4.829   1.015  14.282 -0.2231 -0.8627  0.0424
12340TIP3    H158511   4.906   0.970  14.315 -0.8649 -1.6569  0.4838
12340TIP3    H258512   4.822   0.988  14.191 -0.4221 -1.4159  0.2170
12341TIP3   OH258513   5.269   2.250   6.808 -0.4829  0.2968  0.5367
12341TIP3    H158514   5.358   2.215   6.805 -0.7342 -0.3087  0.1453
12341TIP3    H258515   5.279   2.344   6.790 -0.1344 -0.1210 -1.5494
12342TIP3   OH258516   3.774   4.470  12.838 -0.5854  0.1389 -0.3465
12342TIP3    H158517   3.837   4.400  12.854 -1.9261 -0.8123  0.8919
12342TIP3    H258518   3.708   4.431  12.781 -1.0035  0.5937 -0.1783
12343TIP3   OH258519   2.684   0.923   4.960  0.2776  0.2641  1.0577
12343TIP3    H158520   2.647   0.993   4.907 -0.0063  0.3444  1.3586
12343TIP3    H258521   2.682   0.957   5.049 -0.7484 -0.4845  1.3412
12344TIP3   OH258522   1.531   1.634   6.829  0.0078 -0.2279  0.0710
12344TIP3    H158523   1.593   1.568   6.798 -0.0088  0.3777 -1.2955
12344TIP3    H258524   1.561   1.715   6.788  0.5333  0.7928  2.3998
12345TIP3   OH258525   3.787   2.217   4.687 -0.3397 -0.4674  0.0439
12345TIP3    H158526   3.831   2.241   4.768 -2.1514  0.4764  0.7666
12345TIP3    H258527   3.799   2.293   4.630 -0.0189 -0.6917 -0.1940
12346TIP3   OH258528   5.785   5.150  13.800 -0.1262 -0.4799  0.0783
12346TIP3    H158529   5.824   5.217  13.744 -0.4455  0.8703  1.4336
12346TIP3    H258530   5.691   5.159  13.787 -0.2838  0.7928  1.8348
12347TIP3   OH258531   2.728   4.301   1.626 -0.0920 -0.4871 -0.0276
12347TIP3    H158532   2.687   4.386   1.611 -1.0598 -1.1658 -1.3613
12347TIP3    H258533   2.738   4.295   1.721 -1.6501  0.3657  0.2060
12348TIP3   OH258534   3.349   5.486   4.690  0.8586 -0.0237 -0.4383
12348TIP3    H158535   3.340   5.501   4.596 -0.1924 -1.7014 -0.6341
12348TIP3    H258536   3.423   5.426   4.698  0.4094 -0.5580 -0.2671
12349TIP3   OH258537   1.741   2.861   0.911 -0.4492  0.4055 -0.1505
12349TIP3    H158538   1.783   2.937   0.869  0.0560 -0.2283 -0.8018
12349TIP3    H258539   1.649   2.888   0.921 -0.0607  1.4887  0.5558
12350TIP3   OH258540   2.998   1.305   5.877 -0.1279 -0.2769  0.4187
12350TIP3    H158541   3.080   1.335   5.918  0.3509 -0.6786 -0.2311
12350TIP3    H258542   3.004   1.337   5.787 -0.5843 -0.5058  0.3113
12351TIP3   OH258543   5.435   1.694   1.217  0.6362 -0.5845  0.5605
12351TIP3    H158544   5.510   1.724   1.165  0.6712 -0.6202  0.5903
12351TIP3    H258545   5.463   1.703   1.308  1.1069 -1.8742  0.5529
12352TIP3   OH258546   6.741   4.185   1.461 -0.3739  0.0037  0.6872
12352TIP3    H158547   6.695   4.103   1.448  0.6607 -0.3133 -1.1636
12352TIP3    H258548   6.826   4.160   1.498 -0.0574  0.2434  0.1235
12353TIP3   OH258549   0.199   4.995   3.293  0.0739 -0.5232  0.1938
12353TIP3    H158550   0.179   5.007   3.385 -0.6508  0.5430 -0.1058
12353TIP3    H258551   0.120   4.956   3.256  0.5851 -1.5364  0.1339
12354TIP3   OH258552   3.342   0.396  16.565 -0.0113  0.1454 -0.4960
12354TIP3    H158553   3.300   0.416  16.649  0.4645  0.3071 -0.2946
12354TIP3    H258554   3.397   0.320  16.583 -0.3524 -0.1780 -0.8037
12355TIP3   OH258555   4.675   2.258   1.915  0.3225  0.6415 -0.0641
12355TIP3    H158556   4.636   2.185   1.963 -0.4861  0.9462 -0.2502
12355TIP3    H258557   4.749   2.219   1.868  1.7734  0.5402  2.2225
12356TIP3   OH258558   0.736   0.231  16.490 -0.3737  0.3044  0.1190
12356TIP3    H158559   0.721   0.326  16.487 -1.0523  0.2058  0.2084
12356TIP3    H258560   0.705   0.205  16.577 -0.7565 -0.0919 -0.1344
12357TIP3   OH258561   2.694   0.189   1.879 -0.1033  0.1644  0.5003
12357TIP3    H158562   2.716   0.104   1.918 -2.3158 -1.4916 -1.7291
12357TIP3    H258563   2.620   0.220   1.930  0.8565  0.8758  1.4669
12358TIP3   OH258564   4.899   0.122   4.818 -0.2951  0.3780 -0.3430
12358TIP3    H158565   4.950   0.084   4.889 -0.3230  1.3201  0.1782
12358TIP3    H258566   4.939   0.087   4.738  1.3433  1.3336  0.0449
12359TIP3   OH258567   3.512   0.577   1.039 -0.0163 -0.6029 -0.2032
12359TIP3    H158568   3.500   0.495   1.088 -0.8214 -1.1190 -1.2417
12359TIP3    H258569   3.496   0.553   0.948  1.1429  0.4241 -0.6963
12360TIP3   OH258570   6.437   1.445   6.081  0.2260  0.0884 -0.1191
12360TIP3    H158571   6.441   1.533   6.042 -0.9119 -0.3094 -1.1652
12360TIP3    H258572   6.525   1.431   6.117  0.7208  1.2568 -0.8396
12361TIP3   OH258573   1.148   1.243   4.079 -0.0823 -0.1213  0.4412
12361TIP3    H158574   1.108   1.267   4.163 -0.0672 -0.4383  0.5426
12361TIP3    H258575   1.227   1.297   4.073 -0.4253  0.3714  0.3287
12362TIP3   OH258576   0.272   1.762  11.609  0.5500 -0.1147  0.7454
12362TIP3    H158577   0.349   1.729  11.563 -0.1422 -0.0168 -0.5187
12362TIP3    H258578   0.205   1.694  11.596 -0.4074  1.0213 -0.5445
12363TIP3   OH258579   3.679   6.806   2.568 -0.7532  0.2655 -0.7823
12363TIP3    H158580   3.637   6.726   2.599 -1.3805  0.4246 -1.1974
12363TIP3    H258581   3.739   6.776   2.500 -0.5127  0.0808 -0.4889
12364TIP3   OH258582   3.267   0.017  17.273  0.3014 -0.4378 -0.0784
12364TIP3    H158583   3.207  -0.050  17.304  0.1969  0.1568  1.0551
12364TIP3    H258584   3.250   0.093  17.330  1.9236 -0.1739  0.0978
12365TIP3   OH258585   3.636   2.501  16.226 -0.0717  0.9818  0.5109
12365TIP3    H158586   3.621   2.575  16.284  0.9269  2.4319 -1.0301
12365TIP3    H258587   3.550   2.481  16.189 -0.0921  2.4345 -0.2860
12366TIP3   OH258588   2.799   1.490   5.560  0.3471  0.1153 -0.0236
12366TIP3    H158589   2.859   1.564   5.562  1.7191 -1.0023  1.5572
12366TIP3    H258590   2.716   1.525   5.594  0.3745  1.3990 -1.2232
12367TIP3   OH258591   3.829   1.884  15.951  0.0857 -0.8270  0.3547
12367TIP3    H158592   3.764   1.815  15.960  0.2305 -0.9880  0.1681
12367TIP3    H258593   3.862   1.875  15.862  1.0203 -1.3258  0.7430
12368TIP3   OH258594   1.566   6.758   4.046 -0.1925  0.2210 -0.5788
12368TIP3    H158595   1.554   6.671   4.084  0.5586  0.4307  0.1437
12368TIP3    H258596   1.593   6.741   3.955  0.9714 -0.3190 -0.1408
12369TIP3   OH258597   4.681   0.160  13.086  0.2787  0.1637 -0.3581
12369TIP3    H158598   4.768   0.129  13.060  1.0688  1.5776  0.5172
12369TIP3    H258599   4.671   0.128  13.176  0.2026  0.6082 -0.2064
12370TIP3   OH258600   4.707   5.025   2.780  0.2122 -0.0177  0.8662
12370TIP3    H158601   4.731   4.933   2.769 -0.4006 -0.0648 -0.1314
12370TIP3    H258602   4.791   5.071   2.788  0.6721 -0.2906 -1.7758
12371TIP3   OH258603   6.407   3.590  12.145 -0.2085 -0.2697 -0.2773
12371TIP3    H158604   6.458   3.510  12.161  0.5840 -0.0875 -1.8725
12371TIP3    H258605   6.343   3.564  12.079  0.6952  0.6751 -1.5390
12372TIP3   OH258606   0.672   4.830   4.610 -0.1797 -0.1400  0.1262
12372TIP3    H158607   0.583   4.831   4.646 -0.3370  1.1596 -0.2742
12372TIP3    H258608   0.660   4.802   4.519 -0.2779  0.8805 -0.1757
12373TIP3   OH258609   5.600   6.248  15.772  0.5002  0.4553 -0.0206
12373TIP3    H158610   5.539   6.307  15.818  0.0807 -0.4039  0.5294
12373TIP3    H258611   5.545   6.177  15.739  1.0936  0.0617 -0.1715
12374TIP3   OH258612   5.743   5.171   2.697  0.6559 -0.4099  0.0929
12374TIP3    H158613   5.739   5.248   2.640  0.1637 -0.5532 -0.0782
12374TIP3    H258614   5.755   5.206   2.785 -1.9441  0.0146  0.3328
12375TIP3   OH258615   5.275   5.120   2.636  0.4503 -0.5520  0.3608
12375TIP3    H158616   5.192   5.082   2.609  0.4645 -0.0117 -0.4494
12375TIP3    H258617   5.259   5.215   2.639  1.1344 -0.4176 -0.1508
12376TIP3   OH258618   5.382   1.909   5.885 -0.4141  0.3285  0.3411
12376TIP3    H158619   5.435   1.902   5.806 -1.7832 -1.2424 -0.4609
12376TIP3    H258620   5.446   1.921   5.956  0.9366 -0.3129 -0.7509
12377TIP3   OH258621   5.557   1.207   6.513  0.3700 -0.2323 -0.2308
12377TIP3    H158622   5.499   1.140   6.549  0.4519  0.2461  0.8061
12377TIP3    H258623   5.499   1.278   6.486  0.4952  0.4075  1.1604
12378TIP3   OH258624   3.075   4.197   0.379  0.3735  0.8866 -0.0756
12378TIP3    H158625   3.103   4.262   0.315  1.3230  0.3386 -0.2157
12378TIP3    H258626   3.069   4.115   0.330  0.5866  0.5747  0.4186
12379TIP3   OH258627   1.212   0.797  15.721  0.1924  0.1775  0.2977
12379TIP3    H158628   1.231   0.725  15.782  2.5501 -0.5620 -1.2464
12379TIP3    H258629   1.117   0.803  15.721 -0.0127 -2.2960  1.2062
12380TIP3   OH258630   4.270   6.296   2.988  0.4973 -0.3752  0.1110
12380TIP3    H158631   4.263   6.259   3.075  0.3201 -1.8586 -0.5167
12380TIP3    H258632   4.307   6.383   3.001 -0.4695 -0.2061  1.7366
12381TIP3   OH258633   1.720   1.040   4.049  0.1223 -0.4491 -0.2384
12381TIP3    H158634   1.698   1.086   3.968 -0.7708  0.5534  0.5574
12381TIP3    H258635   1.689   0.951   4.035 -0.0964 -0.2627 -0.9720
12382TIP3   OH258636   1.275   3.195  14.052  0.3964 -0.5223 -0.5257
12382TIP3    H158637   1.265   3.116  13.999  0.3099  0.2922 -1.7390
12382TIP3    H258638   1.262   3.165  14.142 -3.5465 -1.1981 -1.2454
12383TIP3   OH258639   5.387   4.345  16.944  0.2610 -0.0890 -0.0343
12383TIP3    H158640   5.329   4.371  17.015 -0.4480  0.1261 -0.6903
12383TIP3    H258641   5.464   4.307  16.988  0.8683  2.1773  0.9203
12384TIP3   OH258642   3.561   2.759   4.915  0.5638  0.4735  0.6577
12384TIP3    H158643   3.554   2.784   4.823 -0.6571 -0.3229  0.5326
12384TIP3    H258644   3.543   2.665   4.916  3.3494 -0.0974  1.3520
12385TIP3   OH258645   1.690   2.473   0.206  0.2021  0.1225  0.1585
12385TIP3    H158646   1.698   2.548   0.147  0.4915 -0.0330 -0.0069
12385TIP3    H258647   1.653   2.508   0.286 -1.3437  0.1214 -0.5380
12386TIP3   OH258648   0.730   2.656   0.045  0.3411 -0.8968 -0.1877
12386TIP3    H158649   0.752   2.619   0.131  2.2961 -1.1348 -0.7499
12386TIP3    H258650   0.721   2.579  -0.012 -2.9468 -0.8526  0.1987
12387TIP3   OH258651   2.803   0.281  14.026 -0.1498  0.3638 -0.2379
12387TIP3    H158652   2.737   0.342  13.993 -0.8609 -0.0167  0.4698
12387TIP3    H258653   2.870   0.280  13.958  0.1809  2.4271  0.0240
12388TIP3   OH258654   1.007   4.932  15.059 -0.7629 -0.3569 -0.4235
12388TIP3    H158655   0.925   4.884  15.059 -0.4128 -0.9605 -0.0021
12388TIP3    H258656   0.982   5.024  15.044 -1.5768 -0.4087  0.6043
12389TIP3   OH258657   2.280   1.473   1.196  0.1638 -0.2279  0.5393
12389TIP3    H158658   2.349   1.447   1.257 -0.0534 -0.3407  0.7386
12389TIP3    H258659   2.269   1.567   1.210 -0.2306 -0.3410  1.0339
12390TIP3   OH258660   3.861   5.595  13.659  0.1891 -0.0403 -0.0776
12390TIP3    H158661   3.798   5.559  13.722  0.8819  0.8155  1.1327
12390TIP3    H258662   3.929   5.528  13.652  0.8138  0.4350  1.1765
12391TIP3   OH258663   0.690   4.170  14.454 -0.1685  0.3223 -0.5565
12391TIP3    H158664   0.738   4.247  14.423  0.7042  0.0121  0.0181
12391TIP3    H258665   0.752   4.123  14.509 -1.2800  0.1410  0.5684
12392TIP3   OH258666   0.544   4.047  11.055 -0.2966 -0.4959 -0.4408
12392TIP3    H158667   0.465   4.098  11.034 -0.9219 -0.4211  1.8832
12392TIP3    H258668   0.611   4.081  10.995 -0.7742  2.9035  0.7981
12393TIP3   OH258669   0.747   0.219  14.400 -0.3797  0.0837  0.1409
12393TIP3    H158670   0.710   0.288  14.344 -0.9237  0.5768  1.0888
12393TIP3    H258671   0.830   0.255  14.431  0.8850 -0.9812 -1.9006
12394TIP3   OH258672   5.089   3.182  15.075  0.1142  0.0855 -0.3068
12394TIP3    H158673   5.129   3.171  14.988  1.3215  2.1452 -0.0452
12394TIP3    H258674   5.138   3.122  15.131  0.4338 -0.0486 -0.7193
12395TIP3   OH258675   2.224   6.674   3.017  0.0868 -0.2592  0.4025
12395TIP3    H158676   2.151   6.716   3.063 -0.3277 -1.0749  0.4817
12395TIP3    H258677   2.258   6.610   3.080  0.0436 -0.7954 -0.1211
12396TIP3   OH258678   4.668   0.945  11.643 -0.2798 -0.0609  0.1284
12396TIP3    H158679   4.685   1.020  11.700  0.3886 -0.7348  0.8134
12396TIP3    H258680   4.657   0.984  11.556 -0.5962  0.9000  0.5914
12397TIP3   OH258681   2.739   0.144   4.127 -0.5018 -0.3196 -0.0430
12397TIP3    H158682   2.740   0.119   4.219 -1.2955  0.7760  0.2682
12397TIP3    H258683   2.656   0.109   4.093 -0.0835 -0.9654 -0.4180
12398TIP3   OH258684   3.874   5.546   4.986 -0.0246  0.0122  0.2249
12398TIP3    H158685   3.789   5.530   5.026 -0.8560  1.9547 -0.6789
12398TIP3    H258686   3.867   5.508   4.898 -0.2016  0.7167 -0.0740
12399TIP3   OH258687   4.703   4.724  14.670  0.5672  0.6569 -0.8733
12399TIP3    H158688   4.780   4.702  14.617 -0.7728  1.6809 -3.3392
12399TIP3    H258689   4.729   4.801  14.720  1.2571  0.8086 -1.4596
12400TIP3   OH258690   4.643   0.360  12.442 -0.3091  0.1932 -0.3738
12400TIP3    H158691   4.575   0.371  12.508 -0.6512  1.8292 -0.9847
12400TIP3    H258692   4.689   0.281  12.469 -2.2884 -0.7984  0.1729
12401TIP3   OH258693   2.259   4.516   5.950  0.3018 -0.4487 -0.0511
12401TIP3    H158694   2.227   4.560   5.872  0.1982 -0.2738  0.0894
12401TIP3    H258695   2.349   4.547   5.961  0.3223 -0.4871 -0.1088
12402TIP3   OH258696   1.402   6.812  16.436 -0.1672 -0.0801 -0.7567
12402TIP3    H158697   1.368   6.895  16.402 -0.2355 -0.5150 -1.7716
12402TIP3    H258698   1.362   6.803  16.522 -0.7118  0.5974 -0.9358
12403TIP3   OH258699   3.925   2.165  15.790 -0.2578  0.5510  0.8422
12403TIP3    H158700   3.923   2.252  15.831 -1.6727  1.4180 -0.9744
12403TIP3    H258701   4.007   2.164  15.741 -1.4963  1.9973 -1.3804
12404TIP3   OH258702   1.509   4.588   3.631  0.4229  0.5960  0.3414
12404TIP3    H158703   1.449   4.533   3.580 -0.6831  0.6417  1.5723
12404TIP3    H258704   1.563   4.631   3.565  0.1895 -0.6926 -0.7147
12405TIP3   OH258705   2.532   3.970  11.757  0.6698  0.1907 -0.2582
12405TIP3    H158706   2.605   3.951  11.699  1.9790 -0.8126  1.6598
12405TIP3    H258707   2.556   3.930  11.841 -1.2024  1.5039  0.9671
12406TIP3   OH258708   4.527   0.874   3.979  0.0775  0.0060  0.3037
12406TIP3    H158709   4.530   0.966   4.008 -0.4382  0.3375 -0.6634
12406TIP3    H258710   4.512   0.880   3.885  1.1804 -1.0663  0.0490
12407TIP3   OH258711   0.106   3.083   1.670 -0.1189  0.3915  0.4942
12407TIP3    H158712   0.099   3.142   1.745 -0.0646  0.4336  0.4658
12407TIP3    H258713   0.154   3.007   1.704  1.5931  1.2293  0.0178
12408TIP3   OH258714   5.238   6.237   1.723  0.3160 -0.0487 -0.2332
12408TIP3    H158715   5.262   6.302   1.657  1.0751 -0.0808  0.0071
12408TIP3    H258716   5.272   6.154   1.689  0.7269 -0.0621  0.2089
12409TIP3   OH258717   5.507   3.705   4.488 -0.4434  0.0514  0.3550
12409TIP3    H158718   5.574   3.761   4.529  2.0429 -3.9782  2.1192
12409TIP3    H258719   5.534   3.698   4.397  0.3244  0.1824  0.5682
12410TIP3   OH258720   0.873   0.437   4.609 -0.0107 -0.4523  0.0694
12410TIP3    H158721   0.815   0.511   4.591  0.2672  0.0588  1.2446
12410TIP3    H258722   0.887   0.397   4.523 -0.7031  0.4484 -0.4818
12411TIP3   OH258723   1.951   3.458   3.963 -0.8423  0.3701 -0.2467
12411TIP3    H158724   1.937   3.365   3.949 -0.7094  0.1264  1.1732
12411TIP3    H258725   1.876   3.500   3.920 -1.5173 -0.4507  0.1260
12412TIP3   OH258726   5.447   1.977   2.271  0.1139  0.3535  0.0030
12412TIP3    H158727   5.360   1.937   2.276  0.1296  0.3463  0.2388
12412TIP3    H258728   5.430   2.071   2.271  0.0393  0.3434 -1.3313
12413TIP3   OH258729   1.518   0.374   2.003  0.1060 -0.5894 -0.5511
12413TIP3    H158730   1.494   0.331   1.921 -0.4810  0.1379 -0.7650
12413TIP3    H258731   1.526   0.467   1.981 -0.1738 -0.3710  0.2365
12414TIP3   OH258732   6.790   4.741   4.489 -0.2696  0.4270  0.3997
12414TIP3    H158733   6.730   4.666   4.491  1.0856 -0.6498  1.3474
12414TIP3    H258734   6.874   4.706   4.517  0.4538  2.2602  0.6215
12415TIP3   OH258735   0.540   4.253   1.992 -0.3649 -0.1420 -0.9535
12415TIP3    H158736   0.583   4.167   1.998 -2.5631 -1.2526 -0.5374
12415TIP3    H258737   0.479   4.243   1.919  0.3360  1.5392 -1.7857
12416TIP3   OH258738   0.468   2.921   0.684 -0.2423  0.1849  0.0565
12416TIP3    H158739   0.383   2.947   0.720 -2.4440 -1.9573 -3.3036
12416TIP3    H258740   0.489   2.839   0.728  0.8319  1.4229  1.9147
12417TIP3   OH258741   1.077   5.405  13.096  0.1543 -0.1960  0.6791
12417TIP3    H158742   1.147   5.397  13.161  0.7346  0.7660  0.1879
12417TIP3    H258743   1.080   5.323  13.048  1.2769  0.0241  0.3445
12418TIP3   OH258744   2.383   1.526  16.641 -0.6201  0.4443 -0.0454
12418TIP3    H158745   2.399   1.615  16.609  2.4312 -0.5691 -1.5382
12418TIP3    H258746   2.369   1.536  16.735 -1.8722  2.6644 -0.4382
12419TIP3   OH258747   4.938   5.194  14.689  0.4805 -0.1661 -0.9523
12419TIP3    H158748   4.951   5.281  14.728  0.7734  0.1575 -1.7395
12419TIP3    H258749   4.874   5.209  14.619  0.2072 -0.6716 -0.8087
12420TIP3   OH258750   6.532   2.454  16.769  0.4711 -0.5255 -0.4020
12420TIP3    H158751   6.525   2.544  16.736 -0.3301  0.0501  1.2571
12420TIP3    H258752   6.445   2.417  16.759  0.8624 -1.2090 -1.3078
12421TIP3   OH258753   2.546   0.439  15.311 -0.6791  0.0558  0.5880
12421TIP3    H158754   2.503   0.465  15.392 -1.6345  1.1291 -0.2435
12421TIP3    H258755   2.475   0.431  15.247 -0.0001 -1.2373 -0.0403
12422TIP3   OH258756   5.833   4.780   2.092 -0.0814  0.1473  0.1224
12422TIP3    H158757   5.796   4.757   2.177 -2.5355  2.6148 -0.2334
12422TIP3    H258758   5.922   4.744   2.094 -0.9192 -1.8992  2.7660
12423TIP3   OH258759   0.449   6.094  12.123  0.3520 -0.3236  0.2693
12423TIP3    H158760   0.382   6.130  12.181 -0.6644 -0.6607 -0.6763
12423TIP3    H258761   0.510   6.167  12.110 -0.9781  0.6727 -0.5694
12424TIP3   OH258762   2.766   4.608   3.548 -0.2274 -0.0244  0.9260
12424TIP3    H158763   2.808   4.620   3.633 -0.2544  1.2458  0.7748
12424TIP3    H258764   2.704   4.681   3.541  0.3182  0.3248 -0.5044
12425TIP3   OH258765   5.313   0.756  12.676  0.1875 -0.1467 -0.2646
12425TIP3    H158766   5.308   0.817  12.602 -0.5914 -0.6710 -0.6457
12425TIP3    H258767   5.248   0.689  12.656  0.9467 -1.0320  0.2212
12426TIP3   OH258768   1.148   6.556  16.192  0.7193  0.3486 -0.2635
12426TIP3    H158769   1.068   6.583  16.237  0.0787 -0.5887 -0.8277
12426TIP3    H258770   1.129   6.468  16.159  2.4198 -0.3705  0.6299
12427TIP3   OH258771   2.414   3.791  16.641 -0.1096  0.0358 -0.0726
12427TIP3    H158772   2.330   3.759  16.607  0.3063 -0.3784 -0.7105
12427TIP3    H258773   2.466   3.712  16.655 -0.3990  0.1615  1.8946
12428TIP3   OH258774   2.534   3.088  15.058  0.6418  0.3694 -0.2178
12428TIP3    H158775   2.447   3.052  15.038  0.4792 -0.0846  1.2695
12428TIP3    H258776   2.516   3.178  15.086  0.7756  0.6937 -1.1758
12429TIP3   OH258777   3.725   1.282  12.168  0.3942 -0.9115  0.2500
12429TIP3    H158778   3.688   1.288  12.080  0.1689 -0.7468  0.3566
12429TIP3    H258779   3.783   1.357  12.175  0.3011 -0.8441  0.2950
12430TIP3   OH258780   1.047   1.998  10.888 -0.6305  0.2584 -0.0928
12430TIP3    H158781   0.993   1.945  10.830 -1.4310  1.9748 -0.9467
12430TIP3    H258782   1.111   2.039  10.830  0.0141  0.2084  0.5681
12431TIP3   OH258783   5.873   4.329  13.830  0.2176  0.2066  0.3656
12431TIP3    H158784   5.782   4.328  13.860  0.2869 -2.0227  0.5750
12431TIP3    H258785   5.924   4.315  13.909  0.6165 -1.1993 -0.1402
12432TIP3   OH258786   6.741   1.242   4.497 -0.0755  0.2405 -0.6541
12432TIP3    H158787   6.811   1.231   4.563  0.7394  1.5041 -1.2833
12432TIP3    H258788   6.662   1.210   4.541  1.0366 -2.0613 -0.2362
12433TIP3   OH258789   4.176   4.651   0.350  0.4534 -0.1533  0.0344
12433TIP3    H158790   4.174   4.693   0.264  0.4688  1.4437  0.8123
12433TIP3    H258791   4.251   4.689   0.394 -0.4839  0.2043  1.3512
12434TIP3   OH258792   5.482   5.080   2.013 -0.1159 -0.3979 -0.2292
12434TIP3    H158793   5.448   5.049   1.929  0.7061 -0.0799 -0.6878
12434TIP3    H258794   5.457   5.172   2.017  0.2019 -0.3093 -0.3099
12435TIP3   OH258795   3.737   1.406   0.725  0.2955 -0.2933 -0.4472
12435TIP3    H158796   3.764   1.428   0.636  0.9689  0.4587 -0.0617
12435TIP3    H258797   3.652   1.450   0.735  0.8697  0.8067 -0.2486
12436TIP3   OH258798   6.208   0.089  14.424  0.4632  0.0809  0.0343
12436TIP3    H158799   6.250   0.168  14.389 -0.2107  0.0686 -0.8261
12436TIP3    H258800   6.114   0.108  14.419  0.3024 -0.7213 -0.0582
12437TIP3   OH258801   5.168   6.550   2.717  0.0212 -0.7241  0.9605
12437TIP3    H158802   5.232   6.485   2.748  0.5139 -1.4209 -1.4351
12437TIP3    H258803   5.219   6.611   2.664 -1.4039 -1.7653 -1.6702
12438TIP3   OH258804   2.410   5.486   6.725 -0.2287 -0.3834  0.4235
12438TIP3    H158805   2.324   5.488   6.767 -0.4178 -0.6560  0.0502
12438TIP3    H258806   2.392   5.464   6.634  0.1349  0.7105  0.0772
12439TIP3   OH258807   6.033   5.052   6.191  0.4006  0.4119  0.1684
12439TIP3    H158808   6.085   5.069   6.270  1.6385  1.3365 -0.8349
12439TIP3    H258809   6.054   4.962   6.167 -0.0977  0.0725  0.9611
12440TIP3   OH258810   4.791   4.969  16.434 -0.0874  0.3429  0.1909
12440TIP3    H158811   4.699   4.979  16.407 -1.0620 -0.8073  2.8468
12440TIP3    H258812   4.804   5.040  16.497  0.2743 -0.5813  1.1702
12441TIP3   OH258813   0.267   6.390  14.998 -0.6098 -0.0057  0.4917
12441TIP3    H158814   0.250   6.378  15.092  0.0708  1.9438  0.8799
12441TIP3    H258815   0.237   6.308  14.958 -0.1476 -1.2013  2.5053
12442TIP3   OH258816   2.042   0.550   3.220 -0.1459 -0.4411  0.4682
12442TIP3    H158817   2.105   0.593   3.162  1.2168 -1.9924  0.7575
12442TIP3    H258818   2.062   0.583   3.307 -1.0140  0.5224  0.3134
12443TIP3   OH258819   6.133   1.483   4.676  0.4176  0.1400 -0.1072
12443TIP3    H158820   6.080   1.408   4.649 -0.2991  0.7738 -0.4917
12443TIP3    H258821   6.220   1.447   4.692 -0.0722 -0.8835  0.3121
12444TIP3   OH258822   2.021   4.687   2.221  0.0129  0.1344 -0.0588
12444TIP3    H158823   2.026   4.695   2.126 -0.5144  1.1171 -0.0187
12444TIP3    H258824   2.101   4.728   2.253  0.4852 -0.7617 -0.1088
12445TIP3   OH258825   3.975   3.394  12.578  0.3609  0.3399  0.2007
12445TIP3    H158826   4.070   3.398  12.586  0.2587 -0.2194  1.7480
12445TIP3    H258827   3.958   3.308  12.539  0.5647  1.0961 -1.6176
12446TIP3   OH258828   1.719   1.215   3.837 -0.8570 -0.5073 -0.1162
12446TIP3    H158829   1.649   1.206   3.773  0.7586 -0.5667 -1.9423
12446TIP3    H258830   1.794   1.171   3.796 -0.1568 -1.7755  2.4309
12447TIP3   OH258831   5.143   0.404  13.982  0.4186  0.1282  0.0863
12447TIP3    H158832   5.103   0.323  13.951 -0.9124  0.7241  0.2335
12447TIP3    H258833   5.134   0.400  14.078  1.4731 -0.1238  0.1835
12448TIP3   OH258834   5.216   4.353  15.379 -0.3741  0.5716  0.2572
12448TIP3    H158835   5.221   4.309  15.464 -1.5481  1.2639  0.6975
12448TIP3    H258836   5.293   4.409  15.377 -0.5623  0.8577  1.0447
12449TIP3   OH258837   0.805   3.748   4.213  0.1853 -0.6870 -0.4864
12449TIP3    H158838   0.737   3.801   4.255  0.0317 -1.4763  0.2709
12449TIP3    H258839   0.831   3.799   4.136 -2.1568 -0.9656 -1.5070
12450TIP3   OH258840   1.752   5.083  15.992 -0.5959  0.8513  0.5863
12450TIP3    H158841   1.843   5.103  15.972 -1.3062  1.8990 -1.9336
12450TIP3    H258842   1.729   5.142  16.064  0.5836  0.9405  0.8897
12451TIP3   OH258843   3.205   2.025   2.623 -0.9640 -0.1967 -0.1156
12451TIP3    H158844   3.291   2.063   2.606 -1.2836  0.1907 -0.9010
12451TIP3    H258845   3.217   1.972   2.701  0.2487 -1.0018 -0.8380
12452TIP3   OH258846   1.903   1.525   4.001  0.2907  0.7709 -0.0878
12452TIP3    H158847   1.984   1.501   3.956 -0.6542  1.3317 -2.1547
12452TIP3    H258848   1.911   1.619   4.017  0.3591  0.6866  0.3974
12453TIP3   OH258849   5.625   1.357   2.258 -0.4227  0.4667 -0.1485
12453TIP3    H158850   5.548   1.412   2.244  0.0404  1.5366  1.4320
12453TIP3    H258851   5.610   1.316   2.344  0.5258  0.2678 -0.0768
12454TIP3   OH258852   5.211   4.018   2.242  1.0266 -0.0868 -0.1260
12454TIP3    H158853   5.192   4.042   2.332  0.3568  0.7783 -0.4841
12454TIP3    H258854   5.179   4.093   2.190  2.3656 -0.1016 -0.9963
12455TIP3   OH258855   3.451   0.886   3.874  0.4588 -0.5195 -0.3409
12455TIP3    H158856   3.375   0.944   3.879  0.2857 -0.4328 -3.0042
12455TIP3    H258857   3.413   0.798   3.863  0.7408 -0.6749 -0.0654
12456TIP3   OH258858   0.587   4.062  12.516 -0.1431 -0.5030 -0.2552
12456TIP3    H158859   0.630   4.039  12.598 -2.6324  0.2427  1.3171
12456TIP3    H258860   0.566   4.155  12.525 -3.4314 -1.1707 -0.2474
12457TIP3   OH258861   6.635   5.023  11.788  0.1159  1.0278 -0.0093
12457TIP3    H158862   6.628   4.989  11.877  0.1889 -0.2776 -0.4899
12457TIP3    H258863   6.598   4.954  11.733  0.3279  1.7021 -1.0136
12458TIP3   OH258864   3.086   1.327  16.071  0.2040 -0.1046  0.7898
12458TIP3    H158865   3.173   1.290  16.081  0.8595  1.7049  2.1055
12458TIP3    H258866   3.056   1.343  16.161 -0.7552  0.9276  0.3070
12459TIP3   OH258867   0.665   4.921  13.773  0.7858 -0.4244 -0.2156
12459TIP3    H158868   0.609   4.951  13.701  0.6571 -1.3236 -0.4993
12459TIP3    H258869   0.608   4.862  13.824  1.8885 -2.4668 -1.3040
12460TIP3   OH258870   1.930   1.713   2.200 -0.1629  0.1122  0.5095
12460TIP3    H158871   1.858   1.744   2.145  0.0853 -1.4122 -0.6872
12460TIP3    H258872   2.005   1.710   2.142  0.8823  1.6443  1.7474
12461TIP3   OH258873   3.384   4.291   2.497 -0.0752 -0.1806  0.8107
12461TIP3    H158874   3.425   4.239   2.428 -0.6740  1.1490 -0.5941
12461TIP3    H258875   3.292   4.264   2.496 -0.6233  1.6267 -0.6691
12462TIP3   OH258876   5.528   5.307  13.715 -0.6391  0.0592  0.1406
12462TIP3    H158877   5.452   5.303  13.773  0.3348  0.5149  1.4760
12462TIP3    H258878   5.572   5.388  13.740  0.3558 -0.2620 -0.5529
12463TIP3   OH258879   1.272   3.230   0.395  0.1897 -0.0079 -0.1671
12463TIP3    H158880   1.193   3.179   0.378  1.1876 -1.3878 -0.7822
12463TIP3    H258881   1.273   3.297   0.327 -0.2717 -0.1881 -0.3509
12464TIP3   OH258882   3.840   2.870  13.429 -0.3324  0.0515 -0.5654
12464TIP3    H158883   3.756   2.892  13.470 -0.2575  0.3993 -0.6033
12464TIP3    H258884   3.901   2.935  13.463 -0.1481 -0.0011 -0.7990
12465TIP3   OH258885   3.031   2.517   5.747  0.0098  0.3417  0.0190
12465TIP3    H158886   3.099   2.551   5.806  0.7055  1.8618 -1.5856
12465TIP3    H258887   3.023   2.584   5.679 -1.8364 -0.6656 -0.8043
12466TIP3   OH258888   1.172   4.725  14.625  0.2735 -0.1846 -0.3132
12466TIP3    H158889   1.127   4.667  14.563 -0.8408  1.4369 -1.0485
12466TIP3    H258890   1.106   4.790  14.649  1.5128  0.7771  0.5181
12467TIP3   OH258891   3.324   3.325   2.062  0.1779 -0.2275  0.2387
12467TIP3    H158892   3.332   3.388   1.991  0.2519 -1.0510 -0.4999
12467TIP3    H258893   3.339   3.240   2.021 -3.7086 -1.1060  0.4405
12468TIP3   OH258894   3.700   3.652  11.601  0.2208  0.6272  0.3606
12468TIP3    H158895   3.631   3.613  11.654 -0.2044 -0.2629 -0.8386
12468TIP3    H258896   3.780   3.608  11.630 -0.0589 -0.1081  0.0111
12469TIP3   OH258897   6.262   6.237   6.700 -0.3827 -0.2612  0.0574
12469TIP3    H158898   6.198   6.196   6.643  0.1185  0.2535 -0.8888
12469TIP3    H258899   6.241   6.330   6.697 -0.2141 -0.2026  0.5469
12470TIP3   OH258900   5.505   1.040   3.343  0.4714  0.2243  0.0797
12470TIP3    H158901   5.534   0.951   3.365  0.0598  0.1218  0.2001
12470TIP3    H258902   5.560   1.096   3.398  0.2283  0.0134  0.5425
12471TIP3   OH258903   4.015   2.936   0.122  0.1755  0.4367  0.8043
12471TIP3    H158904   4.034   2.843   0.111 -2.4433 -0.1660  0.9940
12471TIP3    H258905   4.096   2.974   0.156  2.4928 -1.0430 -2.8062
12472TIP3   OH258906   6.087   6.198  11.005 -0.0858  0.1406 -0.0536
12472TIP3    H158907   6.176   6.197  11.041  0.0485  0.8170 -0.3670
12472TIP3    H258908   6.076   6.286  10.970 -0.8547  0.0317 -0.0886
12473TIP3   OH258909   5.900   4.248   5.079  0.2816  0.0831  0.3630
12473TIP3    H158910   5.878   4.300   5.001  1.3456  0.0302  0.0237
12473TIP3    H258911   5.876   4.305   5.152  1.6085  1.1530 -0.0044
12474TIP3   OH258912   3.715   3.228   5.891  0.0753 -0.2025 -0.1070
12474TIP3    H158913   3.753   3.245   5.805  0.5783 -1.1642 -0.0885
12474TIP3    H258914   3.680   3.312   5.920 -1.1889 -0.1180 -1.7907
12475TIP3   OH258915   6.692   0.636  14.254 -0.1400 -0.6527  0.0176
12475TIP3    H158916   6.752   0.646  14.328  0.0889  0.3372 -0.2976
12475TIP3    H258917   6.729   0.691  14.185 -1.7033  0.4163  0.0069
12476TIP3   OH258918   5.835   5.183  13.320  0.2344  0.6455 -0.4569
12476TIP3    H158919   5.803   5.123  13.387 -1.5655 -0.2677 -2.1061
12476TIP3    H258920   5.872   5.256  13.369 -0.6446 -0.2146  1.5298
12477TIP3   OH258921   0.213   3.795  13.310  0.6201 -0.2719  0.2393
12477TIP3    H158922   0.117   3.791  13.305  0.5841 -0.5756  1.0411
12477TIP3    H258923   0.236   3.732  13.378  1.3660  0.0655  0.3040
12478TIP3   OH258924   3.988   3.066  13.207 -0.1489 -0.7265 -0.4015
12478TIP3    H158925   3.904   3.029  13.177 -0.6952  0.6304 -0.6210
12478TIP3    H258926   3.989   3.154  13.168  1.3845 -0.7378 -0.3914
12479TIP3   OH258927   0.684   1.683  12.789 -0.7401  0.0487  0.1430
12479TIP3    H158928   0.602   1.638  12.771 -0.2187 -0.1551 -1.8576
12479TIP3    H258929   0.738   1.668  12.711  1.1053  0.3882  1.3081
12480TIP3   OH258930   1.923   2.652   0.876 -0.3125 -0.0038 -0.8308
12480TIP3    H158931   1.997   2.667   0.935 -0.6890 -0.9048 -0.1324
12480TIP3    H258932   1.857   2.716   0.903 -1.1808 -1.6201  0.9007
12481TIP3   OH258933   1.338   2.378   6.257 -0.0906 -0.1141  0.0428
12481TIP3    H158934   1.397   2.324   6.310  0.5973 -0.3830 -0.9749
12481TIP3    H258935   1.251   2.358   6.290  0.1865 -1.5629 -0.0354
12482TIP3   OH258936   5.846   3.902  11.866  0.3971  0.1865 -1.0190
12482TIP3    H158937   5.895   3.972  11.821  2.4757 -0.3000  0.4428
12482TIP3    H258938   5.832   3.936  11.954 -0.1905 -0.5030 -0.8456
12483TIP3   OH258939   6.519   3.737  15.984  0.3070  0.1015  0.4369
12483TIP3    H158940   6.512   3.793  16.061  0.7819  0.4005  0.2666
12483TIP3    H258941   6.472   3.656  16.008 -0.3355  0.5504  0.7011
12484TIP3   OH258942   2.192   6.394  16.822 -0.1734 -0.1153  0.4507
12484TIP3    H158943   2.127   6.443  16.772  1.5328 -0.0228 -1.7496
12484TIP3    H258944   2.151   6.379  16.907 -2.6539  0.8155 -0.5481
12485TIP3   OH258945   4.336   3.298   0.366 -0.0232  0.3666 -0.0342
12485TIP3    H158946   4.280   3.286   0.289 -0.3196  0.6295  0.1394
12485TIP3    H258947   4.363   3.210   0.390 -1.9715  0.0643  1.0883
12486TIP3   OH258948   3.394   3.439  16.280  0.7085  0.1909  0.1185
12486TIP3    H158949   3.333   3.380  16.326  1.3961  0.1500  0.9928
12486TIP3    H258950   3.343   3.519  16.266 -0.0999 -0.4550 -0.7017
12487TIP3   OH258951   1.355   3.569   0.709 -0.5529 -0.0713  0.4851
12487TIP3    H158952   1.352   3.473   0.709 -0.2484 -0.0867  0.0502
12487TIP3    H258953   1.354   3.593   0.616  2.0514  0.2303  0.4900
12488TIP3   OH258954   6.327   3.245   3.388 -0.5771 -0.4382  0.1170
12488TIP3    H158955   6.293   3.216   3.303 -1.7041 -1.1634  0.7981
12488TIP3    H258956   6.411   3.199   3.397 -0.2950 -0.0933 -0.7530
12489TIP3   OH258957   1.541   2.938   4.981 -0.4570  0.6157 -0.2578
12489TIP3    H158958   1.543   2.935   4.885 -1.6040  1.1171 -0.3077
12489TIP3    H258959   1.508   2.853   5.007  0.1769  0.3559 -0.2881
12490TIP3   OH258960   5.304   4.591   0.649  0.2694 -0.0278 -0.2659
12490TIP3    H158961   5.333   4.547   0.569  0.6461 -0.4350  0.0845
12490TIP3    H258962   5.310   4.523   0.716  0.5030  0.4657  0.2158
12491TIP3   OH258963   2.012   3.506   1.384 -0.2791  0.3917 -0.3115
12491TIP3    H158964   2.075   3.560   1.337 -0.4193  2.1070  1.3954
12491TIP3    H258965   1.929   3.521   1.340 -0.6705  3.0188  1.1999
12492TIP3   OH258966   3.334   6.653   1.968 -0.3961 -0.2034 -0.3665
12492TIP3    H158967   3.372   6.730   1.926 -4.9556  2.5752  0.2783
12492TIP3    H258968   3.280   6.613   1.900 -1.9914  0.0787  0.7115
12493TIP3   OH258969   6.321   3.348   2.230  0.0461  0.4188  0.0387
12493TIP3    H158970   6.276   3.294   2.296  1.0279 -2.1167 -1.2749
12493TIP3    H258971   6.410   3.312   2.227  0.0215  0.5343 -2.6173
12494TIP3   OH258972   5.872   5.886   5.025 -0.0081 -0.4330 -0.4804
12494TIP3    H158973   5.801   5.895   4.962  0.9009  1.1903 -1.2974
12494TIP3    H258974   5.890   5.975   5.055  0.5865 -1.0127  0.9630
12495TIP3   OH258975   6.688   5.113   1.010  0.0514 -0.2278  0.0799
12495TIP3    H158976   6.689   5.208   1.016 -1.4976 -0.1253 -0.9329
12495TIP3    H258977   6.595   5.090   1.010  0.3522 -1.5794 -2.0855
12496TIP3   OH258978   4.211   5.705  16.361 -0.8697  0.1401 -0.4319
12496TIP3    H158979   4.262   5.628  16.336  0.5698  0.5914  0.9893
12496TIP3    H258980   4.122   5.687  16.331  0.1322 -0.6511 -2.9987
12497TIP3   OH258981   6.623   6.385   5.092 -0.2953  0.4988 -0.2424
12497TIP3    H158982   6.651   6.427   5.011  0.1191 -1.3435 -1.0918
12497TIP3    H258983   6.538   6.425   5.113 -1.1223 -0.0542 -2.4105
12498TIP3   OH258984   6.555   6.595  12.497  0.1244  0.1621  0.0275
12498TIP3    H158985   6.532   6.504  12.482 -0.4821  0.2247  0.5554
12498TIP3    H258986   6.571   6.601  12.591 -1.6338  0.9899  0.2880
12499TIP3   OH258987   5.124   3.825  15.630 -0.1025  0.2737  0.6451
12499TIP3    H158988   5.134   3.752  15.569 -0.8862  1.0931 -0.4708
12499TIP3    H258989   5.054   3.798  15.689 -1.1790  0.6046 -0.4778
12500TIP3   OH258990   4.219   1.122   2.672 -1.4267  0.0645 -0.3396
12500TIP3    H158991   4.287   1.162   2.726 -1.7388  0.8274 -0.5093
12500TIP3    H258992   4.224   1.028   2.693 -1.0674  0.2630  0.4740
12501TIP3   OH258993   1.821   4.048   1.270 -0.5592  0.2504  0.7830
12501TIP3    H158994   1.736   4.009   1.249  0.1307 -0.7068 -0.2692
12501TIP3    H258995   1.800   4.118   1.332 -1.9403 -1.0858  1.8916
12502TIP3   OH258996   4.626   2.740   3.005  0.5455 -0.1360  0.1286
12502TIP3    H158997   4.620   2.706   2.916 -1.0564  1.2333 -0.3058
12502TIP3    H258998   4.589   2.671   3.060  0.8279 -0.6612 -0.3328
12503TIP3   OH258999   4.453   1.737   3.042 -0.3114  0.4358 -0.0167
12503TIP3    H159000   4.531   1.787   3.018  0.3639 -0.6799 -0.1556
12503TIP3    H259001   4.466   1.651   3.001 -1.9958  0.5055 -0.7379
12504TIP3   OH259002   4.533   5.709   2.359  0.0578 -0.2335 -0.2205
12504TIP3    H159003   4.465   5.722   2.293 -0.8692 -0.3887  0.6874
12504TIP3    H259004   4.484   5.695   2.440  1.1452 -1.8069  0.1725
12505TIP3   OH259005   3.615   0.862   0.414 -0.2064  0.5264  0.6983
12505TIP3    H159006   3.581   0.951   0.404  0.7702  0.9771  1.2884
12505TIP3    H259007   3.603   0.842   0.507 -0.3905  0.0603  0.5716
12506TIP3   OH259008   6.203   1.600  15.721  0.2607  0.0097 -0.1562
12506TIP3    H159009   6.237   1.662  15.786  0.7890 -1.0104  0.5491
12506TIP3    H259010   6.197   1.517  15.768  0.9401 -0.8146 -1.4983
12507TIP3   OH259011   4.303   0.149   1.939 -0.5724 -0.3540 -0.1072
12507TIP3    H159012   4.290   0.190   1.853  0.4670  0.6403  0.1896
12507TIP3    H259013   4.304   0.223   2.000 -0.5104 -0.9934  0.6676
12508TIP3   OH259014   0.393   1.184  13.924  0.2406  0.6027  0.3521
12508TIP3    H159015   0.369   1.274  13.902 -1.2109  0.2382  0.3582
12508TIP3    H259016   0.391   1.138  13.840 -1.3493  0.0745  0.6728
12509TIP3   OH259017   0.909   1.212   6.423 -0.1152 -0.2796 -0.4083
12509TIP3    H159018   0.875   1.155   6.355 -0.5028 -2.5691  1.6307
12509TIP3    H259019   0.868   1.297   6.406 -0.3825 -0.8712 -2.8556
12510TIP3   OH259020   5.840   0.710  12.200 -0.2691  0.1390 -0.2169
12510TIP3    H159021   5.917   0.671  12.159 -0.7135 -1.9813  0.8652
12510TIP3    H259022   5.778   0.724  12.128  0.2589 -0.3072 -0.7620
12511TIP3   OH259023   2.641   0.215   2.709 -0.0138 -0.5805 -0.0639
12511TIP3    H159024   2.558   0.230   2.753 -0.0128 -0.7046 -0.0207
12511TIP3    H259025   2.637   0.124   2.679  0.3821 -0.7920  0.5220
12512TIP3   OH259026   0.418   4.107  13.589  0.7128 -0.7195 -1.0139
12512TIP3    H159027   0.378   4.111  13.502 -2.0600 -0.3140  0.2368
12512TIP3    H259028   0.400   4.193  13.627  1.1044 -1.2147  0.3087
12513TIP3   OH259029   3.266   6.801   3.913 -0.2860  0.0171 -0.1332
12513TIP3    H159030   3.203   6.732   3.932 -0.1274 -0.2589 -0.6071
12513TIP3    H259031   3.220   6.861   3.855 -0.9380  1.1236  1.4829
12514TIP3   OH259032   1.449   6.457  12.017 -0.1828  0.4073  0.0596
12514TIP3    H159033   1.514   6.421  12.078  0.0394  1.2338  0.3204
12514TIP3    H259034   1.474   6.549  12.007 -1.3301  0.7455  0.1837
12515TIP3   OH259035   0.068   5.338  11.185 -0.6789 -0.4498  0.1495
12515TIP3    H159036   0.100   5.423  11.156  2.3123 -1.2325  1.0116
12515TIP3    H259037   0.009   5.309  11.115 -1.2205  2.0150 -0.4484
12516TIP3   OH259038   2.446   2.270  12.403 -0.3256  0.0018 -0.3317
12516TIP3    H159039   2.506   2.275  12.477 -1.0157 -2.4354  0.4493
12516TIP3    H259040   2.359   2.264  12.443 -0.7154 -1.1140 -1.3107
12517TIP3   OH259041   0.929   6.360   0.923 -0.5746  0.4819  0.9643
12517TIP3    H159042   0.847   6.410   0.924 -1.5328 -1.0667  0.9376
12517TIP3    H259043   0.901   6.269   0.930  1.1939 -0.0165  1.6598
12518TIP3   OH259044   3.535   4.510   1.724 -0.0007 -0.4411 -0.2409
12518TIP3    H159045   3.483   4.446   1.675 -1.6469  0.8347 -0.2107
12518TIP3    H259046   3.577   4.459   1.793 -1.4443 -1.4636 -0.0994
12519TIP3   OH259047   5.787   4.259   0.409  0.2908 -0.1976  0.1669
12519TIP3    H159048   5.854   4.325   0.391  1.7177 -1.4779  0.6395
12519TIP3    H259049   5.760   4.275   0.499 -0.9542  1.1036 -0.4280
12520TIP3   OH259050   2.301   3.059   4.870 -0.0862  0.1172 -0.0300
12520TIP3    H159051   2.396   3.062   4.873 -0.1194  0.7837  0.4591
12520TIP3    H259052   2.278   2.975   4.911  0.3222 -0.4354 -0.9428
12521TIP3   OH259053   1.682   1.439  12.635 -0.3151  0.2033 -0.2717
12521TIP3    H159054   1.707   1.402  12.550 -1.6547 -0.2131 -0.4945
12521TIP3    H259055   1.632   1.517  12.613  0.5104  0.8721  0.1702
12522TIP3   OH259056   4.774   4.641  12.627  0.4095  0.4321  0.0786
12522TIP3    H159057   4.766   4.665  12.720  0.3286 -1.4457  0.5722
12522TIP3    H259058   4.845   4.577  12.625  0.3029  0.3466 -1.1406
12523TIP3   OH259059   6.729   5.786  13.459  0.5321  0.0070  0.0187
12523TIP3    H159060   6.754   5.794  13.551  1.4742 -0.3674 -0.2032
12523TIP3    H259061   6.717   5.692  13.445 -1.0885  0.1907  0.1440
12524TIP3   OH259062   1.904   6.028  14.973  0.6407 -0.0874  0.0911
12524TIP3    H159063   1.889   6.054  14.882 -1.5973  0.4328  0.5814
12524TIP3    H259064   1.862   5.942  14.981 -0.3490  0.4657  0.9600
12525TIP3   OH259065   1.382   4.009  14.568  0.1752  0.1381  0.0483
12525TIP3    H159066   1.407   4.051  14.486 -0.7354 -1.0092 -0.8271
12525TIP3    H259067   1.287   4.002  14.563  0.4087 -3.3430 -0.4799
12526TIP3   OH259068   5.820   2.951  14.338 -0.0394  0.0160  0.2649
12526TIP3    H159069   5.823   3.009  14.262 -1.2943 -0.4299 -0.1378
12526TIP3    H259070   5.784   2.869  14.305 -1.7671  0.2088  1.5526
12527TIP3   OH259071   4.961   6.001   2.040 -0.3265 -0.5581  0.1851
12527TIP3    H159072   4.906   6.075   2.014 -1.6692 -1.6569 -0.2282
12527TIP3    H259073   5.047   6.019   2.001 -1.1396 -0.0878 -1.4495
12528TIP3   OH259074   5.997   5.237  16.744 -0.2279 -0.1706 -0.2127
12528TIP3    H159075   5.930   5.170  16.733 -1.7714  1.1250  0.9387
12528TIP3    H259076   6.006   5.246  16.839 -0.7817  1.9136 -0.3328
12529TIP3   OH259077   2.625   0.598   1.310 -0.1104 -0.1515 -0.1754
12529TIP3    H159078   2.712   0.623   1.279 -0.0584  0.0027  0.0986
12529TIP3    H259079   2.565   0.638   1.246 -0.0038  0.2033 -0.0542
12530TIP3   OH259080   1.436   4.913  10.771  0.3916  0.3098 -0.1686
12530TIP3    H159081   1.392   4.988  10.732 -0.5604  0.2150  0.7031
12530TIP3    H259082   1.501   4.886  10.705  0.4582  1.6305 -0.6488
12531TIP3   OH259083   0.015   5.672   1.058  0.0622  0.3722 -0.4523
12531TIP3    H159084   0.071   5.750   1.057  1.6955 -0.7859 -2.2901
12531TIP3    H259085   0.028   5.634   1.145 -1.6495  2.7335  0.9046
12532TIP3   OH259086   4.775   6.499  13.884  0.0052 -0.6317  0.0548
12532TIP3    H159087   4.789   6.560  13.812 -1.3362 -1.3921 -0.8693
12532TIP3    H259088   4.844   6.520  13.947 -0.1754  1.5275 -0.4328
12533TIP3   OH259089   4.054   4.660  14.172 -0.2409  0.0470  0.5402
12533TIP3    H159090   4.118   4.644  14.242 -0.8723 -2.6568  0.5743
12533TIP3    H259091   4.078   4.598  14.103 -1.4746  0.5649 -0.3761
12534TIP3   OH259092   6.806   2.538  11.851  0.1638  0.4729 -0.0001
12534TIP3    H159093   6.861   2.565  11.778 -0.2800  0.9686 -0.1546
12534TIP3    H259094   6.718   2.569  11.828 -0.2150 -0.4445  0.1661
12535TIP3   OH259095   4.606   6.589   6.105 -0.3304  0.1519  0.7770
12535TIP3    H159096   4.606   6.565   6.198  1.1428  2.6533  1.5005
12535TIP3    H259097   4.694   6.625   6.090 -2.0030  4.0527 -0.3542
12536TIP3   OH259098   3.855   6.653   5.437 -0.2204  0.2946 -0.1041
12536TIP3    H159099   3.817   6.712   5.371 -0.0049 -0.5733 -1.0159
12536TIP3    H259100   3.948   6.650   5.415 -0.4935 -1.6919 -1.1130
12537TIP3   OH259101   0.500   0.005   1.965  0.0408  0.3680  0.5910
12537TIP3    H159102   0.489  -0.083   1.930  1.3604 -0.0322  1.1705
12537TIP3    H259103   0.449   0.005   2.046 -1.5907  0.7642 -0.4070
12538TIP3   OH259104   2.591   4.085  16.967 -0.1026  0.4045  0.1419
12538TIP3    H159105   2.631   4.025  16.905 -1.9826  0.3548 -1.0464
12538TIP3    H259106   2.503   4.101  16.933 -1.4053 -0.0925  3.0675
12539TIP3   OH259107   1.820   1.644  13.584 -0.0603 -0.2940 -0.4628
12539TIP3    H159108   1.771   1.616  13.507 -0.9359 -0.4377  0.1307
12539TIP3    H259109   1.845   1.734  13.566 -2.1702  0.4123 -0.0020
12540TIP3   OH259110   5.943   1.441   0.505 -0.0532  0.1117 -0.4194
12540TIP3    H159111   5.940   1.470   0.596  0.1957  0.4910 -0.5327
12540TIP3    H259112   6.029   1.400   0.495  0.7925  2.0008 -1.0656
12541TIP3   OH259113   0.491   1.207  12.486 -0.1177 -0.4199  0.4765
12541TIP3    H159114   0.531   1.120  12.487  0.3488 -0.2033  2.7709
12541TIP3    H259115   0.398   1.192  12.504 -0.2930 -0.5426 -0.4927
12542TIP3   OH259116   4.906   4.702  15.891  0.3260  0.3256  0.4203
12542TIP3    H159117   4.957   4.755  15.829  0.1252  1.3129  1.0891
12542TIP3    H259118   4.963   4.692  15.967  0.4007 -0.5184  0.2631
12543TIP3   OH259119   0.095   1.403   0.357 -0.1596 -0.4028  0.5006
12543TIP3    H159120   0.122   1.314   0.335  1.2747  0.2302 -0.4111
12543TIP3    H259121   0.103   1.451   0.274 -2.6049  0.1998  0.5672
12544TIP3   OH259122   3.000   4.254  14.902 -0.2026  0.2988  0.0534
12544TIP3    H159123   2.995   4.261  14.806 -0.7025  1.4732  0.1563
12544TIP3    H259124   2.935   4.188  14.925 -1.7676  1.6955 -0.2341
12545TIP3   OH259125   4.178   4.833  11.942 -0.4908  0.1029  0.0538
12545TIP3    H159126   4.168   4.738  11.950  0.5118 -0.2635 -2.5052
12545TIP3    H259127   4.273   4.846  11.938 -0.4757  1.5545  3.4912
12546TIP3   OH259128   6.026   6.387  12.014  0.3448  0.0263  0.3950
12546TIP3    H159129   6.063   6.451  11.952 -1.1552  0.0145 -0.5395
12546TIP3    H259130   5.952   6.433  12.055  0.4692 -0.4468  1.1576
12547TIP3   OH259131   4.341   4.270   0.605  0.0309  0.1097 -0.2281
12547TIP3    H159132   4.428   4.268   0.644  0.8557  3.9262 -1.6531
12547TIP3    H259133   4.341   4.198   0.542  0.9062 -2.0477  2.1676
12548TIP3   OH259134   1.940   4.607  16.346 -0.3444 -0.1278  0.3606
12548TIP3    H159135   2.003   4.672  16.378  0.1422 -0.2424 -0.3600
12548TIP3    H259136   1.958   4.528  16.397  0.9106 -0.5272 -0.7033
12549TIP3   OH259137   2.622   3.766  12.964  0.0900 -0.2138  0.1734
12549TIP3    H159138   2.594   3.837  12.906 -0.7039  1.2012  2.2409
12549TIP3    H259139   2.703   3.797  13.004 -0.3959 -0.3570  1.2815
12550TIP3   OH259140   2.123   3.282   1.293 -0.1972 -0.0764  0.2579
12550TIP3    H159141   2.072   3.357   1.324  0.5925  0.2272  0.8163
12550TIP3    H259142   2.058   3.226   1.251 -0.8242  0.8322 -0.0119
12551TIP3   OH259143   6.674   2.726  16.720 -0.0261  0.0638  0.2325
12551TIP3    H159144   6.737   2.785  16.680  0.9449 -1.5065 -0.5991
12551TIP3    H259145   6.727   2.654  16.755 -1.1475 -0.1536  1.5511
12552TIP3   OH259146   5.665   6.764  13.179  0.0070 -0.4525  0.0335
12552TIP3    H159147   5.689   6.692  13.238  3.0499 -0.2639 -0.8735
12552TIP3    H259148   5.676   6.842  13.233 -1.5033 -0.5211  0.4696
12553TIP3   OH259149   1.378   0.674   2.606 -0.3490 -0.2281 -0.5613
12553TIP3    H159150   1.417   0.633   2.528  0.8620 -1.9839  0.9286
12553TIP3    H259151   1.304   0.618   2.628 -0.0392 -0.3444  0.1822
12554TIP3   OH259152   2.199   2.523   3.093 -0.2138  0.4027  0.5742
12554TIP3    H159153   2.285   2.556   3.119  0.0321  0.6605 -0.5278
12554TIP3    H259154   2.178   2.571   3.013 -1.3776  0.3218  0.8237
12555TIP3   OH259155   4.906   0.316   1.729  0.7347 -0.7619  0.1004
12555TIP3    H159156   4.876   0.236   1.685  1.2577 -1.4857  1.0305
12555TIP3    H259157   4.898   0.296   1.823  1.1829  0.1574  0.3408
12556TIP3   OH259158   3.952   5.047  15.261 -0.5151  0.3754 -0.3685
12556TIP3    H159159   4.042   5.021  15.244 -0.9157 -1.2838 -0.0499
12556TIP3    H259160   3.924   5.090  15.180  0.7667  1.5304 -0.2120
12557TIP3   OH259161   5.085   2.394   4.344 -0.7256 -0.3429 -0.2795
12557TIP3    H159162   5.111   2.303   4.334 -1.8966 -0.5704 -1.2641
12557TIP3    H259163   5.028   2.395   4.421 -0.5610 -0.4065 -0.1566
12558TIP3   OH259164   3.866   3.034   3.890  0.1937  0.0587  0.1685
12558TIP3    H159165   3.790   3.078   3.928  1.6983  1.9940  1.0078
12558TIP3    H259166   3.909   3.100   3.836  0.5298 -1.4146 -1.4070
12559TIP3   OH259167   4.861   0.786  15.083  0.3520  0.0646 -0.0074
12559TIP3    H159168   4.811   0.866  15.093  2.4189  1.5141 -0.8254
12559TIP3    H259169   4.865   0.771  14.989  0.2932 -0.8036  0.1197
12560TIP3   OH259170   6.415   0.479  15.638 -0.2475  0.0366  0.5629
12560TIP3    H159171   6.363   0.556  15.663 -0.1640  0.0387  0.7328
12560TIP3    H259172   6.364   0.438  15.569 -0.0841  0.4780  0.1784
12561TIP3   OH259173   3.363   3.322  15.845  0.3521 -0.7015  0.0635
12561TIP3    H159174   3.458   3.323  15.848  0.3301  1.4809  0.6574
12561TIP3    H259175   3.341   3.387  15.777 -0.7620  1.4939  2.4496
12562TIP3   OH259176   6.496   6.002   1.349 -0.3911 -0.8058  0.4141
12562TIP3    H159177   6.531   6.087   1.375 -0.5264 -0.6808  0.1933
12562TIP3    H259178   6.472   6.014   1.256 -2.6416 -0.3488  1.0087
12563TIP3   OH259179   1.379   5.970  14.898 -0.0091 -0.3609 -0.4480
12563TIP3    H159180   1.293   6.007  14.881  0.1746  0.0084 -0.5989
12563TIP3    H259181   1.394   5.985  14.991 -0.1988 -0.6223 -0.3772
12564TIP3   OH259182   4.782   4.032  14.589  0.2253 -0.2016  0.3177
12564TIP3    H159183   4.764   4.089  14.515  1.9416  0.4484  0.3919
12564TIP3    H259184   4.749   4.080  14.665 -0.9698 -0.6018  0.0730
12565TIP3   OH259185   3.433   2.159  15.309  0.1349  0.0284  0.2017
12565TIP3    H159186   3.410   2.252  15.306 -0.6408 -0.2003 -0.9793
12565TIP3    H259187   3.529   2.158  15.305  0.1178  0.7520 -0.5098
12566TIP3   OH259188   4.427   6.616  11.292  0.0831  0.0820 -0.5088
12566TIP3    H159189   4.404   6.535  11.337 -1.1532 -0.0973 -1.4249
12566TIP3    H259190   4.413   6.597  11.199 -0.4352  1.4169 -0.7153
12567TIP3   OH259191   0.813   6.330  15.420  0.2078  0.1202 -0.3104
12567TIP3    H159192   0.900   6.368  15.410  0.0766  0.9010  1.3452
12567TIP3    H259193   0.810   6.300  15.511 -1.3268  0.2646 -0.2914
12568TIP3   OH259194   2.421   3.984   1.280 -0.4960  0.0490  0.0638
12568TIP3    H159195   2.513   3.966   1.260 -0.0755  1.4866  0.6582
12568TIP3    H259196   2.419   4.076   1.308 -2.3594  0.5295 -1.4985
12569TIP3   OH259197   2.403   2.135  11.789  0.1777  0.7024 -0.1842
12569TIP3    H159198   2.438   2.144  11.877  0.3466  0.0308 -0.1757
12569TIP3    H259199   2.466   2.079  11.743 -0.6256 -0.1333 -0.3045
12570TIP3   OH259200   3.107   1.491   7.011  0.6427  0.3695  0.3385
12570TIP3    H159201   3.098   1.445   7.094  1.7281 -0.4977 -0.0086
12570TIP3    H259202   3.079   1.428   6.945 -0.7274  1.2308  0.0714
12571TIP3   OH259203   1.950   1.769  13.841 -0.0407 -0.2447  0.5694
12571TIP3    H159204   1.894   1.810  13.907  1.0107 -0.6699  1.7431
12571TIP3    H259205   1.925   1.811  13.758 -1.6481  0.0043  1.1675
12572TIP3   OH259206   0.301   4.586   5.029 -0.4956  0.2306 -0.8999
12572TIP3    H159207   0.314   4.594   4.935 -0.1475 -1.5936 -1.0206
12572TIP3    H259208   0.219   4.536   5.038  0.3267 -1.0224 -0.2621
12573TIP3   OH259209   2.711   4.374  14.085 -0.2771  0.5026  0.0383
12573TIP3    H159210   2.795   4.373  14.039  0.3309  0.5209  1.1304
12573TIP3    H259211   2.647   4.399  14.018  0.8158  2.1870 -0.3990
12574TIP3   OH259212   0.698   1.657  14.310  0.0653  0.1297 -0.2297
12574TIP3    H159213   0.609   1.684  14.289 -0.6516 -0.3712  2.0284
12574TIP3    H259214   0.725   1.603  14.235 -1.4863  0.3430 -0.9611
12575TIP3   OH259215   2.320   2.420   4.364  0.1003 -0.0973 -0.4001
12575TIP3    H159216   2.232   2.392   4.389 -0.7307  1.6814 -1.2101
12575TIP3    H259217   2.371   2.339   4.361 -1.0018 -0.9265  2.0294
12576TIP3   OH259218   0.344   3.111   5.028 -0.6567 -0.3672 -0.1129
12576TIP3    H159219   0.326   3.204   5.039  2.6575  0.3552 -0.4442
12576TIP3    H259220   0.337   3.096   4.933  0.7957 -0.0141 -0.2789
12577TIP3   OH259221   2.712   4.275   1.331  0.4677  0.2705  0.0104
12577TIP3    H159222   2.655   4.222   1.276  1.1398 -0.8778  0.3923
12577TIP3    H259223   2.704   4.236   1.418  1.8675  0.0432  0.0571
12578TIP3   OH259224   6.275   4.714  13.633  0.4857 -0.3920 -0.2861
12578TIP3    H159225   6.289   4.749  13.545  0.6134 -0.3303 -0.2410
12578TIP3    H259226   6.205   4.768  13.669 -0.3418 -1.1247 -0.7606
12579TIP3   OH259227   3.360   3.086  11.346  0.6965  0.2260 -0.2452
12579TIP3    H159228   3.400   3.101  11.260  0.4404 -2.3997 -0.8530
12579TIP3    H259229   3.321   3.171  11.369  1.6458  1.2351 -2.2515
12580TIP3   OH259230   6.071   2.400  11.784 -0.2826 -0.1733  0.5008
12580TIP3    H159231   5.982   2.364  11.790 -0.4681 -0.0098 -0.9368
12580TIP3    H259232   6.068   2.480  11.837 -1.2570  0.2908 -0.2156
12581TIP3   OH259233   2.059   1.051   3.002  0.3273 -0.1218  1.1228
12581TIP3    H159234   2.118   1.068   3.075  1.6151 -0.1603  0.1060
12581TIP3    H259235   2.048   1.136   2.959  0.1007 -0.2309  0.9577
12582TIP3   OH259236   4.299   2.276   6.026  0.5968  0.4946 -0.4376
12582TIP3    H159237   4.379   2.312   6.066  0.5452  0.6446 -0.4699
12582TIP3    H259238   4.298   2.184   6.054 -0.9073  1.2770  2.2494
12583TIP3   OH259239   3.912   0.863   4.131  0.4272  0.4806  0.0869
12583TIP3    H159240   3.834   0.870   4.075  0.0921 -0.2882  0.4503
12583TIP3    H259241   3.980   0.909   4.082 -0.3272  1.4197 -0.1079
12584TIP3   OH259242   1.787   4.845  14.783 -0.3174  0.3318 -0.2257
12584TIP3    H159243   1.860   4.798  14.824 -1.0484 -0.7058 -0.1095
12584TIP3    H259244   1.748   4.782  14.722 -1.3882  0.7346  0.0296
12585TIP3   OH259245   5.683   6.226  16.356  0.0003  0.5782 -0.2934
12585TIP3    H159246   5.615   6.207  16.420 -0.8896  1.0176 -1.0949
12585TIP3    H259247   5.638   6.270  16.284  1.1258  0.8705 -0.8480
12586TIP3   OH259248   5.618   6.662  12.935 -0.3845  0.4317 -0.1953
12586TIP3    H159249   5.610   6.571  12.965 -0.5320  0.4929 -0.0442
12586TIP3    H259250   5.643   6.711  13.013  0.0625  0.4646 -0.3582
12587TIP3   OH259251   1.495   4.685  12.327 -0.2964  0.5713 -0.0640
12587TIP3    H159252   1.500   4.767  12.279 -2.5839 -0.0493 -1.4249
12587TIP3    H259253   1.507   4.617  12.260  1.2194 -0.2446  0.9886
12588TIP3   OH259254   2.955   6.015   2.166  0.3129  0.7566  0.1264
12588TIP3    H159255   2.880   5.955   2.164  1.2386 -0.4028 -1.0127
12588TIP3    H259256   2.951   6.056   2.252 -0.7509 -0.4212  0.6497
12589TIP3   OH259257   5.917   1.312   5.650 -0.1116 -0.1613 -0.7614
12589TIP3    H159258   5.948   1.266   5.728  1.3312  0.7866 -0.7390
12589TIP3    H259259   5.828   1.281   5.637 -0.1265 -0.8549  0.8648
12590TIP3   OH259260   6.081   2.639   6.035  0.9262  0.7711  0.2131
12590TIP3    H159261   6.065   2.690   6.115  0.6034 -0.8816  1.2314
12590TIP3    H259262   6.015   2.669   5.974 -0.5215  0.1941  1.4602
12591TIP3   OH259263   6.565   6.393   3.736 -0.3412 -0.5250  0.1207
12591TIP3    H159264   6.576   6.440   3.653  1.7831  0.2285  0.7840
12591TIP3    H259265   6.623   6.317   3.727 -2.1540 -1.9019 -0.1170
12592TIP3   OH259266   1.947   2.899  12.565  0.1321 -0.3627 -0.0130
12592TIP3    H159267   2.008   2.961  12.605 -1.2275  0.6944  0.4585
12592TIP3    H259268   1.982   2.886  12.477  2.1913 -1.3916  0.9186
12593TIP3   OH259269   2.157   5.567   3.034 -0.0445 -0.2341 -0.0858
12593TIP3    H159270   2.241   5.538   2.998  0.0334 -2.4765  1.7964
12593TIP3    H259271   2.094   5.502   3.005 -0.7097  0.1793  0.4063
12594TIP3   OH259272   2.140   1.730  16.549 -0.6186 -0.1028 -0.3237
12594TIP3    H159273   2.171   1.728  16.459 -0.4084  0.7588 -0.2765
12594TIP3    H259274   2.081   1.655  16.556  0.5885 -1.1182 -0.7332
12595TIP3   OH259275   4.648   0.799  13.219 -0.1200 -0.1541 -0.3120
12595TIP3    H159276   4.690   0.718  13.247 -0.9651 -0.4825  0.0300
12595TIP3    H259277   4.617   0.780  13.130 -1.3161 -0.5979  0.1872
12596TIP3   OH259278   1.107   5.055   5.459  0.2296 -0.0535 -0.5336
12596TIP3    H159279   1.135   5.035   5.370  0.8782 -1.8401  0.0410
12596TIP3    H259280   1.057   4.978   5.487  1.1213 -0.0767  1.0718
12597TIP3   OH259281   4.712   1.352   5.492 -0.1849 -0.6067 -0.5542
12597TIP3    H159282   4.745   1.303   5.567  0.1942  0.8427  0.2466
12597TIP3    H259283   4.650   1.293   5.450 -0.9433 -1.1645  1.3140
12598TIP3   OH259284   2.805   3.289   4.469 -0.1662  0.0210 -0.5266
12598TIP3    H159285   2.832   3.218   4.527 -1.6474 -0.6285 -0.5958
12598TIP3    H259286   2.720   3.317   4.505 -0.6183  0.2807 -1.7822
12599TIP3   OH259287   2.380   1.471   0.670  0.0911  0.3823  0.5077
12599TIP3    H159288   2.395   1.423   0.751  2.2512  0.3834  0.1275
12599TIP3    H259289   2.426   1.554   0.682  3.5495 -1.0353 -2.0410
12600TIP3   OH259290   2.365   6.269   3.648 -0.2202  0.3275 -0.7660
12600TIP3    H159291   2.369   6.209   3.574  0.2619 -0.3066 -0.2332
12600TIP3    H259292   2.454   6.305   3.654  0.0597 -0.5281  0.2437
12601TIP3   OH259293   5.298   1.617   2.707 -0.4576  0.4670  0.0227
12601TIP3    H159294   5.380   1.579   2.739 -1.1835 -2.0579 -1.0307
12601TIP3    H259295   5.231   1.580   2.764 -1.5232 -2.4234 -2.9584
12602TIP3   OH259296   2.767   4.161  12.889 -0.9324 -0.2379  0.2608
12602TIP3    H159297   2.847   4.118  12.920  0.3220  1.0016 -1.1202
12602TIP3    H259298   2.731   4.204  12.966  2.4185  3.2681  0.0239
12603TIP3   OH259299   4.085   3.743   2.284 -0.5474  0.4441 -0.5548
12603TIP3    H159300   4.101   3.678   2.352 -1.3766  0.4044 -0.3975
12603TIP3    H259301   4.148   3.722   2.215 -0.1078  0.1212 -0.0509
12604TIP3   OH259302   0.173   0.955  11.528 -0.0154  0.2566  0.5055
12604TIP3    H159303   0.234   0.999  11.469 -1.3422  0.7634 -0.5094
12604TIP3    H259304   0.178   0.863  11.503  0.7632  0.1933  0.8433
12605TIP3   OH259305   4.423   1.714   4.993  0.0180  0.4425  0.4734
12605TIP3    H159306   4.333   1.723   5.025  0.2339  0.3134  1.1378
12605TIP3    H259307   4.450   1.626   5.020  0.4623  0.6135  0.5959
12606TIP3   OH259308   2.617   0.043  11.584  0.0305 -0.1385 -0.4285
12606TIP3    H159309   2.552   0.030  11.514 -0.5105  0.9437 -0.1460
12606TIP3    H259310   2.673   0.114  11.551 -2.1018  2.5409  1.4962
12607TIP3   OH259311   1.194   0.291  17.170  0.3143  0.1888 -0.4831
12607TIP3    H159312   1.185   0.231  17.096 -3.5250  0.4903 -0.3821
12607TIP3    H259313   1.152   0.246  17.243  3.5324  0.1534  1.4183
12608TIP3   OH259314   4.759   3.598  13.645  0.7117  0.6302 -0.4265
12608TIP3    H159315   4.796   3.512  13.662  1.8097  0.8082 -1.8467
12608TIP3    H259316   4.674   3.580  13.605  0.3446  0.2219  0.5236
12609TIP3   OH259317   5.888   2.227  11.745 -0.4409 -0.0479  0.3372
12609TIP3    H159318   5.796   2.247  11.729 -0.1746  0.6761 -0.3105
12609TIP3    H259319   5.930   2.239  11.660  0.1078 -1.1949  0.4439
12610TIP3   OH259320   5.752   3.235   6.500  0.1638  0.4223 -0.1160
12610TIP3    H159321   5.799   3.305   6.545 -1.2981  0.0583  2.1004
12610TIP3    H259322   5.814   3.162   6.497  0.5219  0.6774  0.7829
12611TIP3   OH259323   6.511   4.693  16.915  0.0319 -0.5174 -0.3007
12611TIP3    H159324   6.590   4.725  16.871  0.3227 -0.6305  0.1308
12611TIP3    H259325   6.521   4.722  17.006 -0.8771  0.2677 -0.4484
12612TIP3   OH259326   0.087   6.673  11.691 -0.0884  0.0688  0.4194
12612TIP3    H159327   0.019   6.738  11.677  1.5199  1.7209  0.1255
12612TIP3    H259328   0.080   6.614  11.616  1.1043  2.3043 -1.5161
12613TIP3   OH259329   6.045   6.389   0.704  0.0472  0.5790 -0.3513
12613TIP3    H159330   6.119   6.394   0.643  0.6916 -1.2994  0.2238
12613TIP3    H259331   5.979   6.448   0.667  0.9736  0.5674 -2.0883
12614TIP3   OH259332   3.254   3.321  11.426 -0.4795  0.3018  0.0502
12614TIP3    H159333   3.273   3.406  11.465  0.7642 -0.3092  0.8000
12614TIP3    H259334   3.161   3.305  11.446 -0.1260  0.4689  1.8647
12615TIP3   OH259335   5.069   3.026   3.454  0.0886  0.6316 -0.6874
12615TIP3    H159336   5.004   3.045   3.522  2.1008  1.0620  1.1733
12615TIP3    H259337   5.041   3.079   3.379 -0.6307  2.3422  0.7419
12616TIP3   OH259338   5.198   5.384   2.643  0.1118  0.1318  0.1124
12616TIP3    H159339   5.175   5.449   2.709 -0.0395  0.0771  0.1135
12616TIP3    H259340   5.145   5.407   2.567  0.1806  0.1100  0.0573
12617TIP3   OH259341   3.560   6.612  13.984  0.1417  0.1396  0.1630
12617TIP3    H159342   3.555   6.656  14.069 -0.2488  0.1512  0.1365
12617TIP3    H259343   3.644   6.639  13.947 -0.3018  1.2327 -0.0657
12618TIP3   OH259344   0.228   2.032  13.651  0.2116  0.6911 -0.5099
12618TIP3    H159345   0.221   2.001  13.741 -0.2901  3.4291  0.4365
12618TIP3    H259346   0.158   1.986  13.605  0.9385 -1.2993  0.2758
12619TIP3   OH259347   4.245   1.265   4.934  0.3218 -0.6394 -0.7016
12619TIP3    H159348   4.283   1.266   5.022 -0.5119  2.4955 -0.2924
12619TIP3    H259349   4.160   1.222   4.945  0.0463  0.0964  0.1335
12620TIP3   OH259350   2.622   1.296  15.853  0.0137 -0.2996 -0.0746
12620TIP3    H159351   2.547   1.287  15.794  1.5325  0.6811 -2.2386
12620TIP3    H259352   2.634   1.390  15.864 -0.3126 -0.4728  1.9325
12621TIP3   OH259353   1.347   5.451  13.354  0.1937 -0.6584 -0.2399
12621TIP3    H159354   1.386   5.538  13.348 -1.3520 -0.0208 -1.5159
12621TIP3    H259355   1.397   5.398  13.291  1.2361 -0.7624  0.6511
12622TIP3   OH259356   6.497   6.223   4.931  0.2444  0.2851 -0.0026
12622TIP3    H159357   6.541   6.286   4.987  0.7131  0.5656 -0.6754
12622TIP3    H259358   6.471   6.273   4.854 -2.7441  0.5060  1.0792
12623TIP3   OH259359   2.851   1.128  15.589  0.2181  0.0329  0.0732
12623TIP3    H159360   2.861   1.195  15.521 -2.0780  0.5576  0.1959
12623TIP3    H259361   2.879   1.171  15.670 -0.5736  0.6356  0.0334
12624TIP3   OH259362   1.709   5.595  12.662 -0.1338 -0.1930 -0.1268
12624TIP3    H159363   1.667   5.509  12.662 -1.4614  0.4460  1.1201
12624TIP3    H259364   1.750   5.601  12.575 -3.2431 -0.5468 -1.6783
12625TIP3   OH259365   1.878   0.310   1.993 -0.1486  0.1434 -0.0188
12625TIP3    H159366   1.786   0.283   1.999 -0.3962  0.6443 -1.3988
12625TIP3    H259367   1.927   0.234   2.025 -1.0428 -0.1532  0.6538
12626TIP3   OH259368   0.523   3.984   3.906 -0.4103  0.0007 -0.0796
12626TIP3    H159369   0.576   3.967   3.983 -0.1936 -0.2429 -0.2820
12626TIP3    H259370   0.502   4.077   3.912  0.1532  0.1333 -0.0658
12627TIP3   OH259371   3.469   1.340   2.985  0.2958 -0.5463 -0.4390
12627TIP3    H159372   3.416   1.329   2.906 -0.4052 -2.3448  0.2662
12627TIP3    H259373   3.522   1.260   2.990  0.2633 -0.4906  0.9689
12628TIP3   OH259374   2.600   2.868  11.227  0.4383  0.2550 -0.3819
12628TIP3    H159375   2.617   2.780  11.191 -0.1173  0.7330 -1.8204
12628TIP3    H259376   2.607   2.926  11.152 -0.8212  1.2686  0.2787
12629TIP3   OH259377   2.110   6.763   1.720 -0.0998  0.4618 -0.4388
12629TIP3    H159378   2.187   6.781   1.774 -0.5325  1.8166 -0.2615
12629TIP3    H259379   2.124   6.674   1.687  1.1769  0.4205  0.1985
12630TIP3   OH259380   4.290   4.544  13.080  0.1269  0.0904 -0.4900
12630TIP3    H159381   4.264   4.606  13.013 -0.1311  0.2209 -0.2733
12630TIP3    H259382   4.236   4.466  13.063  2.3600 -1.0907 -2.3989
12631TIP3   OH259383   1.345   6.491  16.909 -0.0004 -0.3174  0.2053
12631TIP3    H159384   1.294   6.572  16.898  0.8183  0.2104  0.2183
12631TIP3    H259385   1.347   6.452  16.822  1.5274  0.8567 -0.3174
12632TIP3   OH259386   0.549   6.735   4.387  0.0873  0.0085  0.5212
12632TIP3    H159387   0.580   6.721   4.298  1.3025  1.3759  0.7096
12632TIP3    H259388   0.557   6.830   4.401  0.3284 -0.2443  2.2212
12633TIP3   OH259389   0.578   6.211   1.418 -0.1564 -0.3034 -0.3176
12633TIP3    H159390   0.569   6.201   1.323 -1.6290 -0.1028 -0.2038
12633TIP3    H259391   0.512   6.276   1.442  0.6290  0.1128  0.7648
12634TIP3   OH259392   1.968   0.867  12.275 -0.4674  0.1743 -0.1901
12634TIP3    H159393   1.876   0.892  12.278 -0.5165 -0.0854  0.5642
12634TIP3    H259394   1.978   0.821  12.191 -0.6417  1.6423 -1.0321
12635TIP3   OH259395   3.135   2.291  15.616  0.0444  1.0287  0.0854
12635TIP3    H159396   3.189   2.343  15.677  1.3660 -0.4711  0.2249
12635TIP3    H259397   3.105   2.355  15.551 -0.0637  2.3590  1.3932
12636TIP3   OH259398   4.690   3.209  17.182  0.5074 -0.4827  0.5800
12636TIP3    H159399   4.667   3.206  17.274 -1.6430  0.7995  0.1202
12636TIP3    H259400   4.707   3.117  17.158  0.1802 -0.9160  2.0087
12637TIP3   OH259401   3.364   6.370  11.241 -0.2647 -0.1466 -1.2597
12637TIP3    H159402   3.315   6.354  11.161  0.2775 -1.3180 -1.3503
12637TIP3    H259403   3.456   6.367  11.215 -0.0819 -0.7446 -0.5601
12638TIP3   OH259404   5.806   4.600  15.586  0.2025  0.1451  0.0830
12638TIP3    H159405   5.840   4.681  15.624  1.0758 -0.8016  1.3983
12638TIP3    H259406   5.713   4.600  15.608  0.3489  0.4504  0.7200
12639TIP3   OH259407   1.583   3.082   1.742 -0.4685 -0.1328  0.4681
12639TIP3    H159408   1.496   3.044   1.738 -0.7100  0.3224  1.4476
12639TIP3    H259409   1.611   3.071   1.832  0.4391 -0.1600  0.1944
12640TIP3   OH259410   4.956   5.983  11.984  0.6487  0.0972 -0.4952
12640TIP3    H159411   4.998   6.019  12.062  1.3761 -1.7500  0.0082
12640TIP3    H259412   5.013   6.008  11.912  1.4447 -0.4887 -0.0806
12641TIP3   OH259413   2.509   4.504   0.507 -0.2063  0.5019 -0.6130
12641TIP3    H159414   2.451   4.509   0.583  0.5133  0.6574 -0.0678
12641TIP3    H259415   2.455   4.533   0.434 -0.1348  2.9783  0.2687
12642TIP3   OH259416   6.180   2.789   2.435 -0.2158 -0.5171 -0.3420
12642TIP3    H159417   6.250   2.741   2.391 -1.0829 -2.1295 -0.0148
12642TIP3    H259418   6.140   2.725   2.494  0.2522  1.2998  2.0479
12643TIP3   OH259419   4.896   4.322  14.995  0.1560 -0.6327  0.2458
12643TIP3    H159420   4.920   4.242  14.949  1.7560  0.1623 -0.3496
12643TIP3    H259421   4.933   4.312  15.083 -0.3030 -0.8675  0.4133
12644TIP3   OH259422   1.301   2.100   5.165 -0.3620 -0.7412  0.3659
12644TIP3    H159423   1.296   2.010   5.197  0.3808 -1.4375 -1.4110
12644TIP3    H259424   1.395   2.120   5.164 -0.5063 -0.0184  0.5165
12645TIP3   OH259425   4.308   0.624   5.108  0.1282 -0.3610  1.1722
12645TIP3    H159426   4.332   0.567   5.035 -1.5672  0.7866 -0.3183
12645TIP3    H259427   4.229   0.584   5.144 -0.1749  0.1756  1.1030
12646TIP3   OH259428   6.245   5.229  12.001  0.3505 -0.4973  0.5939
12646TIP3    H159429   6.272   5.194  11.916  0.3435 -0.2020  0.4685
12646TIP3    H259430   6.154   5.256  11.988 -0.8274 -3.6982  1.6862
12647TIP3   OH259431   5.790   3.175   5.389  0.4101  0.4969  0.0904
12647TIP3    H159432   5.804   3.116   5.315  0.6038  0.7244 -0.0534
12647TIP3    H259433   5.760   3.117   5.460  1.3609  0.1058  0.1859
12648TIP3   OH259434   1.385   5.389   4.249  0.0484 -0.0050 -0.1682
12648TIP3    H159435   1.469   5.351   4.273 -1.6453 -3.7342  0.2426
12648TIP3    H259436   1.370   5.360   4.159 -0.6291  0.9477 -0.3740
12649TIP3   OH259437   3.372   5.795   1.169  0.4652 -0.2757  0.2686
12649TIP3    H159438   3.353   5.888   1.160  3.2167  0.2428 -0.9619
12649TIP3    H259439   3.351   5.774   1.260 -3.1652  0.7571 -0.2555
12650TIP3   OH259440   1.044   2.101  14.464  0.0422 -0.5067 -0.0223
12650TIP3    H159441   1.117   2.067  14.517 -1.3670 -2.7941  0.5279
12650TIP3    H259442   1.039   2.040  14.390  0.0957  0.9438 -1.2430
12651TIP3   OH259443   0.127   4.426   5.424  0.4603  0.2427 -0.1743
12651TIP3    H159444   0.199   4.449   5.364  2.0295 -0.0775  1.5383
12651TIP3    H259445   0.088   4.348   5.385  0.1585  1.1912 -1.8329
12652TIP3   OH259446   6.570   4.839  13.364 -0.7636  0.2598 -0.2601
12652TIP3    H159447   6.622   4.919  13.357 -0.8563  0.4080  0.6658
12652TIP3    H259448   6.500   4.851  13.300 -0.3134  0.5583 -0.7035
12653TIP3   OH259449   5.790   2.572   6.706 -0.1791 -0.0082  0.0982
12653TIP3    H159450   5.781   2.508   6.776 -0.6732  1.4377  1.3998
12653TIP3    H259451   5.738   2.647   6.735  0.1432  0.8721 -1.5102
12654TIP3   OH259452   3.571   3.427  14.682  0.5538 -0.0922 -0.0925
12654TIP3    H159453   3.524   3.434  14.599  1.6894  0.2974 -0.7268
12654TIP3    H259454   3.541   3.345  14.721 -1.3378  0.6123 -0.0275
12655TIP3   OH259455   0.277   6.003   1.403  0.0204  0.4450  0.2910
12655TIP3    H159456   0.343   5.939   1.431 -0.3995 -0.1685 -0.1048
12655TIP3    H259457   0.196   5.953   1.398  0.0807  0.5128 -2.0328
12656TIP3   OH259458   3.160   4.943   5.798  0.4350 -0.4478 -0.0848
12656TIP3    H159459   3.176   4.901   5.714  0.7836 -2.4798  0.9436
12656TIP3    H259460   3.131   4.871   5.855  1.2637  0.6702  1.8032
12657TIP3   OH259461   4.192   6.081  12.901 -0.0610  0.5222 -0.8967
12657TIP3    H159462   4.211   6.173  12.920 -1.0459  0.8947 -1.6793
12657TIP3    H259463   4.143   6.083  12.820 -1.0118 -0.6288 -0.3630
12658TIP3   OH259464   5.846   2.301  15.247  0.2210 -0.0354 -0.0453
12658TIP3    H159465   5.826   2.329  15.158 -0.0077  1.4660  0.4777
12658TIP3    H259466   5.934   2.335  15.264  0.6438 -1.1064 -0.0140
12659TIP3   OH259467   4.656   3.876  16.541 -0.4863  0.7262  0.1360
12659TIP3    H159468   4.744   3.839  16.533 -0.9430  0.0505 -2.3922
12659TIP3    H259469   4.639   3.877  16.635  2.3857  1.3036  0.6915
12660TIP3   OH259470   3.513   6.655   3.890 -0.0940  0.3220  0.0724
12660TIP3    H159471   3.439   6.716   3.899 -1.1684 -0.9204 -0.0449
12660TIP3    H259472   3.582   6.692   3.945 -2.5416 -1.0162  4.3790
12661TIP3   OH259473   4.190   1.073   6.145  0.0430  0.1494 -0.5714
12661TIP3    H159474   4.223   1.146   6.197  1.2188 -1.8644  1.5953
12661TIP3    H259475   4.268   1.038   6.102 -0.0603 -1.4690  0.5264
12662TIP3   OH259476   0.508   5.112  16.599  0.1031  0.1392  0.3156
12662TIP3    H159477   0.583   5.135  16.545 -1.0456  1.3106 -0.8180
12662TIP3    H259478   0.440   5.088  16.536  0.0898 -2.7398  1.3788
12663TIP3   OH259479   3.161   3.293  13.168 -0.2166 -0.3943 -0.6647
12663TIP3    H159480   3.115   3.362  13.216 -0.6997 -0.7249 -0.6504
12663TIP3    H259481   3.108   3.215  13.182 -0.4796 -0.4449 -1.9111
12664TIP3   OH259482   5.565   4.375  11.299  0.2061  0.3540  0.3809
12664TIP3    H159483   5.545   4.334  11.215  0.2568  2.7568 -0.8488
12664TIP3    H259484   5.482   4.412  11.329  0.7641  1.9401  0.0040
12665TIP3   OH259485   4.287   4.960   1.654  0.4068  0.2220 -0.0854
12665TIP3    H159486   4.353   4.950   1.585  0.8520  0.1687  0.3440
12665TIP3    H259487   4.208   4.986   1.608  0.7980  0.5454 -0.5851
12666TIP3   OH259488   0.858   3.590  13.491  0.3256 -0.6683  0.2159
12666TIP3    H159489   0.884   3.615  13.580  0.7319  1.0350 -0.3740
12666TIP3    H259490   0.830   3.672  13.450 -0.6995 -1.5881 -0.9503
12667TIP3   OH259491   4.777   2.847  16.635  0.2941 -0.0712 -0.0596
12667TIP3    H159492   4.686   2.868  16.659  0.3506 -1.6248  1.5649
12667TIP3    H259493   4.822   2.833  16.718  1.5727 -1.1808 -0.9146
12668TIP3   OH259494   1.808   3.417  16.110 -0.4203 -0.0514 -0.4449
12668TIP3    H159495   1.761   3.471  16.046  0.1265 -0.4559 -1.1878
12668TIP3    H259496   1.886   3.386  16.063 -0.3289 -0.8465  0.2242
12669TIP3   OH259497   2.863   5.585  16.572 -0.0142 -0.4322 -0.1450
12669TIP3    H159498   2.911   5.611  16.651 -2.5970  1.0692  1.0275
12669TIP3    H259499   2.904   5.504  16.543  1.4141 -0.6490  2.3793
12670TIP3   OH259500   4.975   4.383  11.808 -0.1482 -0.1846  0.2936
12670TIP3    H159501   4.901   4.392  11.748 -0.0048  0.1495  0.1679
12670TIP3    H259502   4.946   4.427  11.888 -0.9206 -1.9236  0.9856
12671TIP3   OH259503   0.905   1.684   5.048  0.2626  0.0401 -0.0151
12671TIP3    H159504   0.852   1.618   5.091  0.4031  0.3523  0.6414
12671TIP3    H259505   0.871   1.767   5.080  2.0077  0.2179  1.4810
12672TIP3   OH259506   6.453   3.108  16.858  0.2844 -0.2432 -0.5356
12672TIP3    H159507   6.395   3.076  16.926  2.6485 -0.0477  1.6707
12672TIP3    H259508   6.431   3.201  16.850 -1.4480 -0.7346 -1.5692
12673TIP3   OH259509   5.492   4.844   1.315  0.1090  0.1950 -0.5988
12673TIP3    H159510   5.581   4.839   1.278 -0.3190  3.2614 -2.2279
12673TIP3    H259511   5.503   4.894   1.396 -0.0396  0.1750 -0.5669
12674TIP3   OH259512   1.613   1.822  12.360  0.0731 -0.0087  0.4878
12674TIP3    H159513   1.686   1.884  12.358 -0.1830  0.3134  0.9866
12674TIP3    H259514   1.535   1.876  12.367 -0.2236 -0.3537 -0.1460
12675TIP3   OH259515   2.227   5.205  10.729  0.0787  0.0544  0.1409
12675TIP3    H159516   2.185   5.269  10.786  1.2941  0.4613  0.5746
12675TIP3    H259517   2.319   5.230  10.726  0.1169 -0.1942 -1.6775
12676TIP3   OH259518   4.309   4.383  11.768  0.5958 -0.3385  0.0414
12676TIP3    H159519   4.311   4.397  11.673 -0.6776 -1.4506 -0.1624
12676TIP3    H259520   4.288   4.468  11.805  1.6802  0.2345 -0.6404
12677TIP3   OH259521   6.444   1.834  16.764  0.3215  0.3019 -0.6473
12677TIP3    H159522   6.486   1.908  16.720  3.2300  0.1717  1.7448
12677TIP3    H259523   6.516   1.785  16.803 -1.8668 -1.6604  1.0758
12678TIP3   OH259524   6.421   5.059   0.975 -0.4758  0.0676 -0.3450
12678TIP3    H159525   6.387   5.047   0.887 -0.8450 -0.9532 -0.0651
12678TIP3    H259526   6.363   5.008   1.031 -0.5017  1.0568  0.5469
12679TIP3   OH259527   2.589   6.730   5.063 -1.1336  0.4132 -0.3836
12679TIP3    H159528   2.640   6.763   4.989  0.1692 -0.1871  0.2179
12679TIP3    H259529   2.653   6.725   5.135 -2.1367 -0.0083  0.4882
12680TIP3   OH259530   4.929   4.099   5.287  0.0401  0.5305  0.3818
12680TIP3    H159531   4.841   4.130   5.269 -0.5141  0.0353  2.0924
12680TIP3    H259532   4.963   4.071   5.202 -1.1524  1.4433 -0.4124
12681TIP3   OH259533   5.892   1.514  11.805 -0.1422  0.0943  0.2695
12681TIP3    H159534   5.847   1.487  11.885 -1.5227  1.4393 -0.0352
12681TIP3    H259535   5.902   1.609  11.814 -1.4472  0.4389 -1.7224
12682TIP3   OH259536   6.549   3.085   2.558  0.2417 -0.2387 -0.1390
12682TIP3    H159537   6.635   3.126   2.563  0.2015 -0.2521  0.7231
12682TIP3    H259538   6.543   3.032   2.638 -0.0464 -1.2570 -0.8305
12683TIP3   OH259539   3.391   3.854  16.808 -0.2382 -0.6407  0.3275
12683TIP3    H159540   3.331   3.794  16.762 -0.7198 -0.3247  0.5378
12683TIP3    H259541   3.354   3.862  16.895 -0.9604  1.0651 -0.1136
12684TIP3   OH259542   0.749   0.544  15.233 -0.1503 -0.2115  0.1866
12684TIP3    H159543   0.807   0.600  15.181 -1.0501  1.3955  0.8759
12684TIP3    H259544   0.736   0.592  15.315 -1.9693 -0.8191  0.2840
12685TIP3   OH259545   6.013   0.215  14.653 -0.5405 -0.4019  0.2324
12685TIP3    H159546   5.988   0.303  14.681  2.0086  0.0559  1.1990
12685TIP3    H259547   6.045   0.227  14.564  0.5919 -0.2090  0.6649
12686TIP3   OH259548   2.454   6.090   5.261  0.7258 -0.1918 -0.4712
12686TIP3    H159549   2.449   6.020   5.195  2.9125 -0.0998 -0.7719
12686TIP3    H259550   2.501   6.161   5.217 -0.1737  0.9183  0.3218
12687TIP3   OH259551   6.430   0.594   2.722  0.9672  0.7876  0.2060
12687TIP3    H159552   6.514   0.554   2.746  0.1295 -1.2504 -0.1998
12687TIP3    H259553   6.403   0.643   2.800  1.1537 -0.8990  1.3374
12688TIP3   OH259554   3.154   4.466  14.875  0.0666 -0.1382 -0.4642
12688TIP3    H159555   3.097   4.390  14.885  1.8298 -1.6184 -1.1941
12688TIP3    H259556   3.160   4.504  14.963  0.3057 -1.7042  0.2078
12689TIP3   OH259557   0.368   0.788  16.451 -0.3959 -0.2662 -0.3245
12689TIP3    H159558   0.343   0.749  16.367  0.9241 -2.3805  0.2102
12689TIP3    H259559   0.425   0.722  16.491 -0.9710  0.7392  2.2044
12690TIP3   OH259560   0.698   0.945  11.008 -0.3031  0.6215  0.4572
12690TIP3    H159561   0.693   1.030  10.964 -0.6973  0.2025 -0.3375
12690TIP3    H259562   0.787   0.941  11.043  0.1495  0.8146 -0.6463
12691TIP3   OH259563   2.473   1.313  12.258 -0.1939 -0.2684  0.3219
12691TIP3    H159564   2.459   1.273  12.344 -0.5025  0.9176  0.8377
12691TIP3    H259565   2.482   1.407  12.277 -0.0864 -0.0203 -0.9240
12692TIP3   OH259566   4.248   5.184  11.680  0.1018  0.5618 -0.0067
12692TIP3    H159567   4.171   5.127  11.684  0.0918  0.4888 -1.0549
12692TIP3    H259568   4.261   5.213  11.770 -0.3170 -0.5322  0.4173
12693TIP3   OH259569   0.579   2.254   2.446 -0.2813  0.3000 -0.2662
12693TIP3    H159570   0.622   2.230   2.528 -0.7954  2.2987  0.6154
12693TIP3    H259571   0.625   2.204   2.379  1.5609  0.2737  0.9959
12694TIP3   OH259572   0.482   2.489   3.203  0.2750 -0.0899 -0.5833
12694TIP3    H159573   0.487   2.464   3.296 -0.2579 -1.4524 -0.9093
12694TIP3    H259574   0.497   2.584   3.203 -2.1912  0.3610  1.1519
12695TIP3   OH259575   0.386   1.374   5.180  0.1647  0.0114 -0.2204
12695TIP3    H159576   0.414   1.364   5.089 -0.3882  0.5757 -0.4578
12695TIP3    H259577   0.340   1.458   5.182  1.6148  0.7900  0.9471
12696TIP3   OH259578   1.264   0.454  14.889  0.4657  0.1121  0.4910
12696TIP3    H159579   1.198   0.523  14.896 -0.8570 -0.8288 -2.0981
12696TIP3    H259580   1.241   0.391  14.957 -1.6038 -0.4276 -0.6893
12697TIP3   OH259581   1.834   1.543   4.972  0.3692 -0.7125  0.2607
12697TIP3    H159582   1.851   1.501   5.057  1.4101 -2.0050 -0.5761
12697TIP3    H259583   1.751   1.504   4.943 -0.3820  0.2851  1.0074
12698TIP3   OH259584   3.363   4.290  12.645 -0.2309 -0.2615 -0.1008
12698TIP3    H159585   3.332   4.322  12.560 -1.5577  1.3476  0.9438
12698TIP3    H259586   3.285   4.251  12.686  0.3731 -0.9429  0.4151
12699TIP3   OH259587   0.008   3.749  17.082 -0.3285  0.0724  0.2160
12699TIP3    H159588   0.045   3.818  17.137  0.6354  1.0936 -1.6704
12699TIP3    H259589  -0.048   3.699  17.141  1.1768  0.7465  2.2789
12700TIP3   OH259590   0.425   3.348   2.194  0.1673 -0.6295  0.0524
12700TIP3    H159591   0.336   3.381   2.182  0.3984  0.5371  1.3983
12700TIP3    H259592   0.423   3.304   2.280  0.9279 -0.4527  0.1673
12701TIP3   OH259593   1.711   0.949  13.698  0.0760  0.2269  0.2139
12701TIP3    H159594   1.758   1.031  13.715  0.6257 -0.6033  2.9291
12701TIP3    H259595   1.779   0.886  13.676 -0.4942  0.8639 -3.6727
12702TIP3   OH259596   3.980   0.951  14.538  0.0608  0.1248  0.3699
12702TIP3    H159597   4.033   0.872  14.533 -1.9321 -1.4261  2.7606
12702TIP3    H259598   4.037   1.016  14.578  1.3479 -0.4334 -0.5408
12703TIP3   OH259599   4.751   5.946   1.090  0.2255  0.0876  0.1853
12703TIP3    H159600   4.741   5.899   1.008  0.6761 -0.8190  0.6440
12703TIP3    H259601   4.671   5.925   1.139  0.1210  0.3406  0.1247
12704TIP3   OH259602   6.267   2.457  15.359  0.5132  0.9649  0.5739
12704TIP3    H159603   6.221   2.509  15.293  0.2981 -0.3261 -0.3189
12704TIP3    H259604   6.241   2.367  15.340 -1.9737  0.7657  4.2664
12705TIP3   OH259605   4.336   5.751   3.552  0.1094  0.0578 -0.2023
12705TIP3    H159606   4.368   5.684   3.493  0.4713 -1.4902  1.6885
12705TIP3    H259607   4.298   5.702   3.626  0.8279  1.9044  1.4393
12706TIP3   OH259608   4.283   0.897   4.281  0.3355 -0.4722  0.2420
12706TIP3    H159609   4.371   0.933   4.286  0.6740 -1.3619  0.9526
12706TIP3    H259610   4.272   0.872   4.189 -0.0866  1.8525 -0.3641
12707TIP3   OH259611   3.048   2.417  11.936  0.1487 -0.2089 -0.1617
12707TIP3    H159612   3.038   2.324  11.958 -0.6581 -0.1487 -0.2415
12707TIP3    H259613   2.960   2.453  11.945  0.8249  1.0166  1.9734
12708TIP3   OH259614   1.669   3.207  11.631 -0.0830  0.0859 -0.4191
12708TIP3    H159615   1.649   3.280  11.572  1.0194 -0.4104 -1.4253
12708TIP3    H259616   1.607   3.139  11.607  0.4453 -0.1610 -1.1123
12709TIP3   OH259617   5.745   2.619   1.718 -0.4284  0.0663 -0.1912
12709TIP3    H159618   5.778   2.698   1.675 -1.0915 -0.4779 -1.7422
12709TIP3    H259619   5.656   2.609   1.684 -0.0895 -1.7481 -0.5936
12710TIP3   OH259620   2.322   5.002   2.403  0.2973  0.2091 -0.0473
12710TIP3    H159621   2.310   4.921   2.352  0.2635 -0.7986  1.5390
12710TIP3    H259622   2.282   5.070   2.349 -1.2901 -1.1118 -0.5785
12711TIP3   OH259623   4.615   1.466  16.050  0.3439  0.1641 -0.3550
12711TIP3    H159624   4.593   1.380  16.085 -3.8107  1.3967  0.2340
12711TIP3    H259625   4.706   1.480  16.078  0.3488 -3.0128  1.4700
12712TIP3   OH259626   5.595   4.703  16.135  0.1316 -0.0540 -0.0214
12712TIP3    H159627   5.512   4.714  16.088 -0.4695  0.2756  1.0923
12712TIP3    H259628   5.661   4.705  16.066 -0.8822 -1.9340 -1.0838
12713TIP3   OH259629   0.585   2.222   5.697 -0.4732 -0.7259  0.2780
12713TIP3    H159630   0.618   2.228   5.787 -0.4412  1.0519  0.1629
12713TIP3    H259631   0.594   2.310   5.662 -0.5337 -1.3943 -1.4682
12714TIP3   OH259632   2.329   5.331   2.713  0.7431  0.0417 -0.3048
12714TIP3    H159633   2.367   5.263   2.769  3.5258  1.6678 -0.1388
12714TIP3    H259634   2.369   5.317   2.628  1.3487  1.4590 -0.2663
12715TIP3   OH259635   3.455   4.490  14.018 -0.9149  0.1009 -0.2721
12715TIP3    H159636   3.509   4.480  14.096  0.2599  0.1605 -1.0593
12715TIP3    H259637   3.401   4.412  14.015 -0.2086 -0.3974  0.0368
12716TIP3   OH259638   6.335   5.648   3.196  0.1171  0.1416  0.3670
12716TIP3    H159639   6.401   5.656   3.128  3.2863 -2.1141  3.0643
12716TIP3    H259640   6.308   5.556   3.193 -0.2920  0.2127  1.6706
12717TIP3   OH259641   2.268   6.463   3.193  0.0998 -0.9923  0.3256
12717TIP3    H159642   2.194   6.403   3.202 -0.3444 -0.4892  0.0799
12717TIP3    H259643   2.259   6.524   3.267  0.6480 -1.3318  0.6766
12718TIP3   OH259644   3.847   6.289   3.542 -0.2081 -0.6294 -0.2561
12718TIP3    H159645   3.925   6.324   3.584  0.2055 -0.4607 -1.1472
12718TIP3    H259646   3.820   6.357   3.481 -0.2643 -1.2454 -0.9253
12719TIP3   OH259647   4.165   4.734  12.938 -0.0593  0.6336  0.0478
12719TIP3    H159648   4.078   4.754  12.975  0.5332  0.1101  1.8051
12719TIP3    H259649   4.155   4.746  12.844 -2.5489 -1.1673  0.0261
12720TIP3   OH259650   2.056   6.356  11.998 -0.0972  0.2238 -0.2752
12720TIP3    H159651   2.108   6.289  12.042  0.3057 -0.3780 -1.6384
12720TIP3    H259652   2.116   6.430  11.988  0.1292 -0.0165 -0.7260
12721TIP3   OH259653   6.312   5.020  13.385 -0.8348  0.1735  0.1651
12721TIP3    H159654   6.273   5.107  13.375 -0.0237  0.8152  2.4277
12721TIP3    H259655   6.359   5.023  13.468  0.0328 -2.1264 -0.1889
12722TIP3   OH259656   3.074   3.613  15.658  0.2759  0.2335  0.1953
12722TIP3    H159657   3.133   3.551  15.613  0.0875  0.4831 -0.4034
12722TIP3    H259658   3.133   3.679  15.695  0.3218  1.0010 -1.2078
12723TIP3   OH259659   3.656   6.812   4.302  0.2188 -0.5235 -0.2136
12723TIP3    H159660   3.628   6.902   4.321 -2.2005 -1.2799  0.0260
12723TIP3    H259661   3.749   6.810   4.324  0.5337  2.1899 -1.2053
12724TIP3   OH259662   1.297   1.821  13.443  0.0759 -0.1943  0.3654
12724TIP3    H159663   1.270   1.732  13.465 -1.2286 -0.1552 -0.9639
12724TIP3    H259664   1.386   1.812  13.411 -0.2974 -1.1349 -0.4325
12725TIP3   OH259665   6.605   6.269   1.327  0.1452  0.2907 -0.1665
12725TIP3    H159666   6.659   6.309   1.259 -0.1521  0.4454 -0.3151
12725TIP3    H259667   6.533   6.331   1.339 -0.3940 -0.2628 -0.4960
12726TIP3   OH259668   2.148   2.927   3.505  0.3411 -0.1411 -0.3752
12726TIP3    H159669   2.113   2.947   3.418 -0.5756 -0.6028 -0.1133
12726TIP3    H259670   2.168   3.012   3.543  0.9912  0.0563 -1.1318
12727TIP3   OH259671   5.922   0.401   3.860  0.6318  0.4494 -0.0802
12727TIP3    H159672   5.907   0.465   3.790  0.9919  1.1242  0.4488
12727TIP3    H259673   6.014   0.414   3.886  1.1126 -1.2229 -0.8962
12728TIP3   OH259674   4.093   4.731  11.485 -0.0881 -0.1474 -0.6522
12728TIP3    H159675   4.101   4.667  11.414 -0.2197 -0.1587 -0.6574
12728TIP3    H259676   4.157   4.799  11.464  0.3429 -0.4835 -0.4312
12729TIP3   OH259677   0.053   3.091  17.134  0.3596  0.1094 -0.1666
12729TIP3    H159678   0.104   3.014  17.157  0.1769 -0.6031 -2.0697
12729TIP3    H259679  -0.030   3.057  17.099 -1.1256  1.2394  2.1302
12730TIP3   OH259680   1.786   1.266  13.922 -0.5535 -0.7020 -0.1893
12730TIP3    H159681   1.832   1.350  13.911 -0.6077 -0.5242  0.8463
12730TIP3    H259682   1.831   1.206  13.863 -1.4616  0.4178 -2.0552
12731TIP3   OH259683   3.713   6.400  13.547 -0.3917 -0.0630  0.0400
12731TIP3    H159684   3.757   6.417  13.630 -1.2121  0.7662  0.3054
12731TIP3    H259685   3.774   6.342  13.500  0.4117  0.0559  0.9047
12732TIP3   OH259686   2.414   0.192  11.394 -0.3095  0.3745 -0.0980
12732TIP3    H159687   2.319   0.200  11.398 -0.4563 -1.7431  1.3944
12732TIP3    H259688   2.429   0.131  11.321 -0.0804  0.7041 -0.3285
12733TIP3   OH259689   0.023   6.487   5.273  0.2016 -0.3197  0.5939
12733TIP3    H159690  -0.047   6.437   5.231  1.2161  0.2091 -1.8433
12733TIP3    H259691   0.098   6.427   5.273  0.1453 -0.3992  1.9187
12734TIP3   OH259692   2.245   6.746  16.949 -0.4949 -0.6574  0.2190
12734TIP3    H159693   2.290   6.742  16.865  1.5702 -0.3500  1.2925
12734TIP3    H259694   2.205   6.833  16.950 -1.5742 -1.1127 -0.9393
12735TIP3   OH259695   0.071   4.168  11.336 -0.5494  0.3542  0.7459
12735TIP3    H159696  -0.020   4.141  11.323 -0.4013 -0.2782  0.9791
12735TIP3    H259697   0.122   4.097  11.297 -0.1546  1.9961 -1.8423
12736TIP3   OH259698   0.640   1.594   5.123  0.6449 -0.0879 -0.6890
12736TIP3    H159699   0.581   1.571   5.194  0.7242  0.3834 -0.4701
12736TIP3    H259700   0.600   1.672   5.083  0.1264 -0.8759 -1.7227
12737TIP3   OH259701   3.957   1.698   5.237  0.7142 -0.4787 -0.4070
12737TIP3    H159702   4.038   1.748   5.245  0.5174  0.0140 -1.4265
12737TIP3    H259703   3.972   1.640   5.162  0.0008 -0.1533 -0.8029
12738TIP3   OH259704   5.335   2.368  11.972 -0.6638 -0.3166  0.5701
12738TIP3    H159705   5.285   2.298  12.012 -0.2029 -0.9265  0.0958
12738TIP3    H259706   5.414   2.376  12.025  0.1300 -1.3887 -0.4229
12739TIP3   OH259707   2.328   1.509  13.267 -0.6110  0.0183  0.0129
12739TIP3    H159708   2.337   1.601  13.242  0.6736 -0.4322 -1.1909
12739TIP3    H259709   2.382   1.501  13.346 -1.3604  0.4774  0.5758
12740TIP3   OH259710   6.334   1.141  16.551 -0.5355  0.4240 -0.8788
12740TIP3    H159711   6.393   1.186  16.491 -1.7774  1.0648 -1.6383
12740TIP3    H259712   6.248   1.178  16.532 -1.3973 -1.4344 -0.7030
12741TIP3   OH259713   1.377   2.546  16.203 -0.3803 -0.4466 -0.1195
12741TIP3    H159714   1.404   2.542  16.295 -0.2542 -0.1418 -0.1429
12741TIP3    H259715   1.428   2.477  16.160 -0.7435 -0.8690  0.1160
12742TIP3   OH259716   6.071   1.953   3.522 -0.2671 -0.0617  0.0048
12742TIP3    H159717   6.014   1.876   3.527 -0.0011 -0.1757  1.5662
12742TIP3    H259718   6.079   1.982   3.613  0.4012  1.2527 -0.4693
12743TIP3   OH259719   4.415   3.232  16.842 -0.0109  0.2281  0.0666
12743TIP3    H159720   4.425   3.301  16.907  0.2756  1.6483 -1.4698
12743TIP3    H259721   4.502   3.222  16.803  0.5513 -2.6684  1.8929
12744TIP3   OH259722   3.098   1.830   0.649  0.4790  0.5627  0.3756
12744TIP3    H159723   3.193   1.836   0.644  0.4695  1.9781  1.3784
12744TIP3    H259724   3.072   1.911   0.694 -1.0704 -0.5380  1.4981
12745TIP3   OH259725   3.306   5.564  15.316  0.0722 -0.0187  0.4202
12745TIP3    H159726   3.247   5.491  15.336 -0.6318  0.0847 -1.2201
12745TIP3    H259727   3.275   5.597  15.232  1.6128  0.9350  0.2236
12746TIP3   OH259728   0.304   5.249   3.214  0.5762  0.1996  0.0416
12746TIP3    H159729   0.294   5.229   3.121  1.9387  0.9855 -0.2848
12746TIP3    H259730   0.275   5.170   3.259  0.9655 -0.5958 -1.0889
12747TIP3   OH259731   4.039   2.577  11.413 -0.3026 -0.3002  0.1160
12747TIP3    H159732   3.945   2.584  11.431 -0.6119 -2.4190 -0.5113
12747TIP3    H259733   4.047   2.585  11.318  0.3789  1.7792  0.3192
12748TIP3   OH259734   3.271   2.334  16.458  0.5567 -0.0777 -0.0453
12748TIP3    H159735   3.336   2.304  16.395  1.0063 -0.3588  0.5442
12748TIP3    H259736   3.190   2.290  16.432  0.4736  0.7005 -1.1037
12749TIP3   OH259737   4.199   2.782  11.538 -0.1781 -0.2083  0.3116
12749TIP3    H159738   4.149   2.701  11.530  1.4858 -1.2438  0.1539
12749TIP3    H259739   4.239   2.776  11.625 -0.7584  0.8755  0.6647
12750TIP3   OH259740   6.370   2.818   4.753  0.0774 -0.6048  0.2328
12750TIP3    H159741   6.397   2.893   4.806  0.0858 -0.8988  0.6440
12750TIP3    H259742   6.354   2.855   4.666 -1.2324  0.1145  0.7683
12751TIP3   OH259743   1.532   3.170   3.107 -0.4260 -0.4108  0.0480
12751TIP3    H159744   1.454   3.115   3.099 -0.3863 -0.3381 -0.9782
12751TIP3    H259745   1.498   3.258   3.126 -0.5975 -0.4003 -0.2951
12752TIP3   OH259746   6.042   5.505   0.364 -0.1512 -0.3022 -0.4540
12752TIP3    H159747   6.053   5.600   0.367 -0.3901 -0.3028  0.4428
12752TIP3    H259748   6.104   5.476   0.297 -1.6846  0.7165 -2.3472
12753TIP3   OH259749   0.485   3.143   2.624 -0.1444  0.0337 -0.3841
12753TIP3    H159750   0.557   3.206   2.618 -0.6961  0.6087 -1.0086
12753TIP3    H259751   0.407   3.197   2.639 -0.5319 -0.5414 -0.3179
12754TIP3   OH259752   2.987   5.285  16.433  0.6968 -0.0037  0.2063
12754TIP3    H159753   3.038   5.206  16.417  1.5198  0.0511  2.3383
12754TIP3    H259754   2.896   5.258  16.423  0.9725 -1.2068  0.8425
12755TIP3   OH259755   2.711   4.848   3.876 -0.2508  0.0190 -0.3921
12755TIP3    H159756   2.679   4.908   3.810 -1.9184 -1.0834 -0.6184
12755TIP3    H259757   2.635   4.830   3.931  0.5944 -0.7062  0.5651
12756TIP3   OH259758   1.452   5.598   3.637  0.0605  0.4332 -0.2707
12756TIP3    H159759   1.366   5.636   3.618 -0.0731  0.3162  0.0959
12756TIP3    H259760   1.440   5.504   3.625 -0.1314  0.3186  0.7837
12757TIP3   OH259761   3.983   5.087  12.552  0.5034  0.6369 -0.6448
12757TIP3    H159762   4.068   5.105  12.512  0.5808  0.3259 -0.6172
12757TIP3    H259763   4.004   5.058  12.641  0.3922  0.1190 -0.7858
12758TIP3   OH259764   0.567   0.921   4.319 -0.1160 -0.2048 -0.5306
12758TIP3    H159765   0.648   0.878   4.291  0.3871  0.9789 -0.8806
12758TIP3    H259766   0.512   0.848   4.349  0.2499 -1.2431 -2.2760
12759TIP3   OH259767   6.427   6.486   6.099 -0.0118  0.5999  0.3014
12759TIP3    H159768   6.472   6.547   6.040 -0.4981  1.0733  0.4244
12759TIP3    H259769   6.475   6.492   6.182  0.2394  0.4485  0.1688
12760TIP3   OH259770   1.084   0.394  15.975 -0.2478 -0.1181 -0.4870
12760TIP3    H159771   1.039   0.344  15.906 -1.0190 -0.3082  0.1397
12760TIP3    H259772   1.088   0.333  16.049  0.6614  0.0526 -0.3910
12761TIP3   OH259773   0.279   4.708  12.137  0.1304 -0.0632  0.3064
12761TIP3    H159774   0.311   4.788  12.096 -1.0355  1.4535  2.2718
12761TIP3    H259775   0.239   4.658  12.065  0.3450  1.3825 -0.8370
12762TIP3   OH259776   2.259   0.386  16.704  0.0159  0.0115  0.4457
12762TIP3    H159777   2.235   0.366  16.614 -1.0142  2.1448  0.2248
12762TIP3    H259778   2.289   0.302  16.740  0.5724 -0.8186 -1.9031
12763TIP3   OH259779   2.655   3.861  13.837 -1.2229  0.0338  0.6450
12763TIP3    H159780   2.737   3.820  13.865 -1.4222 -0.8883 -0.1012
12763TIP3    H259781   2.588   3.820  13.891 -1.0879  1.5789  2.0316
12764TIP3   OH259782   5.017   3.621  16.575 -0.7603 -0.6214 -0.0966
12764TIP3    H159783   5.039   3.712  16.560  2.1386 -1.0480  1.2584
12764TIP3    H259784   4.983   3.619  16.665  2.8269 -1.3794  1.3361
12765TIP3   OH259785   5.494   5.126  14.643  0.6132 -0.4767  0.6621
12765TIP3    H159786   5.411   5.170  14.658  0.9699  0.2889  0.4432
12765TIP3    H259787   5.541   5.184  14.583  1.0086 -1.2652  0.2006
12766TIP3   OH259788   2.679   0.460   2.107  0.0318 -0.2917  0.2111
12766TIP3    H159789   2.616   0.492   2.172 -1.4372 -0.3693 -1.1565
12766TIP3    H259790   2.717   0.540   2.069 -0.6153 -0.2192 -0.2871
12767TIP3   OH259791   0.734   5.911  14.995 -0.1908 -0.1800  0.5220
12767TIP3    H159792   0.648   5.888  14.959 -0.0408 -0.2502  0.2017
12767TIP3    H259793   0.715   5.946  15.082 -0.3507 -2.4996  1.4497
12768TIP3   OH259794   5.141   3.664  15.409  0.8066  0.2013 -0.6402
12768TIP3    H159795   5.079   3.595  15.384  0.5233  0.4971 -0.7577
12768TIP3    H259796   5.213   3.656  15.346  0.3491  0.5956 -1.2195
12769TIP3   OH259797   4.078   1.615  15.728 -0.1430  0.3046 -0.0703
12769TIP3    H159798   3.995   1.662  15.735  0.3847  1.7320 -2.8092
12769TIP3    H259799   4.141   1.672  15.772 -0.3492 -0.1671  0.8581
12770TIP3   OH259800   2.023   3.433   3.287  0.2467  0.6538 -0.2147
12770TIP3    H159801   2.066   3.445   3.202  1.7578  1.4797  0.6487
12770TIP3    H259802   2.070   3.492   3.346 -1.0295  0.3528  1.1185
12771TIP3   OH259803   1.251   3.128  13.584  0.2497 -0.8202  0.2481
12771TIP3    H159804   1.157   3.130  13.562 -0.4972 -0.9201  3.2262
12771TIP3    H259805   1.287   3.061  13.525 -1.3999 -0.2958 -1.4203
12772TIP3   OH259806   0.842   1.957   1.160 -0.3132  0.4569 -0.6737
12772TIP3    H159807   0.868   1.981   1.071 -1.7095  0.7422 -1.0271
12772TIP3    H259808   0.773   2.020   1.182  0.5714  0.8900  0.9211
12773TIP3   OH259809   1.781   1.100   4.814  0.0557  0.3163 -0.6551
12773TIP3    H159810   1.789   1.050   4.733 -1.2077  0.3977 -0.8488
12773TIP3    H259811   1.690   1.087   4.841  0.4032  0.4681  0.6385
12774TIP3   OH259812   2.213   1.841   4.792 -0.4699 -0.2004 -0.5578
12774TIP3    H159813   2.164   1.800   4.863  0.9439  2.0065  1.7890
12774TIP3    H259814   2.159   1.917   4.768 -1.5054 -1.5614 -2.6872
12775TIP3   OH259815   5.248   1.327  14.783  0.1767  0.4813 -0.4055
12775TIP3    H159816   5.331   1.374  14.790  0.5094 -0.3020  1.1699
12775TIP3    H259817   5.182   1.395  14.795  0.6506  0.5656  2.0339
12776TIP3   OH259818   0.984   4.242   5.634 -0.2637  0.4518 -0.4280
12776TIP3    H159819   0.890   4.247   5.646 -0.3220  0.3086 -0.7981
12776TIP3    H259820   0.998   4.269   5.543  0.1000  0.9671 -0.2194
12777TIP3   OH259821   4.319   6.165  15.288  0.7548 -0.5036 -0.4668
12777TIP3    H159822   4.228   6.145  15.270  0.5891 -0.2504  0.0557
12777TIP3    H259823   4.367   6.086  15.263  0.5321 -0.2190 -1.8292
12778TIP3   OH259824   3.881   5.029   3.328  0.4140  0.1458 -0.0283
12778TIP3    H159825   3.937   5.098   3.291  1.6709 -0.6633  0.3187
12778TIP3    H259826   3.836   5.071   3.402  0.2237  0.9271 -0.5840
12779TIP3   OH259827   0.065   2.973  12.132  0.4869 -0.0659  0.2166
12779TIP3    H159828   0.114   3.055  12.131  0.2871  0.0637  0.6831
12779TIP3    H259829   0.113   2.916  12.073  1.1687  0.0805  0.6143
12780TIP3   OH259830   1.900   3.066  11.527 -0.2015  0.1268 -0.1820
12780TIP3    H159831   1.870   3.138  11.472 -0.1133 -0.0410 -0.4513
12780TIP3    H259832   1.830   3.052  11.590  0.6774  1.8562  1.2092
12781TIP3   OH259833   1.490   3.038   1.264 -0.0193  0.2447 -0.4321
12781TIP3    H159834   1.525   3.112   1.313 -0.1867 -0.0194  0.0924
12781TIP3    H259835   1.418   3.074   1.213  1.3369  0.9048 -1.9195
12782TIP3   OH259836   1.345   6.066   4.544  0.2084 -0.2075 -0.5343
12782TIP3    H159837   1.288   5.999   4.582  0.3528 -0.3715 -0.6030
12782TIP3    H259838   1.294   6.147   4.548 -0.6465 -0.6526 -2.0450
12783TIP3   OH259839   2.387   6.492   5.280 -0.1616  0.5497  0.7847
12783TIP3    H159840   2.305   6.447   5.302  0.3990 -0.6708  0.4503
12783TIP3    H259841   2.419   6.525   5.364 -1.3153  1.6006  0.8233
12784TIP3   OH259842   0.376   5.380  11.670  0.2941 -0.1059  0.1455
12784TIP3    H159843   0.303   5.389  11.609  0.5363 -2.1793 -0.4672
12784TIP3    H259844   0.454   5.385  11.616  0.5453 -0.6329  0.4595
12785TIP3   OH259845   2.527   4.736  15.501  0.5985 -0.5306  0.2467
12785TIP3    H159846   2.608   4.746  15.450 -0.1813  0.0893 -0.8936
12785TIP3    H259847   2.473   4.678  15.447 -0.0851 -0.1831  0.5593
12786TIP3   OH259848   5.449   1.508  14.841 -0.1694  0.1714 -0.2361
12786TIP3    H159849   5.387   1.539  14.907  0.1510  1.9083 -0.7168
12786TIP3    H259850   5.427   1.558  14.762  1.3274  0.2359 -0.6291
12787TIP3   OH259851   4.546   5.608   1.383 -0.5144  0.1126 -0.6015
12787TIP3    H159852   4.539   5.695   1.343  0.9784  0.0113 -1.1314
12787TIP3    H259853   4.631   5.609   1.426 -1.1906 -0.5379  0.7825
12788TIP3   OH259854   4.254   0.413   5.603  0.1782  0.3933  0.1704
12788TIP3    H159855   4.264   0.361   5.523 -1.8182 -0.0484  0.1977
12788TIP3    H259856   4.271   0.352   5.674  1.0839  0.5728  0.1091
12789TIP3   OH259857   0.050   5.769   4.225  0.3827  0.7330  0.0755
12789TIP3    H159858   0.096   5.685   4.220  2.2882  1.6952  0.8095
12789TIP3    H259859   0.022   5.786   4.135  0.8651 -0.2214 -0.2620
12790TIP3   OH259860   3.471   3.553  11.694 -0.2703 -0.1566  0.0936
12790TIP3    H159861   3.393   3.538  11.748 -0.9440  1.0335 -0.5192
12790TIP3    H259862   3.436   3.579  11.609  0.7896  2.3406  0.3903
12791TIP3   OH259863   2.934   5.713   4.360 -0.1866  0.6258 -0.1781
12791TIP3    H159864   2.950   5.690   4.268  2.3431  0.4497  0.2547
12791TIP3    H259865   2.954   5.806   4.366 -0.7441  0.7288  0.1164
12792TIP3   OH259866   4.213   6.371   1.600  0.4418  0.3948 -0.0880
12792TIP3    H159867   4.227   6.423   1.521  1.2758 -0.1409 -0.2934
12792TIP3    H259868   4.176   6.433   1.663  0.0523  0.8936 -0.7938
12793TIP3   OH259869   2.932   2.167  17.151 -0.0312 -0.4009  0.3907
12793TIP3    H159870   2.841   2.163  17.181  0.1358 -0.8338  0.8544
12793TIP3    H259871   2.951   2.261  17.143 -1.1369 -0.3230 -1.6475
12794TIP3   OH259872   5.395   1.237  10.613 -0.2843 -0.0283 -0.2435
12794TIP3    H159873   5.396   1.332  10.629 -1.4588  0.1965 -1.4669
12794TIP3    H259874   5.487   1.212  10.615  0.1414  1.3897 -1.4220
12795TIP3   OH259875   0.942   4.216   4.534  0.8053  0.3942  0.3755
12795TIP3    H159876   0.943   4.301   4.580  1.4292  0.9527 -0.6541
12795TIP3    H259877   0.889   4.232   4.456  1.3592 -0.0272 -0.0886
12796TIP3   OH259878   6.616   3.992  13.356 -0.3176 -0.0765 -0.3259
12796TIP3    H159879   6.682   3.990  13.424 -0.4470  0.0838 -0.1938
12796TIP3    H259880   6.587   3.901  13.347 -0.6398 -0.0263  0.1654
12797TIP3   OH259881   5.502   3.335  16.870 -0.0105  0.4503 -0.6740
12797TIP3    H159882   5.596   3.336  16.887 -0.1228  2.1652  0.0087
12797TIP3    H259883   5.492   3.281  16.792  1.3202 -1.3657  0.3911
12798TIP3   OH259884   1.743   3.606  11.323 -0.2724  0.0788  0.3187
12798TIP3    H159885   1.718   3.650  11.404  0.3624  2.4742 -0.7677
12798TIP3    H259886   1.716   3.665  11.253 -0.7983 -1.9491 -1.2672
12799TIP3   OH259887   5.622   3.487   3.693 -0.6634  0.7218 -0.2205
12799TIP3    H159888   5.545   3.449   3.651  1.0174 -0.4860 -2.3146
12799TIP3    H259889   5.687   3.493   3.623  0.7052  2.9937  1.1914
12800TIP3   OH259890   4.550   2.311  10.997 -0.2175 -0.2949 -1.2085
12800TIP3    H159891   4.596   2.295  10.914  4.4149  0.4674  1.0703
12800TIP3    H259892   4.511   2.398  10.986  2.2464  0.7864 -1.8528
12801TIP3   OH259893   1.402   4.202   4.751  0.4838 -0.5666  0.5636
12801TIP3    H159894   1.364   4.115   4.757  0.3717 -0.6325 -0.8416
12801TIP3    H259895   1.363   4.251   4.823  0.1560 -1.5364  1.0410
12802TIP3   OH259896   6.744   3.961   3.386  0.1796  0.2144 -0.1378
12802TIP3    H159897   6.800   4.030   3.349 -0.7302  0.4841 -1.0093
12802TIP3    H259898   6.805   3.892   3.411  0.7426 -0.3791 -2.9811
12803TIP3   OH259899   1.913   6.300   4.004  0.2193 -1.0460  0.2851
12803TIP3    H159900   1.913   6.328   4.096 -1.5770  1.6958 -0.4901
12803TIP3    H259901   1.827   6.259   3.992 -0.6551  1.0378 -0.8240
12804TIP3   OH259902   3.061   0.628   4.465  0.7121 -0.5826  0.6321
12804TIP3    H159903   3.041   0.629   4.558 -0.8396  0.3556  0.3079
12804TIP3    H259904   3.098   0.541   4.449 -0.5215 -1.3343  1.8127
12805TIP3   OH259905   3.024   3.648  12.415 -0.2982 -0.0704  0.0744
12805TIP3    H159906   3.087   3.640  12.343  0.0205 -1.1025  0.4477
12805TIP3    H259907   3.077   3.634  12.494 -0.5683  1.4634  0.5352
12806TIP3   OH259908   1.107   2.430  14.593  0.0435 -0.3076 -0.3231
12806TIP3    H159909   1.077   2.506  14.543 -2.5999 -1.0055  0.1484
12806TIP3    H259910   1.169   2.386  14.534 -1.0313  0.3378 -1.9811
12807TIP3   OH259911   6.630   0.110  13.707  0.5614 -0.0837 -0.1756
12807TIP3    H159912   6.616   0.159  13.625 -0.6129 -0.2597 -0.0831
12807TIP3    H259913   6.725   0.103  13.714  0.6910  0.5197 -1.1843
12808TIP3   OH259914   3.138   5.061   0.601 -0.1926 -0.0873  0.1684
12808TIP3    H159915   3.190   5.029   0.675  2.6546 -1.2686 -2.2713
12808TIP3    H259916   3.180   5.144   0.576  0.6647 -1.1023 -1.8883
12809TIP3   OH259917   5.328   2.238   5.798  0.6849  0.1894  0.6590
12809TIP3    H159918   5.414   2.281   5.789  0.6433  0.2454  0.5249
12809TIP3    H259919   5.331   2.197   5.884  2.2674 -2.9498 -0.8046
12810TIP3   OH259920   3.098   2.609   0.930  0.9442 -0.0998 -0.3342
12810TIP3    H159921   3.032   2.608   0.861  0.6035 -1.7792 -0.0019
12810TIP3    H259922   3.057   2.658   1.001  0.4752 -0.1965 -0.5379
12811TIP3   OH259923   4.663   3.233   0.182 -0.1443  0.6292 -0.0879
12811TIP3    H159924   4.612   3.313   0.191 -1.5466 -0.1996 -0.4614
12811TIP3    H259925   4.725   3.236   0.255  0.3849  2.4414 -0.5860
12812TIP3   OH259926   5.802   6.308  11.406 -0.1994 -0.2063  0.2408
12812TIP3    H159927   5.878   6.359  11.434  0.4698 -0.5955 -0.8246
12812TIP3    H259928   5.773   6.261  11.485  0.0717  0.6929  0.8738
12813TIP3   OH259929   4.490   6.557  13.562  0.1889  0.3164  0.5669
12813TIP3    H159930   4.407   6.525  13.526  1.5574 -0.8573 -1.6544
12813TIP3    H259931   4.482   6.652  13.559 -0.4560  0.2297 -1.2116
12814TIP3   OH259932   3.828   3.385   4.162  0.0990 -0.1799 -0.6363
12814TIP3    H159933   3.916   3.414   4.139  0.0143 -0.7306 -1.6937
12814TIP3    H259934   3.837   3.346   4.249  0.4220  1.9962  0.3211
12815TIP3   OH259935   4.808   1.586  15.154 -0.4082 -0.5950 -0.4868
12815TIP3    H159936   4.797   1.617  15.243 -3.1550  0.5565 -1.1993
12815TIP3    H259937   4.839   1.495  15.164 -0.0320 -0.2619  1.5922
12816TIP3   OH259938   5.858   5.371  13.656  0.2451 -0.2104 -0.7194
12816TIP3    H159939   5.913   5.435  13.702  0.0577  0.8771 -1.9532
12816TIP3    H259940   5.775   5.416  13.643 -0.4172 -1.2957 -0.2005
12817TIP3   OH259941   2.711   3.656   1.229 -0.5899  0.1773  0.3605
12817TIP3    H159942   2.765   3.581   1.256 -1.4193 -0.7272 -0.4763
12817TIP3    H259943   2.624   3.619   1.213 -0.7349  1.1331 -1.1210
12818TIP3   OH259944   0.483   5.390   0.286  0.0274 -0.3654 -0.2412
12818TIP3    H159945   0.491   5.359   0.376  1.9171  2.1005  0.5015
12818TIP3    H259946   0.543   5.465   0.281 -1.3301  0.6048 -3.0604
12819TIP3   OH259947   5.049   1.503  14.883  0.0266  0.6790  0.4614
12819TIP3    H159948   5.066   1.578  14.941 -0.1485  1.1196 -0.0498
12819TIP3    H259949   4.955   1.508  14.866  0.0549  0.4715  0.2521
12820TIP3   OH259950   6.246   6.660  16.171 -0.1654  0.0393 -0.1067
12820TIP3    H159951   6.313   6.641  16.105  0.2467  0.6586  0.1243
12820TIP3    H259952   6.233   6.755  16.165 -0.0570  0.1137  0.7655
12821TIP3   OH259953   0.390   3.456   5.380 -0.3927  0.2723  0.5219
12821TIP3    H159954   0.361   3.547   5.372 -4.0517 -0.9140 -0.5151
12821TIP3    H259955   0.404   3.443   5.474 -1.0035  1.5571  0.8000
12822TIP3   OH259956   3.339   3.885  15.565  0.2047 -0.3173 -0.7591
12822TIP3    H159957   3.278   3.828  15.612 -0.6119 -0.1066 -1.5555
12822TIP3    H259958   3.361   3.954  15.627  0.4690 -0.9807 -0.1102
12823TIP3   OH259959   3.484   1.047  17.170  0.2759  0.1092 -0.1160
12823TIP3    H159960   3.482   0.951  17.167 -0.4808  0.0711  1.2028
12823TIP3    H259961   3.575   1.069  17.189  0.1991 -0.4002  0.8635
12824TIP3   OH259962   6.285   5.541  13.029  0.3185 -0.1360 -0.0777
12824TIP3    H159963   6.311   5.603  13.097 -0.8088 -0.7378  0.9206
12824TIP3    H259964   6.192   5.527  13.044 -0.0666  0.1637 -2.1186
12825TIP3   OH259965   2.162   6.075   6.362  0.6172  0.7031  0.0897
12825TIP3    H159966   2.163   5.980   6.366  1.1474  0.6037 -1.8997
12825TIP3    H259967   2.243   6.098   6.315 -1.1729  1.9253 -2.5289
12826TIP3   OH259968   1.746   4.465   0.522  0.2614  0.2629 -0.3769
12826TIP3    H159969   1.778   4.530   0.460 -1.1683  1.7417  0.3992
12826TIP3    H259970   1.656   4.447   0.494  0.1936 -0.3655  0.2292
12827TIP3   OH259971   5.065   6.811   5.110  0.1302 -0.0545 -0.1637
12827TIP3    H159972   5.099   6.883   5.163  1.6869 -1.0132  0.1696
12827TIP3    H259973   5.038   6.745   5.173 -1.1565  0.1494 -0.4757
12828TIP3   OH259974   2.269   2.955  15.958 -0.5623 -0.2666  0.1464
12828TIP3    H159975   2.296   2.875  16.003 -0.7301 -0.0233  0.6834
12828TIP3    H259976   2.323   3.024  15.998  0.2126 -0.2352 -0.9219
12829TIP3   OH259977   4.691   6.007   0.595 -0.2682 -0.0598  0.0886
12829TIP3    H159978   4.694   5.925   0.546  2.2117  0.6786 -1.0893
12829TIP3    H259979   4.653   6.070   0.534 -0.4616  0.0903  0.3600
12830TIP3   OH259980   5.920   1.323  12.613  0.5782 -0.4050 -0.0324
12830TIP3    H159981   5.843   1.270  12.595 -0.0949  0.1880  1.1164
12830TIP3    H259982   5.929   1.323  12.708  2.4788 -1.1507 -0.1761
12831TIP3   OH259983   0.490   1.484  14.698  0.2385 -0.4957 -0.5314
12831TIP3    H159984   0.567   1.505  14.646  0.6183  0.9994  0.6138
12831TIP3    H259985   0.522   1.426  14.767  0.3233  0.0545 -0.1072
12832TIP3   OH259986   5.988   2.974   0.069  0.2818  0.3343 -0.4145
12832TIP3    H159987   6.026   2.934   0.147 -0.9221 -0.6807 -0.3297
12832TIP3    H259988   5.952   2.900   0.019 -2.7184  1.3172  0.1499
12833TIP3   OH259989   4.744   1.297   2.053 -0.2118  0.0583  0.2196
12833TIP3    H159990   4.769   1.300   2.146 -1.4919  0.1534  0.5707
12833TIP3    H259991   4.791   1.221   2.019  1.1013  0.6437  0.6898
12834TIP3   OH259992   1.627   5.279  15.604 -0.0059 -0.3485  0.1586
12834TIP3    H159993   1.535   5.293  15.583  1.1840  0.8819 -4.8035
12834TIP3    H259994   1.649   5.351  15.663 -2.0015 -0.2345  0.8160
12835TIP3   OH259995   0.222   3.654  16.935 -0.4689 -0.6953 -0.4143
12835TIP3    H159996   0.134   3.679  16.962 -0.3069 -0.3989 -0.1569
12835TIP3    H259997   0.242   3.712  16.861  1.2012  2.3175  2.2662
12836TIP3   OH259998   1.665   1.714   4.739 -0.1431 -0.3094  0.4204
12836TIP3    H159999   1.735   1.658   4.705 -1.2191  0.3037 -3.0122
12836TIP3    H260000   1.590   1.656   4.751 -0.3144 -0.1884 -0.0587
12837TIP3   OH260001   5.657   6.145   2.740  0.6628 -0.4704 -0.1703
12837TIP3    H160002   5.701   6.126   2.657  0.1781 -1.6562 -0.1663
12837TIP3    H260003   5.564   6.131   2.722  0.4563  0.2582  0.3081
12838TIP3   OH260004   6.216   6.108   2.817  0.5048 -0.1983  0.1069
12838TIP3    H160005   6.206   6.199   2.847 -0.5316  0.5623 -2.4319
12838TIP3    H260006   6.139   6.063   2.853  0.2587  0.2504  0.1461
12839TIP3   OH260007   2.714   5.023  13.333  0.6057 -0.2276  0.3645
12839TIP3    H160008   2.741   5.078  13.406  0.0851  0.4230  0.0705
12839TIP3    H260009   2.767   4.943  13.342  0.7573 -0.0283  1.2728
12840TIP3   OH260010   1.128   4.244   3.415 -0.4318 -0.9303 -0.3268
12840TIP3    H160011   1.159   4.220   3.328  0.2821  0.7361 -0.5583
12840TIP3    H260012   1.057   4.307   3.399 -1.1123 -1.5256  0.2830
12841TIP3   OH260013   0.052   5.421   3.138 -0.2170  0.0340  0.4640
12841TIP3    H160014   0.117   5.385   3.198  1.3913  0.0989 -1.1895
12841TIP3    H260015   0.034   5.509   3.171  0.4521 -0.0226  0.9907
12842TIP3   OH260016   6.511   5.437   5.284  0.5119 -0.2527 -0.1997
12842TIP3    H160017   6.507   5.367   5.348  1.6427 -0.8599 -0.7703
12842TIP3    H260018   6.522   5.517   5.336  0.9435 -0.6893  0.3905
12843TIP3   OH260019   5.133   5.648   4.926  0.2257 -0.0640 -0.2452
12843TIP3    H160020   5.040   5.649   4.904 -0.5109  0.6842  2.6699
12843TIP3    H260021   5.169   5.723   4.880 -1.1271  1.1388  0.6141
12844TIP3   OH260022   0.369   5.847  16.489  0.3035 -0.5010 -0.0277
12844TIP3    H160023   0.343   5.828  16.579  1.1195  0.7800  0.4980
12844TIP3    H260024   0.304   5.911  16.459  1.4393  0.9196  0.4938
12845TIP3   OH260025   0.611   5.741  16.821  0.2301 -0.3731  0.2661
12845TIP3    H160026   0.671   5.671  16.796 -0.2788 -0.5801 -0.3548
12845TIP3    H260027   0.641   5.817  16.771 -0.2946 -0.5884 -0.3896
12846TIP3   OH260028   1.070   0.708   2.031 -0.4270 -0.3374  0.3326
12846TIP3    H160029   1.078   0.687   2.124 -2.2053  0.1497  0.6134
12846TIP3    H260030   1.150   0.673   1.991  0.3222 -0.5917  2.0293
12847TIP3   OH260031   0.590   4.860   2.026 -0.4345  0.0251 -0.7356
12847TIP3    H160032   0.520   4.794   2.028  1.4910 -2.0316  2.5240
12847TIP3    H260033   0.569   4.920   2.098 -0.0882  0.7403 -1.2238
12848TIP3   OH260034   5.483   5.679   4.079 -0.1950  0.4499  0.0239
12848TIP3    H160035   5.451   5.594   4.109 -0.7582 -0.0317 -1.8973
12848TIP3    H260036   5.430   5.743   4.127  0.2370 -0.2658  1.4784
12849TIP3   OH260037   6.196   5.462  11.664  0.1654  0.4934  0.0254
12849TIP3    H160038   6.132   5.452  11.594 -0.3512  0.0434  0.5696
12849TIP3    H260039   6.146   5.455  11.745  1.0362 -0.7529  0.4629
12850TIP3   OH260040   1.758   1.360   3.520  0.3930 -0.0556 -0.0828
12850TIP3    H160041   1.753   1.303   3.597 -1.6746 -1.4818 -1.2218
12850TIP3    H260042   1.816   1.313   3.460  1.7600  0.9101  0.4579
12851TIP3   OH260043   5.867   0.326   1.170 -0.6853 -0.1029  0.0754
12851TIP3    H160044   5.842   0.233   1.177 -2.1492  0.4382  2.4594
12851TIP3    H260045   5.934   0.338   1.237 -1.1513  0.7616  0.3974
12852TIP3   OH260046   0.033   3.352  17.077 -0.2671  0.6886  0.6770
12852TIP3    H160047   0.029   3.259  17.100 -2.5111  1.1458  2.2049
12852TIP3    H260048   0.098   3.389  17.136  1.1497  0.0063 -0.3998
12853TIP3   OH260049   6.721   6.392  11.091 -0.2552  0.2444 -0.0617
12853TIP3    H160050   6.786   6.324  11.107  0.3697  1.0139  0.7703
12853TIP3    H260051   6.697   6.381  10.999  1.4027  0.2223 -0.5222
12854TIP3   OH260052   3.215   1.367   5.568  0.0551 -0.1579 -0.2301
12854TIP3    H160053   3.136   1.314   5.557 -0.3437  0.0255  1.6881
12854TIP3    H260054   3.184   1.449   5.605  1.4078 -1.0273  2.9774
12855TIP3   OH260055   5.851   2.886   5.393 -0.0487  0.3530 -0.3608
12855TIP3    H160056   5.881   2.927   5.474  0.0565 -0.0571 -0.1902
12855TIP3    H260057   5.907   2.923   5.325 -1.0842  1.8003 -0.4626
12856TIP3   OH260058   0.192   0.228   4.935  0.3836  0.0130  0.2905
12856TIP3    H160059   0.109   0.205   4.893  1.4724 -0.9683 -1.3471
12856TIP3    H260060   0.241   0.274   4.868  0.8471  1.3688  1.5263
12857TIP3   OH260061   3.192   3.544   2.226  0.2021 -0.3430 -0.0967
12857TIP3    H160062   3.196   3.496   2.309  1.8371  3.2147  1.9706
12857TIP3    H260063   3.243   3.490   2.165  1.6877 -1.4630  2.0649
12858TIP3   OH260064   3.344   6.152  16.178 -0.2526  0.3233 -0.4779
12858TIP3    H160065   3.252   6.177  16.179 -0.4530 -0.4258 -0.0476
12858TIP3    H260066   3.391   6.235  16.169 -0.9420  0.7673 -0.0665
12859TIP3   OH260067   0.730   1.924   5.921 -0.0070  0.3700 -0.1626
12859TIP3    H160068   0.767   1.835   5.917 -0.2156  0.3179 -1.0661
12859TIP3    H260069   0.659   1.917   5.985 -1.7623 -0.7748 -2.1841
12860TIP3   OH260070   3.359   5.735   1.430 -0.2490  0.0201 -0.8310
12860TIP3    H160071   3.442   5.763   1.470 -1.2549  0.8830  0.6829
12860TIP3    H260072   3.329   5.664   1.487 -1.9490  1.6032  0.2912
12861TIP3   OH260073   0.103   3.427   5.399  0.5869  0.1547 -0.1411
12861TIP3    H160074   0.063   3.432   5.486 -2.6759  0.2630 -1.5685
12861TIP3    H260075   0.191   3.462   5.411  0.3304 -0.2193  3.1887
12862TIP3   OH260076   5.932   2.813   2.229 -0.4720  0.3063  0.4924
12862TIP3    H160077   5.848   2.800   2.184  0.1916 -1.2128 -0.3231
12862TIP3    H260078   5.954   2.727   2.264  0.3558  0.8814  1.4088
12863TIP3   OH260079   0.656   6.764  16.329 -0.1341  0.0020 -0.5005
12863TIP3    H160080   0.653   6.756  16.233  0.0468  2.3262 -0.7450
12863TIP3    H260081   0.661   6.859  16.344  1.2644 -0.4096  1.7716
12864TIP3   OH260082   0.808   6.355   0.254 -0.7258 -0.1485 -0.3317
12864TIP3    H160083   0.827   6.399   0.171 -0.9049  1.4203  0.4277
12864TIP3    H260084   0.716   6.378   0.272 -0.7711 -0.7138  0.1503
12865TIP3   OH260085   2.164   0.402   4.108 -0.5247  0.3810  0.1143
12865TIP3    H160086   2.164   0.306   4.109 -2.0844  0.3714  1.2563
12865TIP3    H260087   2.080   0.426   4.070 -0.3104  1.2944  0.1968
12866TIP3   OH260088   3.474   1.165   2.546 -0.1609  0.2842  0.4570
12866TIP3    H160089   3.408   1.100   2.524  0.2885 -0.5997  1.6678
12866TIP3    H260090   3.481   1.220   2.468 -0.1509 -1.4611 -0.8056
12867TIP3   OH260091   1.867   5.102  11.469 -0.2312 -0.5516  0.1426
12867TIP3    H160092   1.962   5.102  11.482 -0.0281  0.8436 -1.1585
12867TIP3    H260093   1.850   5.180  11.416 -1.7677 -2.2150 -1.9239
12868TIP3   OH260094   3.560   5.206  14.833  0.9039  0.1485 -0.2890
12868TIP3    H160095   3.465   5.204  14.839  1.0163 -1.5206  1.2672
12868TIP3    H260096   3.582   5.132  14.777  1.4504 -1.8628  2.4650
12869TIP3   OH260097   1.494   1.330   5.266 -0.0182 -0.0252 -0.1907
12869TIP3    H160098   1.552   1.337   5.342 -2.0205  0.8177  1.2816
12869TIP3    H260099   1.531   1.391   5.203  1.0438  0.0500  0.4815
12870TIP3   OH260100   3.440   0.045   1.262  0.1760 -0.0180 -0.4589
12870TIP3    H160101   3.450   0.099   1.340 -0.4492  2.1202 -1.8263
12870TIP3    H260102   3.405  -0.038   1.294  3.9771 -0.8034  2.0783
12871TIP3   OH260103   0.241   2.883  16.353  0.4554  0.0017  0.2456
12871TIP3    H160104   0.190   2.960  16.330  1.8251  0.7940 -0.2391
12871TIP3    H260105   0.331   2.906  16.330  1.2067 -0.9265  2.0994
12872TIP3   OH260106   4.793   1.608   4.001 -0.2495  0.1075  0.4332
12872TIP3    H160107   4.771   1.677   4.063 -1.2177  0.1295  0.0794
12872TIP3    H260108   4.771   1.645   3.915  0.3237 -0.2164  0.1376
12873TIP3   OH260109   2.480   6.515  13.596  0.3892  0.0439 -0.1900
12873TIP3    H160110   2.435   6.467  13.665  2.5901 -0.4747  0.9237
12873TIP3    H260111   2.415   6.577  13.564 -0.4632  0.8187  2.8573
12874TIP3   OH260112   2.946   5.920  10.559  0.3648 -0.3355 -0.0149
12874TIP3    H160113   2.965   5.864  10.484 -0.9120 -0.6698 -0.0962
12874TIP3    H260114   2.880   5.872  10.609 -0.4956  0.9152  0.0978
12875TIP3   OH260115   6.018   2.474   4.598 -0.1961 -0.1637 -0.3527
12875TIP3    H160116   5.923   2.468   4.612  0.1593 -0.4908  2.1158
12875TIP3    H260117   6.054   2.397   4.643  1.1778 -0.6168 -2.1567
12876TIP3   OH260118   3.746   6.268   4.328 -0.9558 -0.2127 -0.6955
12876TIP3    H160119   3.684   6.264   4.255 -0.7316 -0.3596 -0.8815
12876TIP3    H260120   3.780   6.358   4.326 -1.3857 -0.0478 -0.4078
12877TIP3   OH260121   2.373   2.286   5.916  0.2382 -0.4105  0.1057
12877TIP3    H160122   2.432   2.212   5.904  0.7368 -0.0032  0.0455
12877TIP3    H260123   2.398   2.323   6.001 -0.7223 -0.9574  0.6347
12878TIP3   OH260124   5.425   2.025  12.934 -0.3412  0.4293 -0.5083
12878TIP3    H160125   5.461   2.091  12.874  1.2225 -0.0348 -0.1026
12878TIP3    H260126   5.441   1.942  12.891  0.0967  0.1477  0.1722
12879TIP3   OH260127   4.049   3.602   0.403  0.3894 -0.5045  0.3883
12879TIP3    H160128   3.994   3.677   0.425  0.0266  0.3188 -2.9590
12879TIP3    H260129   3.987   3.532   0.381  0.7043 -0.7635  0.3137
12880TIP3   OH260130   2.603   1.981  11.721  0.4404 -0.0052 -0.0235
12880TIP3    H160131   2.570   1.896  11.750  0.4200 -0.3148 -0.9346
12880TIP3    H260132   2.665   1.961  11.652  0.0229  0.7417 -0.6301
12881TIP3   OH260133   5.185   5.317  15.370 -0.2550  0.4610  0.1203
12881TIP3    H160134   5.119   5.330  15.438 -0.4622 -1.1513  0.2511
12881TIP3    H260135   5.182   5.397  15.318 -2.6026  0.2524 -0.1288
12882TIP3   OH260136   2.932   0.273   3.158 -0.7227  0.0008  0.5999
12882TIP3    H160137   2.973   0.298   3.241 -0.6894 -0.4256  0.7126
12882TIP3    H260138   2.950   0.179   3.149  0.2679  0.2791 -0.4564
12883TIP3   OH260139   1.062   5.252  16.115 -0.0120 -0.0136  0.0993
12883TIP3    H160140   1.076   5.189  16.187  0.6893 -0.8589 -0.7657
12883TIP3    H260141   1.121   5.324  16.136  1.1968 -0.8611 -0.3254
12884TIP3   OH260142   0.566   6.720  12.896 -0.4579  0.5825 -0.2908
12884TIP3    H160143   0.651   6.741  12.935 -0.3154  1.8712 -1.2677
12884TIP3    H260144   0.513   6.690  12.970  0.6826  0.2384  0.4135
12885TIP3   OH260145   5.605   2.240   5.471 -0.3526 -0.4145 -0.8925
12885TIP3    H160146   5.648   2.304   5.527 -2.6402  1.2145 -0.9401
12885TIP3    H260147   5.669   2.169   5.463  0.6958  0.0647  2.3689
12886TIP3   OH260148   4.815   6.506   3.817  0.1510 -0.1191 -0.0304
12886TIP3    H160149   4.769   6.476   3.738 -0.3553  2.4452 -0.7410
12886TIP3    H260150   4.906   6.514   3.790  0.4243 -1.6315  0.3672
12887TIP3   OH260151   0.441   4.018  16.404 -0.0060  0.5400 -0.3221
12887TIP3    H160152   0.465   3.927  16.387 -0.0211  0.8250 -1.9295
12887TIP3    H260153   0.519   4.068  16.381 -0.6955  1.1025 -1.4528
12888TIP3   OH260154   3.953   5.408   2.585  0.7631  0.5248  0.5241
12888TIP3    H160155   3.886   5.433   2.521 -0.6788  1.1058  2.2039
12888TIP3    H260156   4.033   5.448   2.553  0.2054  0.2186 -1.2830
12889TIP3   OH260157   4.618   4.095  13.842 -0.6283  0.5285  0.3167
12889TIP3    H160158   4.602   4.027  13.777  0.6849  1.9875 -1.5761
12889TIP3    H260159   4.537   4.147  13.843 -0.5484  0.6693 -0.3743
12890TIP3   OH260160   2.295   2.797  13.608  0.8981  0.7631 -0.0124
12890TIP3    H160161   2.248   2.714  13.599 -0.4430  1.3361  1.3684
12890TIP3    H260162   2.324   2.818  13.519 -2.1358  0.7531 -1.0634
12891TIP3   OH260163   2.967   5.166   4.888 -0.3009 -0.2945  0.2697
12891TIP3    H160164   2.875   5.138   4.882 -0.1142 -0.6947 -0.9636
12891TIP3    H260165   2.972   5.244   4.832  0.1366 -0.3539  0.2266
12892TIP3   OH260166   4.642   4.122   5.249 -0.5926  0.0274  0.5407
12892TIP3    H160167   4.620   4.103   5.158 -0.0890 -1.8849  0.7856
12892TIP3    H260168   4.557   4.123   5.294 -0.6490 -1.8232  0.5223
12893TIP3   OH260169   2.305   0.904   5.621 -0.5094 -0.0900  0.4774
12893TIP3    H160170   2.256   0.844   5.565 -0.1826 -0.1729  0.2768
12893TIP3    H260171   2.243   0.972   5.645 -0.4565  0.3353 -0.5735
12894TIP3   OH260172   0.895   0.407   2.736  0.1110  0.6110 -0.1169
12894TIP3    H160173   0.953   0.361   2.674  0.9112  0.3940  0.7845
12894TIP3    H260174   0.930   0.386   2.822 -1.7667 -0.1368  0.4893
12895TIP3   OH260175   5.673   3.998  13.456 -0.0859 -0.0219  0.1831
12895TIP3    H160176   5.653   3.940  13.530  0.2078  0.0411  0.3116
12895TIP3    H260177   5.700   4.080  13.497 -0.3946  0.1726  0.0027
12896TIP3   OH260178   4.151   1.519   3.100  0.5266 -0.1466  0.5547
12896TIP3    H160179   4.091   1.547   3.031  1.9348  0.7803 -0.3209
12896TIP3    H260180   4.127   1.571   3.177 -0.0754 -0.1107  0.3435
12897TIP3   OH260181   5.981   5.713   3.100  0.4776  0.1991  0.0452
12897TIP3    H160182   6.057   5.673   3.057  0.0919  0.6435 -1.0804
12897TIP3    H260183   5.910   5.704   3.036 -0.2522  0.3890  0.8142
12898TIP3   OH260184   0.128   2.151  14.349 -0.2819 -0.0561 -0.0414
12898TIP3    H160185   0.218   2.150  14.381 -0.1452  1.0730 -0.3656
12898TIP3    H260186   0.080   2.200  14.416 -0.5450 -0.2042 -0.1238
12899TIP3   OH260187   1.143   6.747  11.143  0.5903  0.3410  0.0546
12899TIP3    H160188   1.093   6.684  11.195 -0.4073  0.0953 -1.1641
12899TIP3    H260189   1.176   6.696  11.069  0.2159  1.1291 -0.6605
12900TIP3   OH260190   4.845   1.481   4.555  0.2737  0.0913  0.5656
12900TIP3    H160191   4.776   1.439   4.605  0.9988 -0.7350  0.8848
12900TIP3    H260192   4.924   1.466   4.607  1.1052 -1.1248 -1.0119
12901TIP3   OH260193   6.760   2.143   3.463 -0.4332 -0.0072 -0.4220
12901TIP3    H160194   6.708   2.135   3.383 -0.2730  1.1439 -0.6602
12901TIP3    H260195   6.811   2.063   3.467  0.7394  0.6050 -2.3399
12902TIP3   OH260196   3.424   4.990   4.906  0.0870 -0.0530  0.4372
12902TIP3    H160197   3.412   5.084   4.896  2.6936  0.4243  1.3657
12902TIP3    H260198   3.442   4.977   4.999 -1.6120 -1.6574  0.5791
12903TIP3   OH260199   4.541   6.516  15.984 -0.0226 -0.0966  0.4142
12903TIP3    H160200   4.585   6.567  15.915 -0.5558  0.8093  0.7387
12903TIP3    H260201   4.463   6.482  15.942 -0.0419 -0.0401  0.4052
12904TIP3   OH260202   2.082   6.031   5.462 -0.1868  0.3076  0.0741
12904TIP3    H160203   2.021   6.076   5.520  1.6577  1.0500  1.4796
12904TIP3    H260204   2.130   6.101   5.419  0.4952 -0.2758 -0.1238
12905TIP3   OH260205   4.987   6.034   2.326  0.3242  0.2543 -0.1383
12905TIP3    H160206   4.998   6.026   2.232 -0.4233 -1.1126 -0.1252
12905TIP3    H260207   5.076   6.043   2.360  0.7337 -0.9835 -0.8357
12906TIP3   OH260208   1.460   1.215   5.589  0.0001  0.2774 -0.0211
12906TIP3    H160209   1.424   1.139   5.543 -1.1525  0.8581 -0.0766
12906TIP3    H260210   1.548   1.187   5.614 -0.5375 -1.2149  0.2781
12907TIP3   OH260211   5.255   1.876  14.298  0.1231 -0.3420 -0.7756
12907TIP3    H160212   5.320   1.921  14.352 -0.8179 -1.9737  1.7898
12907TIP3    H260213   5.305   1.809  14.251  0.2859 -1.8712  1.5007
12908TIP3   OH260214   3.803   5.764  15.611 -0.2690  0.0659 -0.3742
12908TIP3    H160215   3.867   5.697  15.637  0.7435  0.9425 -0.5642
12908TIP3    H260216   3.761   5.727  15.533  0.0555 -0.4890 -0.2926
12909TIP3   OH260217   0.279   0.011  15.933  0.2842  0.0358  0.4271
12909TIP3    H160218   0.324  -0.073  15.940  0.7211  0.2096 -0.3610
12909TIP3    H260219   0.295   0.054  16.017  0.8138 -0.2888  0.4928
12910TIP3   OH260220   1.549   0.423  16.422  0.1128 -0.4082 -0.2088
12910TIP3    H160221   1.568   0.453  16.511  0.5256 -0.1672 -0.3760
12910TIP3    H260222   1.498   0.343  16.434  1.9171 -1.5222  0.2422
12911TIP3   OH260223   0.456   5.450  14.520 -0.3386  0.1639 -0.2815
12911TIP3    H160224   0.441   5.360  14.489  0.4033  0.2201 -0.8111
12911TIP3    H260225   0.527   5.483  14.466  0.6940  0.4224  1.1929
12912TIP3   OH260226   5.847   5.334  16.401 -0.0327  0.0978 -0.0121
12912TIP3    H160227   5.937   5.315  16.373  0.4842  1.8755  0.4334
12912TIP3    H260228   5.799   5.344  16.319 -0.1588 -2.2611 -0.2679
12913TIP3   OH260229   2.598   2.047  15.271 -0.7194 -0.1993 -0.3091
12913TIP3    H160230   2.608   1.952  15.279 -1.7454 -0.4781 -1.9954
12913TIP3    H260231   2.685   2.078  15.244 -0.0143 -0.4718  1.6152
12914TIP3   OH260232   4.995   5.490   5.700 -0.3486 -0.1236 -0.9723
12914TIP3    H160233   5.085   5.461   5.715 -0.1277  0.2921 -1.4986
12914TIP3    H260234   4.994   5.581   5.730 -1.2244 -0.8684  1.3790
12915TIP3   OH260235   4.154   4.688  16.202  0.1111 -0.7925 -0.3695
12915TIP3    H160236   4.214   4.686  16.276 -0.9065  1.9751  0.5948
12915TIP3    H260237   4.067   4.694  16.241 -0.4783  0.1095 -1.7638
12916TIP3   OH260238   1.948   6.113  14.549 -0.1542  0.7300 -0.0370
12916TIP3    H160239   1.877   6.067  14.594 -0.1502  0.5805 -0.1852
12916TIP3    H260240   2.020   6.114  14.613  0.1919 -0.3615 -0.4067
12917TIP3   OH260241   1.479   1.183  15.556  0.4711 -0.0912 -0.0635
12917TIP3    H160242   1.515   1.124  15.491  2.2458 -0.3024  1.0643
12917TIP3    H260243   1.464   1.128  15.633  0.9874  0.6710  0.5976
12918TIP3   OH260244   4.445   2.110  13.038  0.1498 -0.1603 -0.2445
12918TIP3    H160245   4.483   2.030  13.074  0.8866  0.3859  0.1965
12918TIP3    H260246   4.515   2.149  12.986  0.3111  1.0240  0.8418
12919TIP3   OH260247   6.186   3.734  14.478  0.3821 -0.6000  0.0685
12919TIP3    H160248   6.146   3.657  14.438 -1.4738  1.0766 -1.4733
12919TIP3    H260249   6.251   3.764  14.414  0.1623 -0.1502  0.0495
12920TIP3   OH260250   6.055   5.846   4.258 -0.4064 -0.5170  0.0169
12920TIP3    H160251   6.082   5.923   4.208 -0.4505 -0.7316 -0.3401
12920TIP3    H260252   5.979   5.812   4.211 -1.2063 -0.0172  0.9185
12921TIP3   OH260253   1.850   3.896  13.543 -0.3675 -0.1401 -0.0451
12921TIP3    H160254   1.774   3.839  13.550  0.0007 -0.6027  0.2820
12921TIP3    H260255   1.861   3.910  13.449  0.3762 -1.7944 -0.2362
12922TIP3   OH260256   6.105   1.172   3.176  0.5381  0.0266 -0.1605
12922TIP3    H160257   6.190   1.127   3.173 -0.0264 -0.9666 -2.1883
12922TIP3    H260258   6.058   1.139   3.100 -2.2224 -0.5276  1.6897
12923TIP3   OH260259   3.358   1.246  16.143  0.6975  0.0748  0.0177
12923TIP3    H160260   3.378   1.180  16.077 -0.0233 -0.1766  0.0566
12923TIP3    H260261   3.379   1.204  16.226  0.5037 -0.0015  0.0274
12924TIP3   OH260262   3.619   0.657  16.137  0.1955  0.0951  0.0033
12924TIP3    H160263   3.595   0.737  16.184  1.4573  0.9748 -0.8047
12924TIP3    H260264   3.608   0.587  16.201  1.5406  1.2394  1.5322
12925TIP3   OH260265   0.065   1.182  11.758 -0.0258  0.0280  0.0690
12925TIP3    H160266   0.092   1.214  11.844 -0.8738 -0.9510  0.7100
12925TIP3    H260267   0.129   1.115  11.735 -1.0296 -1.2511  0.9283
12926TIP3   OH260268   0.467   2.016  16.027 -1.0372 -0.2106  0.3454
12926TIP3    H160269   0.441   2.075  15.957  1.6673 -2.0485 -2.2963
12926TIP3    H260270   0.469   1.929  15.986  0.4269 -1.3695  2.7396
12927TIP3   OH260271   2.301   4.431   3.289 -0.3620 -0.2421 -0.7020
12927TIP3    H160272   2.250   4.368   3.339  0.0621  1.5549  2.1261
12927TIP3    H260273   2.383   4.386   3.269 -0.8922 -1.2782 -0.5487
12928TIP3   OH260274   6.262   4.623  11.744  0.3049  0.0562 -0.1258
12928TIP3    H160275   6.172   4.641  11.772 -0.2844 -1.1387 -1.1809
12928TIP3    H260276   6.290   4.703  11.701 -0.2407  0.4574  0.2506
12929TIP3   OH260277   4.008   5.755  11.584 -0.1295  0.3414 -0.2130
12929TIP3    H160278   3.944   5.755  11.513 -2.5490 -1.7379  1.8644
12929TIP3    H260279   3.981   5.826  11.641 -0.1510 -0.0721  0.2941
12930TIP3   OH260280   5.900   0.458   2.619  0.2129  0.2737  0.1426
12930TIP3    H160281   5.811   0.487   2.636  0.3765  0.9697 -0.1594
12930TIP3    H260282   5.944   0.463   2.703 -0.9710 -3.5789  1.1151
12931TIP3   OH260283   0.731   2.553  15.348  0.1698  0.3169 -0.3911
12931TIP3    H160284   0.695   2.507  15.424 -0.6938  1.1932 -0.2666
12931TIP3    H260285   0.808   2.501  15.324  1.3196  0.8375  1.9757
12932TIP3   OH260286   6.213   1.282  13.674 -0.1819  0.2697  0.3098
12932TIP3    H160287   6.264   1.260  13.596  0.4121  0.3267  0.6801
12932TIP3    H260288   6.271   1.261  13.747 -0.9250 -0.2829  0.7546
12933TIP3   OH260289   5.836   4.730   5.158 -0.0875  0.0174  0.1101
12933TIP3    H160290   5.749   4.771   5.156  0.7606  1.8257 -1.5082
12933TIP3    H260291   5.881   4.766   5.082  2.1185 -0.8466  0.9694
12934TIP3   OH260292   1.893   4.709  17.270 -0.1169 -0.5883  0.4067
12934TIP3    H160293   1.899   4.733  17.177  0.4085 -2.7011 -0.1343
12934TIP3    H260294   1.977   4.736  17.307  0.6919 -2.0264 -0.3193
12935TIP3   OH260295   1.849   3.643  17.039 -0.3562  0.3813 -0.2340
12935TIP3    H160296   1.840   3.642  17.134 -1.2136  0.2252 -0.3081
12935TIP3    H260297   1.894   3.725  17.020  2.9672 -1.1800  0.5459
12936TIP3   OH260298   2.748   2.589  12.286  0.4980 -0.5646  0.0714
12936TIP3    H160299   2.797   2.553  12.211 -0.9826 -1.2816 -0.5736
12936TIP3    H260300   2.662   2.549  12.279 -0.0584  0.3797  1.4341
12937TIP3   OH260301   2.768   6.752  16.402  0.2406 -0.4542 -0.1607
12937TIP3    H160302   2.776   6.800  16.485  0.8571 -0.3276 -0.2897
12937TIP3    H260303   2.794   6.662  16.424 -1.5399 -0.9075  0.2306
12938TIP3   OH260304   0.789   5.132   5.631  0.1385  0.4474 -0.1636
12938TIP3    H160305   0.774   5.167   5.543 -3.3964 -0.8524 -0.1873
12938TIP3    H260306   0.756   5.200   5.689 -1.6767 -0.4891 -0.0442
12939TIP3   OH260307   3.329   3.335   5.649  0.2284  0.5589 -0.3345
12939TIP3    H160308   3.307   3.242   5.645 -2.3855  1.2106 -2.1834
12939TIP3    H260309   3.369   3.346   5.735 -0.8416 -1.9903  0.5450
12940TIP3   OH260310   3.604   2.840   3.734  0.1305  0.1877  0.0913
12940TIP3    H160311   3.513   2.815   3.753 -0.8490  2.3987 -1.4867
12940TIP3    H260312   3.656   2.767   3.769 -2.2405 -1.2556  0.7865
12941TIP3   OH260313   3.952   0.328  12.002 -0.2981 -0.1136 -0.0802
12941TIP3    H160314   3.913   0.414  11.985 -0.3734  0.0661  0.9878
12941TIP3    H260315   3.895   0.267  11.954 -1.4208  0.2320  0.7895
12942TIP3   OH260316   4.404   1.388  13.694  0.5496 -0.0032 -0.6771
12942TIP3    H160317   4.322   1.436  13.710  1.4394  0.8567  1.5104
12942TIP3    H260318   4.384   1.329  13.622 -2.0052  0.1937 -0.1611
12943TIP3   OH260319   3.929   6.474   4.203 -0.3199  0.1428  0.4164
12943TIP3    H160320   3.993   6.493   4.134 -1.3464  1.1908 -0.2667
12943TIP3    H260321   3.981   6.441   4.276  0.8842 -0.0640 -0.5235
12944TIP3   OH260322   2.573   5.602   1.383 -0.0653  0.7587  0.2122
12944TIP3    H160323   2.615   5.576   1.465 -0.7090 -0.2776  0.2228
12944TIP3    H260324   2.532   5.687   1.402 -2.7468 -0.8383  1.8666
12945TIP3   OH260325   4.461   2.482   1.027  0.5579  0.8383  0.1642
12945TIP3    H160326   4.405   2.462   0.952  1.3673  0.8515 -0.4622
12945TIP3    H260327   4.498   2.568   1.007  0.9832  0.7258  0.4469
12946TIP3   OH260328   0.290   2.003  17.246  0.0906  0.2032  0.2876
12946TIP3    H160329   0.273   1.909  17.242 -0.7357  0.2806  1.7688
12946TIP3    H260330   0.250   2.037  17.166  0.8879 -0.7673 -0.5418
12947TIP3   OH260331   5.966   2.850   4.167 -0.1660 -0.2122 -0.9473
12947TIP3    H160332   5.883   2.820   4.130 -0.0829  0.4833 -1.7166
12947TIP3    H260333   5.997   2.777   4.220 -3.4287  1.0125  2.9651
12948TIP3   OH260334   2.015   1.033  14.281  0.1078 -0.3999  0.0133
12948TIP3    H160335   1.952   1.049  14.210  1.0861  2.4047 -0.3078
12948TIP3    H260336   1.981   1.084  14.355  1.1936 -0.0915  0.3036
12949TIP3   OH260337   1.726   5.309   3.694 -0.2954  0.0675 -1.1630
12949TIP3    H160338   1.753   5.220   3.670  1.0726  0.3078 -0.5241
12949TIP3    H260339   1.631   5.302   3.709  0.1151 -1.7218  0.8315
12950TIP3   OH260340   6.289   3.385   1.742  0.1426  0.4847  0.1497
12950TIP3    H160341   6.368   3.332   1.758  1.8818  2.9247 -0.0557
12950TIP3    H260342   6.222   3.321   1.720  2.5510 -1.5758 -1.5872
12951TIP3   OH260343   3.133   1.194   3.825  0.3298  0.7689  0.1299
12951TIP3    H160344   3.066   1.125   3.818  0.7728  0.2395  1.0986
12951TIP3    H260345   3.085   1.275   3.809 -0.8616  0.5351  2.3527
12952TIP3   OH260346   5.971   1.110  15.086  0.0654 -0.4378  0.2977
12952TIP3    H160347   5.987   1.058  15.007 -1.3621 -2.1398  1.0798
12952TIP3    H260348   5.929   1.190  15.054  0.6778 -0.5278 -0.7678
12953TIP3   OH260349   2.781   5.456  13.960 -0.2817 -0.2528 -0.1994
12953TIP3    H160350   2.809   5.544  13.986  0.0565  0.0176 -1.4627
12953TIP3    H260351   2.707   5.471  13.901  0.2091 -0.7940 -0.9531
12954TIP3   OH260352   0.442   5.815  13.609 -0.2228  0.0273  0.3586
12954TIP3    H160353   0.424   5.767  13.690 -0.3358 -0.0620  0.2782
12954TIP3    H260354   0.432   5.751  13.539  2.2460 -0.5112  0.4458
12955TIP3   OH260355   1.601   6.131  14.319 -0.5736 -0.3357  0.3154
12955TIP3    H160356   1.647   6.122  14.235 -1.1511  0.1336 -0.0570
12955TIP3    H260357   1.520   6.082  14.307 -0.2549 -1.0174  0.9146
12956TIP3   OH260358   5.970   6.007  12.626  0.3646 -0.2182  0.1896
12956TIP3    H160359   6.040   5.962  12.673 -0.4185 -1.1519  0.4919
12956TIP3    H260360   5.902   6.021  12.692 -0.8080 -1.6853 -0.6567
12957TIP3   OH260361   4.170   6.160  10.745  0.6583 -0.3084 -0.6139
12957TIP3    H160362   4.202   6.179  10.833  0.7606  1.8615 -1.0851
12957TIP3    H260363   4.131   6.243  10.715  0.6276 -1.0074 -2.5944
12958TIP3   OH260364   2.341   5.991   3.132 -0.3695  0.4284  0.2950
12958TIP3    H160365   2.255   6.020   3.101 -1.1213 -0.8685  1.1419
12958TIP3    H260366   2.326   5.905   3.170  1.3197  0.1649  0.4325
12959TIP3   OH260367   0.356   5.746  13.045  0.5819 -0.4108  0.2835
12959TIP3    H160368   0.315   5.796  12.975 -0.2147 -2.6761 -0.8945
12959TIP3    H260369   0.323   5.787  13.125 -3.1492 -1.4523 -0.6200
12960TIP3   OH260370   3.525   1.906   0.229 -0.2639 -0.3339  0.3483
12960TIP3    H160371   3.559   1.934   0.144 -0.4754 -1.1060  0.0037
12960TIP3    H260372   3.478   1.983   0.262 -0.3215 -0.0824 -0.3062
12961TIP3   OH260373   5.130   6.049  12.621 -0.2057  0.2316  0.8025
12961TIP3    H160374   5.161   6.110  12.554 -0.2046 -0.2271  0.3831
12961TIP3    H260375   5.159   5.963  12.591 -1.3564 -0.1348  0.7132
12962TIP3   OH260376   3.895   2.939  16.471 -0.4152  0.0074 -0.3249
12962TIP3    H160377   3.886   2.948  16.376  0.0498 -1.8857 -0.5809
12962TIP3    H260378   3.978   2.893  16.483 -0.7444 -0.2781  0.9660
12963TIP3   OH260379   4.550   2.552  16.524  0.4562 -0.1996  0.4892
12963TIP3    H160380   4.594   2.478  16.567  1.1938  0.3287  0.6565
12963TIP3    H260381   4.621   2.613  16.504  0.2352 -0.6880 -2.0033
12964TIP3   OH260382   2.384   4.325  17.161  0.2395 -0.0552 -0.0642
12964TIP3    H160383   2.402   4.412  17.196  0.3318  0.2956 -0.9687
12964TIP3    H260384   2.446   4.315  17.088 -0.6618 -0.3308 -0.8085
12965TIP3   OH260385   4.577   4.946   2.277  0.5356 -0.4220  0.4907
12965TIP3    H160386   4.525   4.981   2.205  1.7007  1.1568  0.3966
12965TIP3    H260387   4.512   4.911   2.339 -0.6036  1.0366  0.1306
12966TIP3   OH260388   3.193   6.147   3.474  0.0820 -0.0730 -0.1229
12966TIP3    H160389   3.191   6.065   3.425 -1.6000  0.1688 -0.4752
12966TIP3    H260390   3.255   6.131   3.545 -0.2621 -1.6506 -0.1717
12967TIP3   OH260391   3.071   2.002   5.010  0.2067  0.2041  0.0373
12967TIP3    H160392   3.029   1.988   5.095 -0.0188 -0.3647 -0.1641
12967TIP3    H260393   3.026   2.078   4.974 -1.5095 -1.1217 -0.7003
12968TIP3   OH260394   1.363   5.807   2.629 -0.0498  0.2687 -0.1751
12968TIP3    H160395   1.364   5.900   2.653 -0.9939 -0.1360  1.5206
12968TIP3    H260396   1.270   5.784   2.630  0.1513 -0.6072 -1.0227
12969TIP3   OH260397   3.959   0.539  15.495  0.2539 -0.7202 -0.0090
12969TIP3    H160398   3.971   0.448  15.467  0.1375 -0.1689 -1.9306
12969TIP3    H260399   4.046   0.577  15.492  0.0962 -0.3986 -0.5676
12970TIP3   OH260400   1.797   3.435   4.792 -0.3771  0.3970 -1.1337
12970TIP3    H160401   1.888   3.465   4.786 -0.4908  0.4846 -2.5162
12970TIP3    H260402   1.798   3.368   4.860  0.0249  3.0327  1.5963
12971TIP3   OH260403   0.634   0.457  17.212 -0.1089 -0.6946  0.4727
12971TIP3    H160404   0.637   0.383  17.151 -0.3625 -0.1656 -0.1807
12971TIP3    H260405   0.721   0.496  17.208 -0.6558  0.4111 -0.8845
12972TIP3   OH260406   2.414   1.284   6.005  0.2412  0.1860 -0.2253
12972TIP3    H160407   2.365   1.365   6.021  0.5576  0.1793  0.8246
12972TIP3    H260408   2.471   1.275   6.081  2.4266  0.5710 -1.7732
12973TIP3   OH260409   1.592   0.773  13.420  0.3990  0.0640 -0.8954
12973TIP3    H160410   1.660   0.815  13.472  1.1866 -1.5659 -0.5890
12973TIP3    H260411   1.629   0.689  13.394 -2.5051 -2.1218  1.6877
12974TIP3   OH260412   3.057   4.633   2.159  0.2513  0.1263 -0.1652
12974TIP3    H160413   3.081   4.722   2.185  0.8381 -1.1835  4.0861
12974TIP3    H260414   2.961   4.633   2.162  0.2089  0.8986 -1.2519
12975TIP3   OH260415   4.367   3.573  16.853  0.6068  0.2680 -0.3977
12975TIP3    H160416   4.320   3.501  16.809  0.0153  0.9233 -0.8422
12975TIP3    H260417   4.310   3.598  16.925  1.9909 -1.4151  1.3528
12976TIP3   OH260418   0.700   4.465  15.252  0.2271  0.0548  0.8021
12976TIP3    H160419   0.650   4.385  15.235 -0.2435  0.4977  0.0813
12976TIP3    H260420   0.751   4.478  15.172  0.5729  0.2891  1.0582
12977TIP3   OH260421   1.106   6.427   3.633  0.0524 -0.4975  0.0429
12977TIP3    H160422   1.174   6.488   3.661 -0.1065 -0.7378  0.9603
12977TIP3    H260423   1.041   6.482   3.589  0.1248 -0.0691  0.4697
12978TIP3   OH260424   6.016   2.814   3.802 -0.0521 -0.2521 -0.0686
12978TIP3    H160425   5.994   2.723   3.785  0.3392 -0.1359 -1.2540
12978TIP3    H260426   5.938   2.863   3.776  0.2424 -0.1397 -0.7449
12979TIP3   OH260427   2.721   5.677   4.522 -0.2697 -0.3947 -0.4842
12979TIP3    H160428   2.776   5.625   4.581 -0.8232  0.5637  0.9171
12979TIP3    H260429   2.780   5.702   4.451  0.7087 -0.6962  0.1946
12980TIP3   OH260430   1.037   6.302  13.179  0.0529 -0.4903 -0.6480
12980TIP3    H160431   1.008   6.254  13.257  1.0013 -0.8318 -0.5053
12980TIP3    H260432   0.973   6.278  13.111 -0.0940 -1.1045 -0.2902
12981TIP3   OH260433   3.554   6.371   3.749  0.3800  0.5148 -0.5369
12981TIP3    H160434   3.499   6.422   3.808  1.9109  1.7756 -0.1617
12981TIP3    H260435   3.641   6.409   3.758  1.1380 -0.8474 -1.8036
12982TIP3   OH260436   5.402   6.524   3.103  0.7967 -0.2657 -0.3359
12982TIP3    H160437   5.475   6.586   3.112  0.0719  0.3867  1.1407
12982TIP3    H260438   5.330   6.564   3.152 -0.4764 -1.0463 -1.5463
12983TIP3   OH260439   1.135   4.777  13.427  0.2460 -0.2869  0.1419
12983TIP3    H160440   1.141   4.843  13.496 -0.6456 -0.1636  0.1081
12983TIP3    H260441   1.106   4.826  13.349  1.8635 -0.3098 -0.4956
12984TIP3   OH260442   5.441   6.161   5.423  0.3746  0.0840  0.1552
12984TIP3    H160443   5.451   6.244   5.376  0.7735  0.7570  1.4046
12984TIP3    H260444   5.495   6.171   5.502  0.5525 -1.4297  0.2357
12985TIP3   OH260445   2.542   4.408  14.337 -0.5878  0.5307 -0.2899
12985TIP3    H160446   2.593   4.413  14.256  0.6804  1.4218  0.5429
12985TIP3    H260447   2.592   4.460  14.400 -2.1870  0.8729  0.7348
12986TIP3   OH260448   1.777   3.032  13.029  0.3634  0.1188 -0.8095
12986TIP3    H160449   1.730   3.108  13.061 -0.3797 -0.7466  0.1688
12986TIP3    H260450   1.863   3.037  13.070 -0.2361 -0.4357  0.5254
12987TIP3   OH260451   4.792   0.707   1.381 -0.0609 -0.0666 -0.1424
12987TIP3    H160452   4.730   0.639   1.411  0.0987  0.3056  1.0610
12987TIP3    H260453   4.737   0.769   1.332 -0.3635 -0.5802 -0.4631
12988TIP3   OH260454   2.356   5.622  12.111 -0.1797 -0.0002 -0.3969
12988TIP3    H160455   2.325   5.535  12.087  0.9640 -0.1519 -1.3837
12988TIP3    H260456   2.319   5.680  12.045  0.1116  0.0720 -0.5012
12989TIP3   OH260457   3.688   6.274  11.483  0.2337  0.5068 -0.2529
12989TIP3    H160458   3.667   6.351  11.536 -1.7017 -1.2352  1.6201
12989TIP3    H260459   3.614   6.214  11.498  1.4079 -1.4712 -2.1236
12990TIP3   OH260460   5.895   3.996  14.352  0.6316  0.1514 -0.2447
12990TIP3    H160461   5.937   3.980  14.436  0.5529 -0.4140 -0.3121
12990TIP3    H260462   5.822   3.934  14.349  1.1443 -0.4186 -1.0945
12991TIP3   OH260463   3.375   2.416   3.530  0.4647 -0.5244  0.2656
12991TIP3    H160464   3.459   2.404   3.575  0.7364  2.2294  0.5699
12991TIP3    H260465   3.309   2.401   3.598  0.7399 -0.9893  0.4337
12992TIP3   OH260466   2.700   3.585  16.206  0.3435  0.3191 -0.1265
12992TIP3    H160467   2.760   3.550  16.141 -0.0400 -2.1578  0.8042
12992TIP3    H260468   2.702   3.680  16.192  0.8765 -0.1031 -3.1630
12993TIP3   OH260469   4.717   2.633   0.391  0.5755  0.0452  0.2391
12993TIP3    H160470   4.813   2.636   0.386  0.6454 -0.2577  1.1460
12993TIP3    H260471   4.697   2.685   0.470 -0.1716  2.2382 -1.3482
12994TIP3   OH260472   4.422   1.458   3.022  0.1289 -0.5941  0.1519
12994TIP3    H160473   4.447   1.421   3.106 -0.2748 -0.6806  0.2339
12994TIP3    H260474   4.327   1.472   3.029  0.4040  1.2513  0.4512
12995TIP3   OH260475   0.420   3.046   2.375  0.2235 -0.5133 -0.1774
12995TIP3    H160476   0.466   3.073   2.455  2.1076  1.7245 -1.9490
12995TIP3    H260477   0.405   2.953   2.387  1.7889 -0.5174  2.1662
12996TIP3   OH260478   0.642   4.970  13.044 -0.4902 -0.5260 -0.0897
12996TIP3    H160479   0.719   4.947  13.096 -0.7901 -0.9616  0.1685
12996TIP3    H260480   0.589   5.024  13.103 -0.9837 -1.2896  0.1790
12997TIP3   OH260481   4.143   5.129  17.159  0.0909 -0.6935  0.0560
12997TIP3    H160482   4.230   5.089  17.152 -0.0097 -1.0648  0.7989
12997TIP3    H260483   4.146   5.178  17.241 -0.1889 -0.1766 -0.2419
12998TIP3   OH260484   3.264   1.675   4.280 -0.6388 -0.2282 -0.4580
12998TIP3    H160485   3.286   1.652   4.371 -0.6069 -1.3310 -0.7424
12998TIP3    H260486   3.345   1.660   4.232 -0.2051  1.8548 -0.4144
12999TIP3   OH260487   1.543   5.769   2.270  0.1361  0.3013 -0.7036
12999TIP3    H160488   1.578   5.691   2.313 -2.8838 -1.0284 -0.5515
12999TIP3    H260489   1.562   5.840   2.332 -0.3642 -0.9105  0.8901
13000TIP3   OH260490   6.754   5.077   6.117 -0.0055 -0.1773  0.6082
13000TIP3    H160491   6.756   5.120   6.032 -0.1472 -1.1845  0.0890
13000TIP3    H260492   6.699   5.133   6.171 -0.3735  0.1701 -0.1282
13001TIP3   OH260493   6.329   6.763  10.869 -0.0278 -0.7306 -0.6974
13001TIP3    H160494   6.233   6.770  10.869  0.0543  0.5957  0.5767
13001TIP3    H260495   6.352   6.760  10.962  1.3783  2.1412 -0.9174
13002TIP3   OH260496   4.732   2.038  12.964  0.0123 -0.0611 -0.2198
13002TIP3    H160497   4.743   2.132  12.978  1.0536  0.0588 -1.6981
13002TIP3    H260498   4.818   2.008  12.934 -0.3991 -1.4219 -0.0885
13003TIP3   OH260499   6.106   6.681  14.579 -0.8434 -0.0056  0.5845
13003TIP3    H160500   6.132   6.763  14.623 -0.5812 -0.7586  1.8701
13003TIP3    H260501   6.166   6.675  14.505 -0.3149  0.5709  0.9481
13004TIP3   OH260502   1.778   1.721   1.529  0.2485  0.5335  0.0763
13004TIP3    H160503   1.755   1.755   1.443 -1.2487  1.6494  0.9086
13004TIP3    H260504   1.831   1.790   1.569  0.5260  0.2224  0.2536
13005TIP3   OH260505   6.640   0.230  14.807 -0.0040 -0.5181 -0.2679
13005TIP3    H160506   6.619   0.240  14.900  2.3093  0.5276  0.1964
13005TIP3    H260507   6.612   0.312  14.767  0.1593 -0.4518 -0.2494
13006TIP3   OH260508   0.382   4.425   0.364  0.1236 -0.7224  0.0655
13006TIP3    H160509   0.405   4.396   0.276  1.4505  1.1437 -0.2499
13006TIP3    H260510   0.318   4.495   0.350  2.1903  1.2964  0.4145
13007TIP3   OH260511   5.933   5.556  17.276 -0.0145 -0.3923 -0.2592
13007TIP3    H160512   5.840   5.579  17.276 -0.3119 -1.5200  0.6358
13007TIP3    H260513   5.934   5.461  17.286  1.2446 -0.3483  0.1385
13008TIP3   OH260514   2.955   2.678  16.093 -0.4261 -0.2523 -0.0844
13008TIP3    H160515   3.050   2.687  16.094 -0.4764  0.2098  1.2174
13008TIP3    H260516   2.938   2.609  16.029  0.8682 -1.4221  0.8307
13009TIP3   OH260517   5.512   1.265   4.060  0.0090  0.3533 -1.1432
13009TIP3    H160518   5.516   1.240   3.968  2.2689  0.7205 -1.1598
13009TIP3    H260519   5.508   1.181   4.107 -1.2845  0.1688 -1.5410
13010TIP3   OH260520   0.945   0.380   0.804  0.0139  0.4114  0.6501
13010TIP3    H160521   0.881   0.397   0.735  0.6811  0.8814  0.1261
13010TIP3    H260522   0.929   0.290   0.831 -0.6470  0.4231  0.2896
13011TIP3   OH260523   1.842   5.715   2.812  0.5407 -0.1211  0.2507
13011TIP3    H160524   1.869   5.710   2.903  1.0482 -1.6531  0.0285
13011TIP3    H260525   1.746   5.720   2.816  0.5317 -0.6993  0.8590
13012TIP3   OH260526   6.555   0.296   1.256 -0.3652 -0.5539 -0.0717
13012TIP3    H160527   6.611   0.252   1.320  0.7453  3.2883  1.7179
13012TIP3    H260528   6.481   0.328   1.307 -0.3983  0.9460 -1.0190
13013TIP3   OH260529   4.525   6.677  16.246  0.3874 -0.1248  0.4228
13013TIP3    H160530   4.429   6.673  16.244  0.4191 -0.4672 -1.8588
13013TIP3    H260531   4.545   6.771  16.240  0.1916  0.0218  1.9694
13014TIP3   OH260532   2.787   4.567   2.132 -1.0033  0.1593 -0.2671
13014TIP3    H160533   2.841   4.488   2.130 -2.1550 -0.6155 -1.1342
13014TIP3    H260534   2.767   4.585   2.040 -0.0366  1.9621 -0.1365
13015TIP3   OH260535   4.255   2.669   1.796 -0.6325  0.0465  0.0897
13015TIP3    H160536   4.339   2.657   1.840 -1.2609 -1.4635  0.9209
13015TIP3    H260537   4.211   2.739   1.844  0.0947  0.7678 -0.2854
13016TIP3   OH260538   1.175   6.223   0.904 -0.3501  0.5190 -0.3595
13016TIP3    H160539   1.107   6.291   0.908  0.9217  1.8023 -0.4625
13016TIP3    H260540   1.207   6.216   0.993  0.0626  0.6116 -0.5002
13017TIP3   OH260541   3.869   2.501  13.853 -0.4748  0.4410 -0.7707
13017TIP3    H160542   3.933   2.493  13.781  0.7830 -0.3767  0.4086
13017TIP3    H260543   3.810   2.427  13.841 -0.8076  0.8219 -1.4888
13018TIP3   OH260544   5.686   6.576   5.177  0.2400 -0.1775 -0.3225
13018TIP3    H160545   5.779   6.596   5.171  0.4574 -1.0781  0.0138
13018TIP3    H260546   5.663   6.596   5.268  0.4866 -1.5753  0.0504
13019TIP3   OH260547   0.861   6.456   4.737 -0.7556 -0.0350  0.2138
13019TIP3    H160548   0.948   6.468   4.699 -1.5040 -0.9832 -1.8959
13019TIP3    H260549   0.811   6.532   4.708 -1.3226 -0.7389 -0.6715
13020TIP3   OH260550   1.575   1.100   3.437 -0.1272  0.3854 -0.2313
13020TIP3    H160551   1.645   1.045   3.403 -1.2350 -1.3099  0.1638
13020TIP3    H260552   1.524   1.125   3.360 -1.4299 -1.7480 -0.0999
13021TIP3   OH260553   6.260   1.237  14.915  0.1033 -0.6024  0.4718
13021TIP3    H160554   6.179   1.288  14.923 -0.1190 -0.8877  0.0984
13021TIP3    H260555   6.233   1.157  14.870  0.9979  0.2311 -1.5871
13022TIP3   OH260556   4.510   1.626   5.412  0.0415  0.5930  0.0083
13022TIP3    H160557   4.562   1.620   5.493  0.5526  0.3572 -0.3380
13022TIP3    H260558   4.541   1.554   5.358  0.0606  1.0702 -0.6145
13023TIP3   OH260559   5.793   0.904  10.782  0.0374 -0.1846 -0.2552
13023TIP3    H160560   5.766   0.897  10.691 -1.5855  0.6487  0.1384
13023TIP3    H260561   5.712   0.892  10.832  1.3189 -3.4275  1.1938
13024TIP3   OH260562   4.112   4.824   0.889 -0.0989 -0.1228  0.1644
13024TIP3    H160563   4.148   4.865   0.967  1.8342 -2.7679  0.7150
13024TIP3    H260564   4.148   4.874   0.816  0.8909  0.1990  0.8707
13025TIP3   OH260565   6.046   5.451  14.597 -0.4119  0.3418  0.1293
13025TIP3    H160566   5.957   5.428  14.625 -0.4758  0.8671  0.3624
13025TIP3    H260567   6.062   5.536  14.637  0.0308  0.4502 -0.2850
13026TIP3   OH260568   3.581   6.018   4.540  0.3337 -0.1686  0.3774
13026TIP3    H160569   3.526   5.949   4.577  1.1714 -1.0008  0.0641
13026TIP3    H260570   3.523   6.064   4.478 -0.4606 -0.0637  1.1807
13027TIP3   OH260571   3.318   4.164  10.467  0.5676  0.8012 -0.1424
13027TIP3    H160572   3.379   4.090  10.471  0.2969  0.6856  2.3077
13027TIP3    H260573   3.365   4.230  10.416  1.3568 -0.5512 -1.1963
13028TIP3   OH260574   0.543   5.553  13.514  0.4420 -0.2953  0.0410
13028TIP3    H160575   0.575   5.471  13.479  2.5169 -0.1424  1.5218
13028TIP3    H260576   0.543   5.541  13.608 -2.2807  0.3147  0.1532
13029TIP3   OH260577   5.269   2.411   3.030  0.4492 -0.1872  0.0650
13029TIP3    H160578   5.271   2.323   2.991 -0.0298 -0.6558  1.0718
13029TIP3    H260579   5.177   2.436   3.028  0.5783  0.2748 -0.1650
13030TIP3   OH260580   1.529   5.315   1.998  0.1788 -0.2332  0.7749
13030TIP3    H160581   1.471   5.241   2.015  0.8868 -1.3343 -1.5129
13030TIP3    H260582   1.616   5.282   2.020  0.5893 -0.3368 -0.9986
13031TIP3   OH260583   4.171   1.799  11.311 -0.6172  1.1115 -0.3106
13031TIP3    H160584   4.255   1.841  11.327 -0.4332  0.4203  0.5563
13031TIP3    H260585   4.143   1.832  11.225  1.6263 -0.4376 -1.6709
13032TIP3   OH260586   0.416   5.175  15.544  0.2267  0.5057 -0.1898
13032TIP3    H160587   0.437   5.204  15.633  0.6557  1.6022 -0.6346
13032TIP3    H260588   0.483   5.110  15.523 -0.2595 -0.2266  0.5285
13033TIP3   OH260589   6.543   6.329   5.590  0.2505  0.5860  0.1283
13033TIP3    H160590   6.619   6.286   5.629 -0.3671  1.6176  2.5411
13033TIP3    H260591   6.577   6.410   5.554  0.6482  0.0728 -0.6806
13034TIP3   OH260592   2.952   0.231   4.957 -0.3612 -0.0973  0.2271
13034TIP3    H160593   2.888   0.235   5.028 -0.3139  0.7947  0.2175
13034TIP3    H260594   2.904   0.260   4.879 -0.0264  0.2810  0.1628
13035TIP3   OH260595   3.785   4.196   0.462 -0.5762  0.4765  0.2396
13035TIP3    H160596   3.757   4.280   0.498  1.7841  1.1153  0.6493
13035TIP3    H260597   3.879   4.192   0.478  0.0433 -0.5671 -3.1378
13036TIP3   OH260598   1.763   3.272  11.982 -0.3293 -0.1297  0.1880
13036TIP3    H160599   1.796   3.286  11.893 -1.6140 -1.4252 -0.5191
13036TIP3    H260600   1.782   3.354  12.028  1.7671 -0.0325 -0.8245
13037TIP3   OH260601   4.661   2.552   3.519  0.2037  0.5728 -0.3799
13037TIP3    H160602   4.594   2.556   3.587  0.9582  0.3677  0.3880
13037TIP3    H260603   4.704   2.638   3.523 -0.4678  0.9610 -1.3469
13038TIP3   OH260604   6.748   5.517  13.433  0.3008 -0.1901 -0.2729
13038TIP3    H160605   6.678   5.453  13.442 -0.4280  0.9343  2.4690
13038TIP3    H260606   6.825   5.473  13.468  0.2970 -0.3416 -0.4539
13039TIP3   OH260607   4.143   5.377  16.152  0.1011  0.1479  0.0274
13039TIP3    H160608   4.232   5.403  16.178 -0.4925  2.5321 -0.2254
13039TIP3    H260609   4.088   5.408  16.224 -0.6182 -0.6887 -0.1608
13040TIP3   OH260610   2.000   3.761   0.525 -0.7023 -0.6655 -0.6578
13040TIP3    H160611   1.941   3.710   0.581 -1.4541  1.3125  0.3795
13040TIP3    H260612   2.085   3.753   0.568 -1.0396 -0.1545  0.1297
13041TIP3   OH260613   2.941   3.379  14.530  0.1789 -0.6397 -0.1196
13041TIP3    H160614   3.006   3.370  14.600 -0.4473  0.0190  0.5549
13041TIP3    H260615   2.894   3.296  14.531  0.5517 -0.8531 -0.1461
13042TIP3   OH260616   1.722   1.118  12.169 -0.2236  0.4043  0.0861
13042TIP3    H160617   1.688   1.106  12.081 -0.7347  0.1851  0.3107
13042TIP3    H260618   1.678   1.051  12.221  1.1355 -0.3891  0.2297
13043TIP3   OH260619   3.950   4.644   1.172 -0.9365  0.2884 -0.2390
13043TIP3    H160620   3.924   4.732   1.145  3.8360  1.8397 -0.2686
13043TIP3    H260621   3.967   4.652   1.265 -2.4225 -1.1832  0.1867
13044TIP3   OH260622   2.831   2.115  10.849 -0.4073 -0.2491 -0.4454
13044TIP3    H160623   2.791   2.057  10.785 -0.2665 -1.3446  0.4551
13044TIP3    H260624   2.880   2.179  10.796 -0.2684 -1.1508 -1.4197
13045TIP3   OH260625   6.797   3.961   1.674 -0.2351 -0.0028 -0.2062
13045TIP3    H160626   6.841   3.902   1.613 -1.3376 -0.2214 -0.8205
13045TIP3    H260627   6.856   4.035   1.683  0.7843 -0.8245 -0.0826
13046TIP3   OH260628   5.180   1.991   4.219  0.6314 -0.4425  0.3183
13046TIP3    H160629   5.191   1.981   4.124 -0.1890  1.0393  0.0582
13046TIP3    H260630   5.238   2.063   4.243  1.3333 -1.2462  1.0581
13047TIP3   OH260631   5.121   6.471  14.940  0.2621  0.1585 -0.0616
13047TIP3    H160632   5.133   6.429  15.025  0.1792  1.0590  0.3940
13047TIP3    H260633   5.209   6.469  14.901 -0.0188 -1.7253 -0.6538
13048TIP3   OH260634   4.039   2.251   1.205 -0.3789  1.1824  0.5208
13048TIP3    H160635   4.073   2.338   1.185  0.8869  0.5295 -0.2784
13048TIP3    H260636   4.067   2.198   1.130 -1.3777  0.1575  0.8710
13049TIP3   OH260637   3.255   4.055  16.444 -0.3450 -0.0472 -0.0273
13049TIP3    H160638   3.283   4.145  16.429  0.5503 -0.3539 -0.2619
13049TIP3    H260639   3.191   4.061  16.515  1.6445  0.4989  1.7577
13050TIP3   OH260640   3.678   4.451   0.472  0.3207 -0.3894 -0.2962
13050TIP3    H160641   3.665   4.463   0.566 -1.6705 -1.8737 -0.3544
13050TIP3    H260642   3.702   4.538   0.440  0.1209  0.3286  1.4485
13051TIP3   OH260643   5.538   2.816  11.079 -0.5794  0.9247  0.2323
13051TIP3    H160644   5.478   2.826  11.005 -0.0068 -0.3946 -0.4318
13051TIP3    H260645   5.625   2.825  11.040 -0.2258 -1.0596  0.5002
13052TIP3   OH260646   2.626   1.737  12.650 -0.2905  0.1075  0.5940
13052TIP3    H160647   2.644   1.643  12.659  0.8504  0.2842  0.2934
13052TIP3    H260648   2.709   1.779  12.675 -1.2989  1.1018  2.4083
13053TIP3   OH260649   6.418   1.629  11.804  0.0524  0.1800  0.9367
13053TIP3    H160650   6.353   1.587  11.860 -2.7433  2.2864 -0.6092
13053TIP3    H260651   6.423   1.719  11.837 -0.7001  1.0906 -1.3667
13054TIP3   OH260652   0.481   2.723   0.877 -0.0507  0.1386 -0.3840
13054TIP3    H160653   0.466   2.802   0.929  0.1763  0.4047 -0.7204
13054TIP3    H260654   0.558   2.682   0.917 -0.1590  0.0943 -0.2201
13055TIP3   OH260655   5.481   4.223   2.128  0.2311 -0.2345 -0.4085
13055TIP3    H160656   5.437   4.249   2.209 -0.1997  1.3240 -1.1298
13055TIP3    H260657   5.412   4.226   2.061  0.7279 -0.8722 -0.9552
13056TIP3   OH260658   0.573   0.074   1.619  0.5154  0.5776 -0.4283
13056TIP3    H160659   0.654   0.070   1.671 -0.0020  2.0476  0.5168
13056TIP3    H260660   0.544   0.165   1.627 -1.7020 -0.1551 -0.0568
13057TIP3   OH260661   5.422   4.501   3.585  0.1578 -0.1178  0.2488
13057TIP3    H160662   5.452   4.587   3.557 -0.5106  0.5624  1.5754
13057TIP3    H260663   5.344   4.484   3.532  1.1855 -0.5977 -1.1144
13058TIP3   OH260664   5.844   6.347  15.800  0.2144 -0.4382  0.4566
13058TIP3    H160665   5.886   6.289  15.737 -0.5252  0.7898 -1.2048
13058TIP3    H260666   5.754   6.316  15.807  0.0577 -0.0432  0.2303
13059TIP3   OH260667   2.653   6.578  15.923 -0.2081  0.3020  0.4321
13059TIP3    H160668   2.703   6.604  16.001  0.3105  0.4754  0.0411
13059TIP3    H260669   2.645   6.659  15.872  0.0629  0.0304 -0.0381
13060TIP3   OH260670   3.350   2.719  15.297 -0.8492  0.2641 -0.2773
13060TIP3    H160671   3.281   2.758  15.244 -1.7281  0.4281  0.9596
13060TIP3    H260672   3.335   2.753  15.385  0.1648 -0.5395  0.2232
13061TIP3   OH260673   0.415   5.383   4.930 -0.4609 -0.0982 -0.0477
13061TIP3    H160674   0.405   5.302   4.981 -0.8668 -0.1414 -0.1935
13061TIP3    H260675   0.325   5.410   4.910 -0.3162  0.2070 -0.2857
13062TIP3   OH260676   4.221   6.787  11.419  0.3372 -0.5148 -0.0607
13062TIP3    H160677   4.159   6.716  11.404  0.1387  0.1089 -2.4011
13062TIP3    H260678   4.283   6.780  11.346  0.7054  1.2882  0.0609
13063TIP3   OH260679   6.139   5.860   4.868 -0.3216  0.1822  0.2912
13063TIP3    H160680   6.171   5.950   4.861  0.0483 -0.0637 -1.4151
13063TIP3    H260681   6.203   5.808   4.819 -1.3360 -0.8100 -0.0099
13064TIP3   OH260682   5.274   2.687  14.764 -0.0649  0.0207  0.1615
13064TIP3    H160683   5.315   2.656  14.683 -1.0027 -1.6596  0.3102
13064TIP3    H260684   5.227   2.766  14.738  1.9833  1.1268 -0.3269
13065TIP3   OH260685   0.978   1.262   2.405 -0.2071 -0.5875  0.5112
13065TIP3    H160686   0.962   1.324   2.476 -3.9048 -1.4741  0.5738
13065TIP3    H260687   0.986   1.177   2.448  1.9635 -0.5848  0.1788
13066TIP3   OH260688   1.611   4.873  16.546 -0.6023  0.3886 -0.2804
13066TIP3    H160689   1.630   4.853  16.454 -0.9277  0.2861 -0.3262
13066TIP3    H260690   1.691   4.849  16.593 -0.4784  0.3300 -0.5228
13067TIP3   OH260691   3.516   0.647   1.710 -0.1507  0.5869  0.0025
13067TIP3    H160692   3.522   0.575   1.647  1.7549 -0.2134  1.0451
13067TIP3    H260693   3.540   0.725   1.661 -0.8426  0.3066 -0.7872
13068TIP3   OH260694   1.019   1.939   4.368  0.0489 -0.1678  0.5205
13068TIP3    H160695   1.114   1.925   4.365  0.1099  0.3973 -0.2344
13068TIP3    H260696   1.008   2.031   4.392 -0.3128 -0.2248  0.5851
13069TIP3   OH260697   2.003   6.653   5.437  0.1752 -0.1632  1.0275
13069TIP3    H160698   1.955   6.620   5.513  1.7193 -0.1878  2.0051
13069TIP3    H260699   2.083   6.690   5.473  0.6800  0.3153 -0.5441
13070TIP3   OH260700   2.556   0.719   2.737  0.5726 -0.0508  0.1222
13070TIP3    H160701   2.500   0.659   2.689 -1.6748  0.9644  1.3604
13070TIP3    H260702   2.567   0.678   2.823  0.5342  0.4386  0.3636
13071TIP3   OH260703   1.063   2.411  10.560 -0.3161  0.0183 -0.4523
13071TIP3    H160704   1.021   2.476  10.616  1.8051  2.4564 -1.5705
13071TIP3    H260705   0.991   2.360  10.524 -2.1786  2.7032 -0.7093
13072TIP3   OH260706   3.316   3.070   3.794 -0.1136 -0.0519 -0.3798
13072TIP3    H160707   3.350   2.994   3.841  0.1159  1.5079  2.0855
13072TIP3    H260708   3.379   3.140   3.812 -1.9874  1.5743  0.1474
13073TIP3   OH260709   4.095   6.595   4.723  0.3698 -0.2293 -0.6789
13073TIP3    H160710   4.005   6.611   4.696  0.9670  1.9857 -1.4391
13073TIP3    H260711   4.109   6.501   4.706 -1.1175 -0.1389 -2.5523
13074TIP3   OH260712   6.388   5.876  16.000 -0.1905 -0.0656  0.4721
13074TIP3    H160713   6.388   5.784  15.971  1.2849 -0.2714  1.0775
13074TIP3    H260714   6.412   5.925  15.921 -1.4173 -0.1396  0.0328
13075TIP3   OH260715   3.532   3.445  12.281  0.3423  0.0648 -0.3449
13075TIP3    H160716   3.458   3.408  12.234  0.0201  1.7152 -1.1947
13075TIP3    H260717   3.603   3.383  12.269 -0.6109 -1.0268 -0.3939
13076TIP3   OH260718   2.685   3.229   0.691  0.2459  0.9026  0.4005
13076TIP3    H160719   2.766   3.243   0.642  1.1720 -2.3298  0.8588
13076TIP3    H260720   2.615   3.260   0.632  1.5331 -0.0841 -1.7058
13077TIP3   OH260721   3.421   2.909   1.107  0.5871 -0.2318 -0.6393
13077TIP3    H160722   3.410   2.830   1.160  0.3979  1.2115  1.5464
13077TIP3    H260723   3.484   2.962   1.156  2.8499 -0.1915 -3.4929
13078TIP3   OH260724   5.048   1.755  17.202 -0.8490 -0.0253  0.5115
13078TIP3    H160725   4.963   1.714  17.218  0.1084 -1.4164  2.2291
13078TIP3    H260726   5.037   1.846  17.227 -2.5479  0.4514 -1.7877
13079TIP3   OH260727   5.022   4.118  13.455 -0.3530  0.0085  0.0120
13079TIP3    H160728   5.032   4.030  13.418 -0.1939  0.5389 -1.2705
13079TIP3    H260729   4.931   4.142  13.437 -0.2556  0.2991 -0.1086
13080TIP3   OH260730   4.609   0.077   5.218 -0.0178  0.7430 -0.5865
13080TIP3    H160731   4.641   0.162   5.188 -0.0526  0.0388 -2.7100
13080TIP3    H260732   4.612   0.021   5.140  1.6443 -1.6893  1.1361
13081TIP3   OH260733   4.223   4.373  15.647  0.0768 -0.2479  0.7413
13081TIP3    H160734   4.164   4.384  15.721  0.1080 -1.2567  0.9171
13081TIP3    H260735   4.310   4.395  15.683 -0.0649  0.4047  0.6978
13082TIP3   OH260736   2.753   6.466  15.357  0.0363  0.3266 -0.1709
13082TIP3    H160737   2.798   6.388  15.325  1.8155  0.7411  1.2177
13082TIP3    H260738   2.672   6.470  15.306  1.5008 -0.5213 -2.6859
13083TIP3   OH260739   4.005   1.661  14.336  0.4068  0.4528 -0.6265
13083TIP3    H160740   4.015   1.566  14.340  3.6061  0.7682  0.6354
13083TIP3    H260741   4.045   1.686  14.253  0.5452  0.7924 -0.4584
13084TIP3   OH260742   3.973   2.835  13.795  0.0414 -0.8035 -0.1695
13084TIP3    H160743   3.990   2.792  13.712  2.0888 -0.1383 -0.1220
13084TIP3    H260744   4.059   2.844  13.836 -0.6716  0.8015  1.0533
13085TIP3   OH260745   4.500   1.188   5.105  0.1614 -0.1228  0.0191
13085TIP3    H160746   4.465   1.171   5.192 -2.7751 -1.0231 -1.2907
13085TIP3    H260747   4.502   1.102   5.063  1.1465  0.3685 -0.9566
13086TIP3   OH260748   2.295   4.677  13.625 -0.4476 -0.6530  0.0951
13086TIP3    H160749   2.354   4.726  13.568  0.1523 -1.6049 -0.1117
13086TIP3    H260750   2.347   4.603  13.657 -1.2900 -1.0747  0.5269
13087TIP3   OH260751   1.775   2.171  14.175 -0.0863  0.4052 -0.1435
13087TIP3    H160752   1.767   2.205  14.085  3.3221  0.8470 -0.3768
13087TIP3    H260753   1.720   2.228  14.228  0.0154  1.8795 -1.5911
13088TIP3   OH260754   4.127   0.946   5.563  0.1162 -0.1138  0.6062
13088TIP3    H160755   4.143   1.018   5.624 -0.0457 -0.3933  0.9818
13088TIP3    H260756   4.212   0.903   5.554  0.6961  1.3596 -1.2259
13089TIP3   OH260757   0.465   4.705  11.372  0.0628  0.4135 -0.4141
13089TIP3    H160758   0.462   4.791  11.415 -2.2230  1.2115 -2.0734
13089TIP3    H260759   0.401   4.653  11.421  0.1892  0.1747 -0.5042
13090TIP3   OH260760   5.172   4.462  14.194  0.6638 -0.7035  0.0786
13090TIP3    H160761   5.118   4.460  14.273 -0.2156 -0.1172 -0.5096
13090TIP3    H260762   5.123   4.515  14.132  2.1925  0.3438 -0.2591
13091TIP3   OH260763   3.579   0.537   3.396 -0.3028 -0.1825  0.2188
13091TIP3    H160764   3.547   0.526   3.485 -1.5808  0.4080 -0.1537
13091TIP3    H260765   3.589   0.632   3.386 -1.5553 -0.1339 -0.7256
13092TIP3   OH260766   1.307   0.482   1.338  0.0825 -0.0934  0.1579
13092TIP3    H160767   1.300   0.396   1.380 -1.1832  0.0390  0.2268
13092TIP3    H260768   1.359   0.465   1.259  0.9185 -0.6819  0.8269
13093TIP3   OH260769   4.740   6.087  16.514  0.6304 -0.2420 -0.1383
13093TIP3    H160770   4.720   6.069  16.422  1.0029 -0.9667 -0.0845
13093TIP3    H260771   4.783   6.173  16.513  1.8752 -0.8582 -0.8105
13094TIP3   OH260772   6.418   5.561   2.941 -0.9373 -0.6625 -0.1227
13094TIP3    H160773   6.422   5.597   2.852 -2.5637  0.3587  0.1962
13094TIP3    H260774   6.496   5.506   2.948  1.4987  2.5091 -0.7669
13095TIP3   OH260775   1.703   1.013   2.494 -0.2424 -0.1517  0.4107
13095TIP3    H160776   1.793   0.984   2.477 -0.7402 -0.6945 -1.4065
13095TIP3    H260777   1.690   1.086   2.433 -1.3443 -0.6910 -0.0065
13096TIP3   OH260778   5.536   1.796  16.921  0.2828  0.5024 -0.0641
13096TIP3    H160779   5.564   1.739  16.849  0.7013 -0.4659  0.8460
13096TIP3    H260780   5.467   1.850  16.883 -0.5921 -1.0719 -0.8018
13097TIP3   OH260781   1.008   2.155  12.026  0.1296  0.2525  0.8709
13097TIP3    H160782   1.019   2.115  11.940 -0.9099 -0.9354  1.2761
13097TIP3    H260783   0.927   2.206  12.019 -1.7552 -2.4210  2.0411
13098TIP3   OH260784   4.129   6.051  12.180  0.0701 -0.9970 -0.0137
13098TIP3    H160785   4.056   5.991  12.197 -1.6548  1.0501  0.0727
13098TIP3    H260786   4.104   6.097  12.100  0.0661  1.4743  1.3492
13099TIP3   OH260787   5.551   3.272   1.430 -0.4655  0.6059  0.3324
13099TIP3    H160788   5.465   3.296   1.396  0.6846  0.7546 -2.6201
13099TIP3    H260789   5.613   3.324   1.379  1.4740 -0.8404  1.1377
13100TIP3   OH260790   4.911   2.198  11.223  0.0969 -0.6859 -0.1182
13100TIP3    H160791   4.858   2.241  11.156 -2.7083 -0.4561  2.1659
13100TIP3    H260792   4.888   2.105  11.216 -2.0781 -0.3499  2.0953
13101TIP3   OH260793   5.422   3.812  16.738 -0.0289  0.1113 -0.7813
13101TIP3    H160794   5.353   3.795  16.803  1.4593  0.2197  0.8553
13101TIP3    H260795   5.418   3.737  16.679  0.3853 -1.3770  1.0347
13102TIP3   OH260796   3.822   2.284  16.221 -0.0727  0.3788 -0.1202
13102TIP3    H160797   3.780   2.360  16.180 -0.2917  0.2405 -0.1493
13102TIP3    H260798   3.821   2.304  16.315  0.2795  0.6188 -0.1649
13103TIP3   OH260799   6.458   1.871   1.057 -0.1026 -0.4737  0.1854
13103TIP3    H160800   6.526   1.807   1.036  1.3583  1.1926 -0.3084
13103TIP3    H260801   6.384   1.818   1.086  1.1071 -2.3777 -0.0627
13104TIP3   OH260802   1.126   0.036   4.724  0.1247 -0.5762 -0.1670
13104TIP3    H160803   1.071   0.026   4.647  0.7611 -0.7070 -0.6083
13104TIP3    H260804   1.066   0.065   4.793 -0.6538 -1.6350 -0.3965
13105TIP3   OH260805   0.030   4.961   0.822 -0.6758 -0.2333  0.3762
13105TIP3    H160806  -0.026   4.941   0.746 -0.4395  2.4759 -0.5612
13105TIP3    H260807  -0.031   4.998   0.886 -0.4928 -0.4000  0.6457
13106TIP3   OH260808   1.070   1.089   4.539 -0.3156  0.0367 -0.0957
13106TIP3    H160809   0.991   1.055   4.581 -1.3299  2.2093 -0.1455
13106TIP3    H260810   1.039   1.121   4.454  0.5266  1.3265  0.0770
13107TIP3   OH260811   1.789   6.313   3.320 -0.5839 -0.1893  0.4271
13107TIP3    H160812   1.768   6.226   3.284 -0.6612  0.2012 -0.4622
13107TIP3    H260813   1.734   6.373   3.270 -0.0405  0.4478  0.5980
13108TIP3   OH260814   5.347   4.117  12.445  0.6845 -0.5148  0.1367
13108TIP3    H160815   5.267   4.128  12.497  0.1623  0.7535 -0.9078
13108TIP3    H260816   5.383   4.206  12.438  1.4369 -0.8692 -0.5801
13109TIP3   OH260817   1.844   0.544  14.957 -0.4697  0.2386  0.0189
13109TIP3    H160818   1.781   0.485  14.998 -2.3546  1.8124 -0.5091
13109TIP3    H260819   1.859   0.507  14.870 -0.7145 -0.1217  0.1339
13110TIP3   OH260820   3.077   3.188   2.399  0.3956  0.6365  0.3467
13110TIP3    H160821   3.051   3.140   2.478  0.0658  0.4428  0.1188
13110TIP3    H260822   3.173   3.195   2.406  0.2892  1.3555  1.1881
13111TIP3   OH260823   6.806   2.268  15.633  0.3892  0.0913  0.3228
13111TIP3    H160824   6.753   2.236  15.706 -0.7006 -0.8330 -0.8652
13111TIP3    H260825   6.750   2.261  15.557  1.3805  1.4521 -0.5670
13112TIP3   OH260826   6.780   1.955  14.414  0.1324  0.3135 -0.0454
13112TIP3    H160827   6.857   1.981  14.365 -0.3765  0.3731 -0.8283
13112TIP3    H260828   6.739   2.037  14.441 -0.2184  0.3040 -0.5326
13113TIP3   OH260829   2.800   0.479  16.814  0.2009 -0.3073  0.1554
13113TIP3    H160830   2.785   0.410  16.879 -0.0709  0.0214  0.4407
13113TIP3    H260831   2.805   0.432  16.730 -2.1169 -0.4894  0.0772
13114TIP3   OH260832   1.710   1.561  14.884 -0.7586 -0.1849  0.2963
13114TIP3    H160833   1.777   1.628  14.878 -1.1373  0.1779  0.0870
13114TIP3    H260834   1.694   1.535  14.793  1.4441 -2.6218  0.5661
13115TIP3   OH260835   4.875   2.265  13.892  0.1902 -0.2540  0.6051
13115TIP3    H160836   4.792   2.227  13.863  0.1553  1.0316 -1.0151
13115TIP3    H260837   4.936   2.249  13.820  0.1411  2.8179 -0.1848
13116TIP3   OH260838   3.409   6.194   1.880  1.3030  0.6036  0.6048
13116TIP3    H160839   3.399   6.271   1.824  0.0282 -0.8278 -1.2093
13116TIP3    H260840   3.474   6.140   1.835  1.1588 -0.0234  1.1411
13117TIP3   OH260841   6.284   6.030   3.698 -0.2434 -0.4382 -0.5389
13117TIP3    H160842   6.353   6.027   3.632 -0.6106 -0.2682 -0.9362
13117TIP3    H260843   6.296   5.950   3.749  1.6443  0.6764  0.8459
13118TIP3   OH260844   4.792   0.570   2.688 -0.4121  0.4306  0.3079
13118TIP3    H160845   4.783   0.627   2.764 -3.3554  0.7853 -0.2284
13118TIP3    H260846   4.743   0.615   2.618 -0.5466 -1.4554 -0.8640
13119TIP3   OH260847   4.461   2.480   2.275  0.8584 -0.3271  0.0690
13119TIP3    H160848   4.463   2.384   2.277  0.2454 -0.4246 -2.3207
13119TIP3    H260849   4.384   2.503   2.327  0.4603 -1.1729 -0.1302
13120TIP3   OH260850   4.500   5.976   4.494 -0.1015 -0.3497  0.1648
13120TIP3    H160851   4.438   6.004   4.427  0.7357 -1.6930 -1.2339
13120TIP3    H260852   4.464   6.008   4.576 -1.5795  0.6361 -0.8424
13121TIP3   OH260853   2.455   0.111   1.191  0.1423 -0.4081  0.1781
13121TIP3    H160854   2.368   0.136   1.159  0.4529 -0.0488 -0.3779
13121TIP3    H260855   2.512   0.115   1.115  0.7337 -0.2558  0.6209
13122TIP3   OH260856   0.881   2.699  11.091  0.7431 -0.1721 -0.1816
13122TIP3    H160857   0.945   2.757  11.050  1.9010 -0.3557  1.3082
13122TIP3    H260858   0.800   2.712  11.041  1.5554  1.1560 -1.1643
13123TIP3   OH260859   1.420   4.241   4.469 -0.2212  0.4056  0.0763
13123TIP3    H160860   1.439   4.223   4.562  2.6574  2.2497 -0.0649
13123TIP3    H260861   1.433   4.336   4.461 -3.2651  0.7295 -1.6422
13124TIP3   OH260862   3.956   4.940   6.518 -0.4516  0.0871  0.6037
13124TIP3    H160863   4.043   4.968   6.546  0.0862 -2.3261  1.5430
13124TIP3    H260864   3.970   4.855   6.477 -2.0252  0.9366 -1.7986
13125TIP3   OH260865   1.258   0.154   2.203  0.0407 -0.0514 -0.1797
13125TIP3    H160866   1.184   0.207   2.172 -0.8051 -0.9217  0.3242
13125TIP3    H260867   1.321   0.219   2.234  0.1425  0.7572 -1.9998
13126TIP3   OH260868   6.779   2.718  13.048 -0.4050 -0.4366  0.3697
13126TIP3    H160869   6.725   2.646  13.016 -0.4338 -0.8090  1.2456
13126TIP3    H260870   6.716   2.784  13.076 -0.3779 -0.0060 -0.5574
13127TIP3   OH260871   5.127   3.598   3.854  0.0254 -0.1139  0.2159
13127TIP3    H160872   5.200   3.652   3.826 -0.2022  0.4982  0.7969
13127TIP3    H260873   5.162   3.509   3.855  1.8029  0.5263  3.8864
13128TIP3   OH260874   2.476   1.105   1.186  0.1040 -0.1870 -0.3040
13128TIP3    H160875   2.522   1.021   1.190  0.8731  0.1553 -1.5425
13128TIP3    H260876   2.425   1.101   1.105  1.0846  0.9831 -1.0079
13129TIP3   OH260877   5.541   0.032   3.007  0.0948  0.0830  0.2419
13129TIP3    H160878   5.457  -0.013   2.999  0.7793 -1.2209  0.3655
13129TIP3    H260879   5.586  -0.012   3.079  1.4742 -0.1874 -0.7614
13130TIP3   OH260880   5.477   6.244   3.633 -0.0205  0.3491 -0.3147
13130TIP3    H160881   5.480   6.333   3.667  1.4455  0.6744 -1.2761
13130TIP3    H260882   5.426   6.196   3.698 -3.1868  2.4342 -1.1167
13131TIP3   OH260883   5.164   2.416   5.054  0.0198 -0.3182  0.1780
13131TIP3    H160884   5.204   2.329   5.049 -0.6533 -0.7436  1.8296
13131TIP3    H260885   5.089   2.405   5.112 -0.9820  1.0396 -0.8425
13132TIP3   OH260886   0.589   0.478   2.059  0.7982  0.1700  0.8471
13132TIP3    H160887   0.683   0.495   2.058  0.7900  0.2118  0.7735
13132TIP3    H260888   0.574   0.426   1.979  0.6726  0.6116  0.5852
13133TIP3   OH260889   0.100   6.244  13.232 -0.7246 -0.0839 -0.3530
13133TIP3    H160890   0.051   6.286  13.303  2.0442  1.7643  0.5314
13133TIP3    H260891   0.048   6.261  13.154 -2.8375 -0.4740  0.9177
13134TIP3   OH260892   5.969   1.038  13.353  0.4468 -0.5551 -0.3438
13134TIP3    H160893   6.053   1.046  13.308 -0.3491 -0.7767 -1.8934
13134TIP3    H260894   5.973   0.952  13.396  0.1066 -1.6116 -2.3635
13135TIP3   OH260895   1.285   1.409  11.520  0.6114  0.5163 -0.4860
13135TIP3    H160896   1.312   1.348  11.451  1.4100  1.1476 -0.7550
13135TIP3    H260897   1.226   1.470  11.476 -1.3377 -0.8813  0.1064
13136TIP3   OH260898   1.494   2.661   1.412 -0.1568 -0.0509  0.6830
13136TIP3    H160899   1.541   2.672   1.494 -0.0162  0.4768  0.5345
13136TIP3    H260900   1.562   2.670   1.344 -0.6977  2.3109  0.3982
13137TIP3   OH260901   1.250   3.703   3.269  0.6066  0.3428 -0.5265
13137TIP3    H160902   1.225   3.657   3.189  2.5363  0.6430 -1.3238
13137TIP3    H260903   1.279   3.789   3.239  2.9684 -0.1310  0.2820
13138TIP3   OH260904   6.231   3.479  12.436  0.2260  0.6009 -0.4522
13138TIP3    H160905   6.196   3.491  12.524  2.3021  0.6655  0.3940
13138TIP3    H260906   6.215   3.562  12.392  0.3913  1.0298  0.2936
13139TIP3   OH260907   1.709   3.557   1.734  0.0128  0.8882 -0.4890
13139TIP3    H160908   1.769   3.573   1.808  0.4589  0.9291 -0.8560
13139TIP3    H260909   1.747   3.607   1.662  1.1905 -1.4693 -1.5441
13140TIP3   OH260910   0.976   1.156   5.444 -0.5499 -0.1835  0.1645
13140TIP3    H160911   0.966   1.214   5.368 -0.6590 -1.0397 -0.4872
13140TIP3    H260912   1.068   1.129   5.440 -1.0023 -1.6246 -0.6951
13141TIP3   OH260913   6.431   2.416   5.942 -0.4014  0.2836 -0.1561
13141TIP3    H160914   6.375   2.481   5.900  1.0670  0.5825 -1.7418
13141TIP3    H260915   6.492   2.468   5.995  0.0545  0.1504 -0.5410
13142TIP3   OH260916   5.162   0.441  14.544 -0.2445  0.0998 -0.4205
13142TIP3    H160917   5.110   0.377  14.593  0.2375 -0.0516 -0.1042
13142TIP3    H260918   5.225   0.388  14.494 -1.4079  0.1807 -2.0304
13143TIP3   OH260919   1.269   6.504   5.731  0.2929  0.0563  0.8018
13143TIP3    H160920   1.201   6.527   5.668 -0.5871 -1.8597  0.9962
13143TIP3    H260921   1.238   6.538   5.815  1.0753  1.8879  0.3726
13144TIP3   OH260922   3.437   3.058  12.092 -0.0507  0.2862  0.0903
13144TIP3    H160923   3.424   3.037  11.999  2.1882  2.6866 -0.8229
13144TIP3    H260924   3.394   3.142  12.104  0.9005  0.6646  0.8836
13145TIP3   OH260925   0.042   1.776  12.227 -0.4150  0.0044 -0.2731
13145TIP3    H160926   0.011   1.741  12.311 -1.5598  0.2675 -0.5863
13145TIP3    H260927  -0.027   1.755  12.165  0.3351  0.0096 -1.1150
13146TIP3   OH260928   4.224   4.982  11.419 -0.0380  0.1742 -0.1370
13146TIP3    H160929   4.178   5.034  11.353 -0.8129 -1.6448 -1.0843
13146TIP3    H260930   4.209   5.029  11.501 -1.1388  1.1784 -0.8803
13147TIP3   OH260931   1.566   1.751   6.426 -0.3188  0.1363  0.0454
13147TIP3    H160932   1.534   1.767   6.514 -0.3216 -2.3322  0.5328
13147TIP3    H260933   1.658   1.727   6.438 -0.4217 -0.5917 -0.5643
13148TIP3   OH260934   2.976   2.389   3.885  0.4526  0.4325  0.1453
13148TIP3    H160935   2.884   2.410   3.866  0.7504  0.8645 -0.8654
13148TIP3    H260936   2.974   2.299   3.917 -0.0701 -0.4382 -2.2309
13149TIP3   OH260937   3.769   5.720  11.935 -1.6110 -0.2632 -0.2257
13149TIP3    H160938   3.799   5.784  11.871  0.1906  0.1104  0.9341
13149TIP3    H260939   3.813   5.746  12.017 -2.8364 -1.4831  0.8437
13150TIP3   OH260940   3.954   1.078  11.924  0.3553  0.2404 -0.0580
13150TIP3    H160941   4.027   1.018  11.908 -1.3990 -1.4326 -1.9892
13150TIP3    H260942   3.898   1.031  11.985  1.1270  1.7576  1.8634
13151TIP3   OH260943   0.778   1.843  16.032 -0.3953 -0.3521 -0.7458
13151TIP3    H160944   0.866   1.860  15.999 -0.4914 -2.3950 -2.1872
13151TIP3    H260945   0.744   1.929  16.056  0.6694  0.9373 -3.6177
13152TIP3   OH260946   3.402   2.579  11.649 -0.4181  0.1442 -0.2239
13152TIP3    H160947   3.436   2.490  11.649  0.3882  0.4399 -1.8304
13152TIP3    H260948   3.311   2.570  11.624 -0.0699 -0.1451 -1.4169
13153TIP3   OH260949   1.151   2.313  13.821 -0.1234  0.2698  0.3368
13153TIP3    H160950   1.061   2.338  13.844 -0.0124 -1.6117  3.0212
13153TIP3    H260951   1.150   2.308  13.725 -2.4346  1.8565  0.2194
13154TIP3   OH260952   2.243   1.448   5.300  0.0104  0.4112  0.6284
13154TIP3    H160953   2.218   1.406   5.218 -1.6299  1.5000  0.5332
13154TIP3    H260954   2.337   1.463   5.292  0.0827 -0.5762 -0.5393
13155TIP3   OH260955   3.768   4.539   4.643 -0.4493 -0.2695  0.3159
13155TIP3    H160956   3.827   4.609   4.613  0.2565 -0.5359  1.0351
13155TIP3    H260957   3.682   4.564   4.611  0.4365 -1.1427 -2.8984
13156TIP3   OH260958   5.862   3.276   6.205 -0.6777  0.0644 -0.2078
13156TIP3    H160959   5.928   3.341   6.227 -0.7866  1.4586 -3.6208
13156TIP3    H260960   5.897   3.194   6.238  1.4311  1.2371  0.5255
13157TIP3   OH260961   2.736   2.902  13.807 -0.1170  0.2604  0.2347
13157TIP3    H160962   2.695   2.865  13.886 -0.4473 -0.0536 -0.0836
13157TIP3    H260963   2.825   2.923  13.834 -0.1060 -0.2244  0.5825
13158TIP3   OH260964   0.512   1.886   2.259  0.5221  0.7868  0.5861
13158TIP3    H160965   0.425   1.923   2.277 -0.4641 -0.8590 -0.6890
13158TIP3    H260966   0.564   1.960   2.229 -0.9339  1.4920 -0.2611
13159TIP3   OH260967   6.334   4.747   5.501 -0.1851  0.1003 -0.6375
13159TIP3    H160968   6.393   4.741   5.576 -0.4621  2.2414 -0.2291
13159TIP3    H260969   6.260   4.690   5.524  1.1996 -1.7881 -0.7108
13160TIP3   OH260970   2.204   5.389  13.901  0.2890 -0.2310 -0.5441
13160TIP3    H160971   2.121   5.387  13.853 -0.0796  0.2358  0.0644
13160TIP3    H260972   2.264   5.437  13.844 -0.6862  2.0534  0.2753
13161TIP3   OH260973   5.493   3.592   6.598  0.1408  0.3196  0.2037
13161TIP3    H160974   5.535   3.525   6.544  0.4573 -0.6834  1.6284
13161TIP3    H260975   5.413   3.614   6.551  1.0910  0.5087 -1.3569
13162TIP3   OH260976   5.816   1.670  12.186  0.3580 -0.2088  0.3077
13162TIP3    H160977   5.860   1.640  12.265 -2.5818  1.6661  2.7655
13162TIP3    H260978   5.837   1.763  12.181  0.2115 -0.2314 -0.9197
13163TIP3   OH260979   1.803   6.808  16.066  0.3871  0.4022  0.1340
13163TIP3    H160980   1.810   6.803  16.161 -1.5523 -4.1971  0.1515
13163TIP3    H260981   1.715   6.841  16.050  0.5924  0.8571 -0.0660
13164TIP3   OH260982   2.271   4.993  15.960 -0.4108  0.6162 -0.1176
13164TIP3    H160983   2.350   4.985  15.907  0.6481 -1.3673  1.7109
13164TIP3    H260984   2.279   5.077  16.005  0.3491  0.6945 -0.4048
13165TIP3   OH260985   1.802   3.585   0.062 -0.1201 -0.3196 -0.1062
13165TIP3    H160986   1.772   3.497   0.082  1.5626 -0.5835  1.3488
13165TIP3    H260987   1.810   3.628   0.148  0.9685  0.6069 -0.6570
13166TIP3   OH260988   4.766   6.012  13.652  0.6564  0.1152  0.4933
13166TIP3    H160989   4.792   6.081  13.713  0.6821 -0.1676  0.8031
13166TIP3    H260990   4.687   5.974  13.691  0.2844  0.3833  0.0063
13167TIP3   OH260991   0.673   5.996  15.698  0.8525  0.1913  0.6614
13167TIP3    H160992   0.739   5.929  15.681  0.7285  0.4440 -0.9413
13167TIP3    H260993   0.721   6.079  15.693  0.9359  0.2439  2.2663
13168TIP3   OH260994   4.616   1.726   0.623 -0.2476 -0.0045  0.4842
13168TIP3    H160995   4.532   1.725   0.577  1.1631 -0.7755 -2.1761
13168TIP3    H260996   4.633   1.818   0.641 -0.2789  0.4391 -1.6652
13169TIP3   OH260997   6.612   3.793   4.672  0.2048  0.0947 -0.0641
13169TIP3    H160998   6.583   3.765   4.585 -0.3687 -1.3695  0.5730
13169TIP3    H260999   6.674   3.725   4.699  0.5978  0.6984  0.5483
13170TIP3   OH261000   2.727   1.161   2.985  0.2618 -0.0050 -0.5036
13170TIP3    H161001   2.768   1.236   2.942  0.7629  2.0915  3.3459
13170TIP3    H261002   2.636   1.188   3.000  0.6040  0.1555  1.4645
13171TIP3   OH261003   1.342   3.952   4.824 -0.6508  0.2017 -0.2711
13171TIP3    H161004   1.254   3.962   4.787 -1.6334 -0.8343  1.7044
13171TIP3    H261005   1.377   3.873   4.781 -1.2417 -0.1933 -0.0408
13172TIP3   OH261006   2.920   0.307   6.705  0.3210  0.3225 -0.5774
13172TIP3    H161007   3.011   0.282   6.690  0.3238 -0.4907  0.7673
13172TIP3    H261008   2.926   0.390   6.754  0.3248  0.9301 -1.5939
13173TIP3   OH261009   6.216   6.168   5.002 -0.5204  0.8215  0.6748
13173TIP3    H161010   6.199   6.212   4.919 -0.1189 -0.1578  0.0684
13173TIP3    H261011   6.310   6.180   5.016  0.0104 -1.6639 -0.5667
13174TIP3   OH261012   2.179   5.852   0.109  0.2584  0.0419  0.1369
13174TIP3    H161013   2.223   5.810   0.183 -0.2396  2.1180  1.6520
13174TIP3    H261014   2.088   5.825   0.117 -0.0984  1.5233  1.2220
13175TIP3   OH261015   0.882   5.281  15.596  0.0692 -0.2473 -0.7950
13175TIP3    H161016   0.906   5.191  15.619  0.0016 -0.0585  0.0401
13175TIP3    H261017   0.807   5.271  15.537 -0.2189 -0.7378 -0.3578
13176TIP3   OH261018   1.651   3.806   0.019  0.6282 -0.5811 -0.8486
13176TIP3    H161019   1.721   3.740   0.020  1.2587  0.0775 -0.7744
13176TIP3    H261020   1.609   3.795  -0.067  0.7198 -1.0918 -0.8278
13177TIP3   OH261021   4.034   0.803   3.801  0.0451  0.0880 -0.0571
13177TIP3    H161022   3.943   0.774   3.807  0.1474 -0.3654 -0.5973
13177TIP3    H261023   4.057   0.789   3.709  0.4796  0.7567 -0.0540
13178TIP3   OH261024   2.880   0.237  13.512  0.4973  0.2595 -0.7545
13178TIP3    H161025   2.793   0.220  13.549  0.9186 -0.1609  0.0492
13178TIP3    H261026   2.939   0.185  13.565  1.5417  2.3851  0.2530
13179TIP3   OH261027   5.212   3.728  16.952  0.2722 -0.0206  0.0881
13179TIP3    H161028   5.168   3.774  17.024  2.1666  2.2434 -0.1037
13179TIP3    H261029   5.279   3.675  16.995 -1.3869 -2.0419  0.2534
13180TIP3   OH261030   4.103   0.051   2.709  0.7220  0.3247  1.0004
13180TIP3    H161031   4.047  -0.017   2.746  1.1110  0.5660  2.0413
13180TIP3    H261032   4.163   0.004   2.651  1.4620 -0.3056  2.2750
13181TIP3   OH261033   3.959   6.757  10.562  0.0875  0.6099  0.7056
13181TIP3    H161034   3.977   6.663  10.568  1.1418  0.8393  1.2182
13181TIP3    H261035   3.885   6.764  10.501 -0.3645 -0.5912  1.1149
13182TIP3   OH261036   2.426   0.961  14.700 -0.9657 -0.2614 -0.0488
13182TIP3    H161037   2.425   1.024  14.772  1.0495  0.7826 -0.9011
13182TIP3    H261038   2.512   0.919  14.706 -0.6231  0.1087 -2.0630
13183TIP3   OH261039   3.118   3.182   3.971  0.2912 -0.3679 -0.1512
13183TIP3    H161040   3.088   3.098   4.007  0.2170 -0.4767 -0.4633
13183TIP3    H261041   3.176   3.157   3.899  0.9643 -0.1547  0.3152
13184TIP3   OH261042   1.569   6.000   1.852  0.4795 -0.4189  0.0057
13184TIP3    H161043   1.620   5.942   1.796  0.9749  1.8972 -2.0560
13184TIP3    H261044   1.528   6.062   1.791 -2.4903 -0.4451  1.8449
13185TIP3   OH261045   4.441   6.584   4.108 -0.5470  0.0060  0.3062
13185TIP3    H161046   4.467   6.633   4.030  0.7430  0.8634  1.2616
13185TIP3    H261047   4.491   6.502   4.103 -0.1589  0.2351  0.4436
13186TIP3   OH261048   4.236   4.527  10.501  0.1109  0.0984  0.4348
13186TIP3    H161049   4.217   4.609  10.547 -1.2377 -0.1163  0.2836
13186TIP3    H261050   4.269   4.468  10.569 -1.1281  0.0361  0.9960
13187TIP3   OH261051   1.417   2.268   0.649 -0.4864  0.0980  0.1657
13187TIP3    H161052   1.394   2.187   0.694  0.0358  0.1182  0.4713
13187TIP3    H261053   1.334   2.302   0.616 -0.8975  0.2088  1.3155
13188TIP3   OH261054   0.882   4.471   1.187 -0.2100  0.1821 -0.4367
13188TIP3    H161055   0.791   4.457   1.212 -0.3035 -0.4165 -1.1221
13188TIP3    H261056   0.914   4.536   1.251 -0.6513 -0.8058  0.8180
13189TIP3   OH261057   1.263   1.115  16.788  0.7667 -0.0075  0.2298
13189TIP3    H161058   1.249   1.023  16.811  1.0060  0.3400  1.8730
13189TIP3    H261059   1.311   1.113  16.705 -1.2204 -1.3116 -0.8981
13190TIP3   OH261060   5.880   5.646   5.496 -0.1984  0.0233 -0.2446
13190TIP3    H161061   5.943   5.692   5.442  2.0700 -0.2555  2.0538
13190TIP3    H261062   5.866   5.703   5.572 -1.2415 -0.7873  0.1993
13191TIP3   OH261063   2.965   1.390   0.470 -0.1741 -0.6809  0.0462
13191TIP3    H161064   3.045   1.408   0.519  0.6579 -1.1527 -1.1052
13191TIP3    H261065   2.898   1.444   0.512  0.8540  0.1029  0.6999
13192TIP3   OH261066   2.250   1.287   5.784  0.3463  0.0270  0.0048
13192TIP3    H161067   2.213   1.200   5.772 -1.3361  0.5936  0.8764
13192TIP3    H261068   2.321   1.275   5.847  0.3812 -0.7589 -0.1810
13193TIP3   OH261069   5.095   2.783   2.236 -0.3104  0.3940  0.0711
13193TIP3    H161070   5.154   2.715   2.203  0.0988  0.7270  0.1235
13193TIP3    H261071   5.007   2.751   2.213 -0.0339  0.6114 -1.3456
13194TIP3   OH261072   3.776   5.767   4.434  0.2484 -0.0096 -0.7245
13194TIP3    H161073   3.861   5.755   4.391  0.6940  2.2436 -0.4935
13194TIP3    H261074   3.715   5.784   4.362  0.6839  2.0633 -0.6190
13195TIP3   OH261075   3.594   0.503   5.640 -0.1425  0.1036 -0.3056
13195TIP3    H161076   3.644   0.427   5.610 -0.5533  0.1351 -1.0807
13195TIP3    H261077   3.549   0.472   5.719  2.0116  0.4317  1.0742
13196TIP3   OH261078   3.311   2.678   1.275 -0.8548 -0.5364 -0.3110
13196TIP3    H161079   3.344   2.642   1.357  2.7146  3.3417  0.1556
13196TIP3    H261080   3.335   2.613   1.209 -0.7261 -2.1587  1.2978
13197TIP3   OH261081   1.109   1.238   1.821  0.6332  0.1666 -0.4256
13197TIP3    H161082   1.144   1.214   1.907  3.8445  2.4563 -0.9922
13197TIP3    H261083   1.140   1.170   1.762 -1.6017 -1.4256  0.2082
13198TIP3   OH261084   0.097   2.171   5.225 -0.0560 -0.2068 -0.4228
13198TIP3    H161085   0.153   2.248   5.218 -0.0806 -0.1936 -0.4797
13198TIP3    H261086   0.083   2.159   5.319 -1.2701  0.7477 -0.4777
13199TIP3   OH261087   1.707   1.099  11.236  0.0827 -0.4046  0.1631
13199TIP3    H161088   1.738   1.067  11.320 -1.1935 -1.5208  0.2213
13199TIP3    H261089   1.687   1.020  11.186 -2.4460  0.2530  0.0510
13200TIP3   OH261090   2.341   5.229  15.373 -0.3556  0.2087  0.0006
13200TIP3    H161091   2.417   5.214  15.316 -0.2224 -0.3171  0.3179
13200TIP3    H261092   2.360   5.179  15.452 -0.6997  0.6642  0.3765
13201TIP3   OH261093   1.265   0.752   1.142  0.2946 -0.2708 -0.1446
13201TIP3    H161094   1.189   0.788   1.096  0.9379  1.0916 -0.1709
13201TIP3    H261095   1.227   0.701   1.214 -0.6545 -0.1739 -0.5676
13202TIP3   OH261096   6.001   4.730  14.231  0.0746 -0.0133 -0.1188
13202TIP3    H161097   6.071   4.787  14.262  1.4743 -0.1245 -2.9481
13202TIP3    H261098   6.029   4.642  14.254  0.3391  0.0282 -0.2861
13203TIP3   OH261099   5.257   4.276  11.326 -0.6208  0.2804  0.4309
13203TIP3    H161100   5.162   4.271  11.315 -0.6062  2.2658 -0.8298
13203TIP3    H261101   5.292   4.220  11.257 -0.8288  2.2420 -1.3078
13204TIP3   OH261102   2.758   2.315  15.593 -0.3580  0.0038 -0.5488
13204TIP3    H161103   2.819   2.242  15.597  0.3305  0.4866 -2.0494
13204TIP3    H261104   2.683   2.281  15.544  0.0797  0.3808 -1.4855
13205TIP3   OH261105   3.284   4.506  15.103  0.4677  0.3753 -0.0723
13205TIP3    H161106   3.301   4.585  15.153  0.0617 -1.2354  2.7205
13205TIP3    H261107   3.367   4.459  15.104 -0.2768 -0.9470  1.4950
13206TIP3   OH261108   0.684   6.733  12.042 -0.0380  0.3941  0.0413
13206TIP3    H161109   0.643   6.790  11.977  0.7960  1.1202  0.1402
13206TIP3    H261110   0.610   6.696  12.092 -0.5682  1.8555  0.3656
13207TIP3   OH261111   4.603   2.549  13.343  0.6936  0.6652 -0.0312
13207TIP3    H161112   4.546   2.544  13.267 -0.1038  2.5407  0.4175
13207TIP3    H261113   4.692   2.552  13.307  0.3835  0.1776 -0.8213
13208TIP3   OH261114   6.353   5.663  14.549 -0.2804 -0.0385 -0.0435
13208TIP3    H161115   6.277   5.707  14.587 -0.0508 -0.3664  0.8062
13208TIP3    H261116   6.428   5.709  14.586 -0.0418 -0.9200  0.5872
13209TIP3   OH261117   2.508   3.468  15.948 -0.0471  0.6415  0.1127
13209TIP3    H161118   2.499   3.556  15.910 -2.5465  0.1265 -0.5516
13209TIP3    H261119   2.565   3.422  15.887  2.1166  2.0637  0.9835
13210TIP3   OH261120   6.381   1.439  16.073 -0.1833  0.3424  0.2437
13210TIP3    H161121   6.441   1.512  16.088  1.4169 -1.0998  0.9802
13210TIP3    H261122   6.414   1.397  15.995  0.5511 -1.2427  1.3948
13211TIP3   OH261123   0.686   4.234  15.864  0.0596  0.4454 -0.1247
13211TIP3    H161124   0.756   4.196  15.810 -1.0438 -0.4756 -0.9418
13211TIP3    H261125   0.609   4.232  15.807 -0.6444  1.3899  0.7932
13212TIP3   OH261126   4.384   2.015  14.110 -0.2775 -0.4277 -0.3927
13212TIP3    H161127   4.353   2.071  14.039 -0.9107 -0.6169 -0.2704
13212TIP3    H261128   4.480   2.024  14.107 -0.3667  0.6745 -0.3665
13213TIP3   OH261129   2.784   6.602   0.105  0.0326 -0.0259 -0.8535
13213TIP3    H161130   2.766   6.695   0.122  0.7181  0.1064 -0.8350
13213TIP3    H261131   2.708   6.572   0.054  0.1297  0.7165 -1.4473
13214TIP3   OH261132   3.075   5.208  13.851 -0.7286  0.0489  0.2390
13214TIP3    H161133   2.982   5.210  13.872 -0.6818  1.8733  0.3830
13214TIP3    H261134   3.084   5.140  13.785 -2.1562 -0.1696  0.2614
13215TIP3   OH261135   0.839   0.566   1.977  0.2155  0.1644  0.1831
13215TIP3    H161136   0.859   0.527   1.892 -2.0689 -3.6936  1.2629
13215TIP3    H261137   0.915   0.621   1.997  0.4191  1.9082 -4.6811
13216TIP3   OH261138   5.811   0.802  15.025  0.1343 -0.8085  0.5310
13216TIP3    H161139   5.745   0.850  14.975  0.5705  0.0908  0.7974
13216TIP3    H261140   5.761   0.760  15.096 -0.2278 -0.6065  0.3966
13217TIP3   OH261141   0.238   5.144  11.297 -0.0227  0.6150  0.2922
13217TIP3    H161142   0.208   5.112  11.382  2.0430  0.5688  1.0221
13217TIP3    H261143   0.167   5.201  11.266 -2.8018 -2.8272 -0.0120
13218TIP3   OH261144   1.127   3.899  17.271  0.4035 -0.3739 -0.4468
13218TIP3    H161145   1.221   3.891  17.251 -0.1284 -3.0203 -2.1178
13218TIP3    H261146   1.119   3.985  17.314  3.9379 -1.1097  1.9073
13219TIP3   OH261147   4.890   3.706   4.378  0.0286 -0.4092 -0.0510
13219TIP3    H161148   4.903   3.788   4.426 -0.6918  0.1523 -0.7843
13219TIP3    H261149   4.956   3.708   4.309  0.4229 -0.7473  0.3157
13220TIP3   OH261150   4.847   6.760   3.996  0.1326  0.0864  0.2821
13220TIP3    H161151   4.789   6.822   4.040  1.1420  2.1240 -1.1686
13220TIP3    H261152   4.789   6.690   3.965 -1.5337  1.9635 -0.9322
13221TIP3   OH261153   0.025   1.236   6.304 -0.0797 -0.5899 -0.7958
13221TIP3    H161154   0.047   1.205   6.391 -0.6226 -1.3126 -0.9050
13221TIP3    H261155   0.097   1.206   6.248  0.1722 -0.2965 -0.6217
13222TIP3   OH261156   0.286   0.572  12.755  0.2272 -0.1446  0.1049
13222TIP3    H161157   0.223   0.622  12.703  1.4756  1.2740 -0.0791
13222TIP3    H261158   0.368   0.579  12.705  0.4952 -2.1525  0.2206
13223TIP3   OH261159   5.085   3.970  13.698 -0.2822  0.2332  0.2792
13223TIP3    H161160   5.174   3.987  13.729 -0.4408 -0.0283  0.8872
13223TIP3    H261161   5.062   4.048  13.647 -0.2012  0.8990  1.2371
13224TIP3   OH261162   2.710   4.892  12.399  0.3926  0.1683 -0.0567
13224TIP3    H161163   2.792   4.854  12.430 -0.5022 -1.6887  0.1436
13224TIP3    H261164   2.731   4.929  12.313  1.4602 -0.1914  0.0524
13225TIP3   OH261165   5.718   6.757   4.936  0.4501  0.0199  0.3438
13225TIP3    H161166   5.637   6.731   4.893 -0.0153  2.3978 -0.3255
13225TIP3    H261167   5.718   6.710   5.019 -0.3935 -1.8694 -0.6872
13226TIP3   OH261168   0.653   2.660   5.110 -0.0641  0.0056 -0.1918
13226TIP3    H161169   0.657   2.756   5.107 -0.1720  0.1454  2.7679
13226TIP3    H261170   0.738   2.634   5.145 -0.1656 -0.9678 -0.6511
13227TIP3   OH261171   5.932   5.877  14.203 -0.1598  0.1022  0.5595
13227TIP3    H161172   5.926   5.869  14.298 -1.1437 -1.2193  0.3969
13227TIP3    H261173   5.909   5.968  14.185  0.6736  0.5358  1.6278
13228TIP3   OH261174   2.963   6.788   1.858  0.0446 -0.7987  0.2839
13228TIP3    H161175   3.035   6.739   1.818  0.0490  0.0667 -0.8048
13228TIP3    H261176   3.005   6.865   1.896 -0.2996 -0.2437 -0.4347
13229TIP3   OH261177   1.733   2.317   2.316  0.5120  0.0113  0.1989
13229TIP3    H161178   1.764   2.403   2.289  1.4675 -0.4279 -0.1217
13229TIP3    H261179   1.722   2.324   2.411  0.0376  0.6569  0.0939
13230TIP3   OH261180   6.784   4.878   3.219  0.0741 -0.0103 -0.6423
13230TIP3    H161181   6.814   4.835   3.299  0.8808  0.6719 -0.5717
13230TIP3    H261182   6.694   4.905   3.239 -0.5065 -1.8203 -0.7589
13231TIP3   OH261183   1.581   1.908   4.459 -0.2479 -0.2898 -0.2939
13231TIP3    H161184   1.597   1.989   4.505 -0.3674 -0.8301  0.7023
13231TIP3    H261185   1.549   1.935   4.372  1.3265  0.7279 -0.5608
13232TIP3   OH261186   1.006   4.230  13.361  0.6817 -0.9180  0.4601
13232TIP3    H161187   1.066   4.275  13.420  0.8360  0.1231 -0.4705
13232TIP3    H261188   0.934   4.201  13.417  1.6504 -1.4621  1.4450
13233TIP3   OH261189   2.772   3.239   0.435 -0.4005  0.2574  0.5684
13233TIP3    H161190   2.787   3.195   0.351  0.6824 -0.5537  1.1784
13233TIP3    H261191   2.695   3.294   0.419 -0.8768 -0.7208 -0.6370
13234TIP3   OH261192   3.807   0.392   1.655  0.3331  0.4194  0.2107
13234TIP3    H161193   3.897   0.361   1.665  0.7351  1.5912  0.2907
13234TIP3    H261194   3.756   0.312   1.642  1.5370 -0.1963 -0.9537
13235TIP3   OH261195   0.651   3.375  13.908 -0.4524 -0.7756  0.4191
13235TIP3    H161196   0.654   3.446  13.973 -0.3703  0.2715 -0.6968
13235TIP3    H261197   0.608   3.415  13.832  2.0134 -1.1020 -1.2065
13236TIP3   OH261198   2.354   0.891  11.407  0.0095 -0.0117 -0.0831
13236TIP3    H161199   2.426   0.930  11.457  0.3455 -0.6870 -0.0317
13236TIP3    H261200   2.397   0.844  11.336 -0.4837  1.1476 -1.1638
13237TIP3   OH261201   0.068   0.794  14.134 -0.2322 -0.1513 -0.4984
13237TIP3    H161202   0.094   0.830  14.050  0.1066  2.0699  0.5350
13237TIP3    H261203   0.126   0.835  14.197 -0.5399 -1.7240  0.8494
13238TIP3   OH261204   4.031   2.046   2.948  0.9453  0.1066  0.8450
13238TIP3    H161205   4.055   1.955   2.930  0.7777  0.3683 -0.7685
13238TIP3    H261206   3.954   2.061   2.894  0.9432  1.2019  1.1492
13239TIP3   OH261207   4.514   2.989  13.131 -0.1773  0.5944  0.0786
13239TIP3    H161208   4.535   2.909  13.081  1.6665  0.5288  0.9039
13239TIP3    H261209   4.423   2.979  13.157  0.2755 -1.6349  0.8709
13240TIP3   OH261210   3.454   0.950  12.387 -0.5247  0.8076  0.3357
13240TIP3    H161211   3.509   1.007  12.440  0.1224 -0.9276  1.5814
13240TIP3    H261212   3.504   0.936  12.307 -1.2323  2.9463 -0.5012
13241TIP3   OH261213   3.730   5.838  12.519  0.0092 -0.1596  0.4746
13241TIP3    H161214   3.636   5.844  12.538 -0.0765 -1.1723  0.3676
13241TIP3    H261215   3.735   5.841  12.424 -0.0142 -1.5308  0.4312
13242TIP3   OH261216   5.177   1.950   2.274  0.6811  0.5199 -0.0072
13242TIP3    H161217   5.150   1.860   2.254  1.0977  0.2268  0.7594
13242TIP3    H261218   5.128   1.973   2.353  1.0350  0.7563  0.1441
13243TIP3   OH261219   1.748   2.100   5.566 -1.1196  0.5720  0.6670
13243TIP3    H161220   1.834   2.110   5.526 -0.5856 -1.8573  1.1322
13243TIP3    H261221   1.767   2.079   5.658 -2.2155  0.9402  0.9840
13244TIP3   OH261222   4.710   3.923   1.624  0.2667 -0.6236 -0.0362
13244TIP3    H161223   4.786   3.927   1.567 -1.1400  0.2289 -1.9113
13244TIP3    H261224   4.644   3.877   1.572 -2.1946  3.2828 -0.5312
13245TIP3   OH261225   6.320   1.415   1.165  0.5943 -0.6363  0.3642
13245TIP3    H161226   6.292   1.339   1.115 -0.3324 -0.9285  1.2908
13245TIP3    H261227   6.375   1.379   1.235 -1.8825 -0.7771  2.3168
13246TIP3   OH261228   1.941   3.625   4.394  0.4578  0.3743 -0.4657
13246TIP3    H161229   1.893   3.703   4.419  0.1267  0.9954 -2.9051
13246TIP3    H261230   2.008   3.615   4.462 -1.0992  1.3004  1.2371
13247TIP3   OH261231   3.599   2.165   1.146 -0.6506 -0.5304 -0.1796
13247TIP3    H161232   3.612   2.154   1.051 -0.9832  0.4596 -0.3473
13247TIP3    H261233   3.509   2.135   1.161 -0.4411 -1.1333 -0.0914
13248TIP3   OH261234   1.555   4.054   5.533 -0.2280 -0.2256  1.1490
13248TIP3    H161235   1.486   4.004   5.576  0.3461 -0.7764  1.4425
13248TIP3    H261236   1.526   4.063   5.442 -1.3944  0.8342  1.6119
13249TIP3   OH261237   1.516   6.392  15.444 -0.1114 -0.2995  0.1675
13249TIP3    H161238   1.584   6.444  15.486 -1.4477  1.8260 -0.2141
13249TIP3    H261239   1.480   6.338  15.515 -1.1384  1.9444  1.4131
13250TIP3   OH261240   1.506   3.188   3.983 -0.3271  0.0473 -0.3798
13250TIP3    H161241   1.509   3.218   4.074 -0.4509  0.3227 -0.4655
13250TIP3    H261242   1.447   3.113   3.985 -0.2542 -0.0063 -0.2167
13251TIP3   OH261243   0.244   1.600  14.748  0.1239  0.2249 -0.2011
13251TIP3    H161244   0.331   1.569  14.725  0.7476  1.6769  0.1948
13251TIP3    H261245   0.259   1.669  14.813 -1.3048  0.5739 -0.2269
13252TIP3   OH261246   4.082   4.994  12.799 -0.1386  0.3150  0.0291
13252TIP3    H161247   4.156   4.969  12.743 -0.7286  2.1658 -1.6426
13252TIP3    H261248   4.122   5.043  12.870  0.2080  2.1618 -1.3877
13253TIP3   OH261249   6.233   2.198   5.979 -0.3235  0.0861  0.0073
13253TIP3    H161250   6.168   2.206   6.049 -1.4326  1.6420 -1.1695
13253TIP3    H261251   6.276   2.284   5.976  1.0852 -0.6082  0.0941
13254TIP3   OH261252   5.051   2.455   3.227  0.0455 -0.2554 -0.0704
13254TIP3    H161253   4.995   2.452   3.305 -0.4843 -2.0124 -0.5082
13254TIP3    H261254   5.136   2.423   3.257 -0.2022 -1.0850 -0.2410
13255TIP3   OH261255   1.283   5.435   0.625 -0.0689 -0.2921  0.4327
13255TIP3    H161256   1.311   5.523   0.600 -1.6152  0.6311  1.8574
13255TIP3    H261257   1.365   5.388   0.643  0.7649  0.8566 -0.3429
13256TIP3   OH261258   5.023   0.086  11.970  0.3134 -0.2244  0.2173
13256TIP3    H161259   5.074   0.110  11.892  0.8605  2.1956  1.2606
13256TIP3    H261260   5.080   0.026  12.018  0.9081  0.0374 -0.1471
13257TIP3   OH261261   6.734   4.797  13.842  0.3160  0.4625  0.0345
13257TIP3    H161262   6.825   4.827  13.851  0.2599  0.3048  1.1403
13257TIP3    H261263   6.724   4.729  13.908 -0.0867 -0.7873 -1.2961
13258TIP3   OH261264   0.704   5.035   0.531  0.2490  0.4844  0.3820
13258TIP3    H161265   0.674   4.968   0.592  1.0096 -0.9853 -0.8437
13258TIP3    H261266   0.625   5.065   0.486  0.0227 -0.1780  0.3438
13259TIP3   OH261267   5.999   4.504  15.006 -0.1358  0.0212 -0.6669
13259TIP3    H161268   6.065   4.573  15.009 -1.5093  1.3262  0.1424
13259TIP3    H261269   5.969   4.496  15.097 -0.8717 -0.7793 -0.9785
13260TIP3   OH261270   4.353   5.590  12.193  0.0982  0.2174 -0.0648
13260TIP3    H161271   4.303   5.671  12.182  0.7658  0.5180 -0.9635
13260TIP3    H261272   4.445   5.618  12.195  0.2266 -0.2536  2.3220
13261TIP3   OH261273   4.841   1.374   2.296  0.0307 -0.3763  0.4839
13261TIP3    H161274   4.902   1.375   2.370 -0.0686 -1.0443  0.5805
13261TIP3    H261275   4.779   1.445   2.316 -0.6611 -1.2698  1.6258
13262TIP3   OH261276   1.327   4.605   4.216  0.4919  0.2554 -0.2312
13262TIP3    H161277   1.291   4.694   4.210 -2.5968 -0.6321  3.4375
13262TIP3    H261278   1.360   4.599   4.306  0.4818 -2.3993 -0.3767
13263TIP3   OH261279   1.934   2.705   6.405 -0.6305  0.0714  0.1536
13263TIP3    H161280   1.921   2.705   6.311 -1.3652  2.4828  0.2165
13263TIP3    H261281   2.028   2.691   6.417 -0.7416 -1.6649 -0.8580
13264TIP3   OH261282   3.855   4.284  13.847  0.1637  0.2754 -0.1765
13264TIP3    H161283   3.829   4.203  13.802  0.9371  0.9846 -1.9436
13264TIP3    H261284   3.773   4.321  13.879 -0.1788 -1.3083  0.8535
13265TIP3   OH261285   5.603   5.417   1.242  0.0339 -0.0238  0.1645
13265TIP3    H161286   5.518   5.386   1.271 -0.7637  0.7103 -1.3179
13265TIP3    H261287   5.638   5.347   1.187 -0.9572  0.8945 -1.6803
13266TIP3   OH261288   1.713   2.354   5.018 -0.2241 -0.0944 -0.3592
13266TIP3    H161289   1.787   2.376   5.075 -0.7879 -0.6640  0.5979
13266TIP3    H261290   1.745   2.373   4.930  0.7704  0.4861  0.1118
13267TIP3   OH261291   5.508   4.016  10.586  0.3662  0.1640 -0.3898
13267TIP3    H161292   5.543   4.058  10.665  1.5557 -0.9515 -0.3050
13267TIP3    H261293   5.550   3.931  10.583 -0.7314 -0.3611 -1.4887
13268TIP3   OH261294   2.134   4.988  15.542 -0.3733  0.2964 -0.2215
13268TIP3    H161295   2.042   4.972  15.563  0.3630 -1.0803  2.2311
13268TIP3    H261296   2.149   5.079  15.567 -0.0730 -0.6781  3.6160
13269TIP3   OH261297   3.789   4.881  11.575  0.4489 -0.0166  0.5009
13269TIP3    H161298   3.756   4.818  11.638 -1.1182  1.7687  1.4819
13269TIP3    H261299   3.876   4.905  11.608  0.3310 -0.3537  1.0594
13270TIP3   OH261300   5.004   2.544   0.676 -0.4141 -0.0031  0.2783
13270TIP3    H161301   5.040   2.461   0.706  1.6644  0.4656 -0.8585
13270TIP3    H261302   4.963   2.581   0.754  2.2980 -0.1803  1.8602
13271TIP3   OH261303   4.016   1.686  11.792 -0.0726 -0.0204 -0.0690
13271TIP3    H161304   3.959   1.640  11.730 -0.4353  0.2330  0.0718
13271TIP3    H261305   4.104   1.657  11.770 -0.3684 -1.3834  0.5364
13272TIP3   OH261306   0.057   1.285  12.799  0.0339 -0.1355 -0.3623
13272TIP3    H161307   0.146   1.320  12.793 -1.5567  5.0369  3.0492
13272TIP3    H261308   0.063   1.214  12.863  1.6649  0.3827  0.0781
13273TIP3   OH261309   5.721   3.011   5.624  0.3053  0.1799  0.4113
13273TIP3    H161310   5.636   3.048   5.648  0.0134 -0.1942 -0.0394
13273TIP3    H261311   5.761   2.988   5.708  0.0505  0.5448  0.6372
13274TIP3   OH261312   0.695   6.612  12.645 -0.1638  0.1173 -0.2629
13274TIP3    H161313   0.723   6.688  12.594  0.3156  0.2280  0.1607
13274TIP3    H261314   0.649   6.651  12.720 -0.2295 -0.0191 -0.2328
13275TIP3   OH261315   5.573   2.690   1.000 -0.4836  0.1498  0.0041
13275TIP3    H161316   5.529   2.633   1.063 -0.0258 -0.2669 -0.0580
13275TIP3    H261317   5.623   2.631   0.944  0.8160  0.6849  0.5870
13276TIP3   OH261318   5.803   0.438   4.402 -0.3623 -0.2069  0.3225
13276TIP3    H161319   5.851   0.382   4.463  0.1685  0.5741  0.6227
13276TIP3    H261320   5.795   0.522   4.447  2.3762  1.2248 -1.6831
13277TIP3   OH261321   0.919   3.725   3.096  0.2645  0.1692 -0.5198
13277TIP3    H161322   0.993   3.665   3.112  0.7634  0.8892 -0.0880
13277TIP3    H261323   0.842   3.678   3.127  0.7793  0.1364  0.7162
13278TIP3   OH261324   5.989   3.701   5.397  0.4443  0.0207  0.0863
13278TIP3    H161325   5.975   3.692   5.491 -0.3093  2.1279  0.2010
13278TIP3    H261326   6.071   3.750   5.389  0.8330 -0.6892 -0.3740
13279TIP3   OH261327   5.986   3.765   4.115  0.9349  0.4486 -0.1609
13279TIP3    H161328   6.053   3.831   4.097  2.7914 -1.1387  0.7765
13279TIP3    H261329   5.954   3.739   4.029  0.2943  2.4332 -0.5467
13280TIP3   OH261330   5.769   3.610  15.311  0.1370 -0.0187  0.1711
13280TIP3    H161331   5.842   3.659  15.350  0.5890 -0.3635 -0.2326
13280TIP3    H261332   5.718   3.676  15.264  1.2862 -0.0765 -1.1837
13281TIP3   OH261333   2.353   6.145   1.548 -0.1092 -0.3074  0.0106
13281TIP3    H161334   2.325   6.074   1.491  1.5237  0.8971 -2.4138
13281TIP3    H261335   2.405   6.202   1.491  0.3584  1.7337  2.3781
13282TIP3   OH261336   4.608   0.981   1.497 -0.2293  0.0284 -0.4595
13282TIP3    H161337   4.652   1.064   1.513  0.3141 -0.4265  0.4456
13282TIP3    H261338   4.550   0.999   1.423 -0.2541  1.2564 -0.1599
13283TIP3   OH261339   5.843   3.970  13.200  0.0344 -0.2585  0.5447
13283TIP3    H161340   5.801   3.982  13.115  0.4378  0.3590  0.4315
13283TIP3    H261341   5.794   4.029  13.258  0.6419  0.3471  0.4458
13284TIP3   OH261342   0.993   1.328   0.974 -0.0096  0.1324 -0.3150
13284TIP3    H161343   1.034   1.254   1.020 -1.5474 -0.7936 -0.3893
13284TIP3    H261344   1.064   1.367   0.923  1.0442 -0.6814  0.5055
13285TIP3   OH261345   1.857   4.982   0.006 -0.1728  0.3171 -0.3882
13285TIP3    H161346   1.803   4.910   0.039 -0.5068  0.1636 -1.2589
13285TIP3    H261347   1.933   4.939  -0.033 -0.7465  0.3996 -1.5953
13286TIP3   OH261348   2.667   1.670   4.559  0.4528  0.3317  0.3912
13286TIP3    H161349   2.643   1.734   4.626 -1.8837 -0.2686  0.1625
13286TIP3    H261350   2.670   1.587   4.606 -2.0829 -0.2332 -0.3774
13287TIP3   OH261351   2.214   4.428   1.478 -0.2474  0.2287 -0.0782
13287TIP3    H161352   2.165   4.361   1.430  0.8711 -0.5677 -0.1314
13287TIP3    H261353   2.279   4.459   1.415  0.1795  0.3213  0.4056
13288TIP3   OH261354   0.220   6.400  16.379 -0.2806 -0.2660  0.3861
13288TIP3    H161355   0.170   6.327  16.343 -0.4196 -0.8521  1.7562
13288TIP3    H261356   0.155   6.466  16.401 -0.4583 -0.9435  1.9697
13289TIP3   OH261357   6.554   4.428  14.527 -0.1459 -0.3940  0.1306
13289TIP3    H161358   6.568   4.476  14.609  0.8293 -1.4837  0.6217
13289TIP3    H261359   6.470   4.384  14.540 -0.1523 -0.3031  0.4153
13290TIP3   OH261360   3.658   5.510   5.764 -0.0794 -0.3533  0.4473
13290TIP3    H161361   3.657   5.426   5.719  0.5264 -0.4181  0.5532
13290TIP3    H261362   3.676   5.574   5.694 -0.3193 -0.3318  0.4040
13291TIP3   OH261363   5.991   3.387   2.702  0.5865 -0.2287 -0.2228
13291TIP3    H161364   5.950   3.326   2.640  1.0869 -0.8382  0.0400
13291TIP3    H261365   5.920   3.446   2.728 -0.4608 -2.0176  1.1551
13292TIP3   OH261366   2.380   0.891  15.110 -0.0748  0.1482  0.0986
13292TIP3    H161367   2.388   0.801  15.078 -0.8828 -0.5418  1.7659
13292TIP3    H261368   2.298   0.923  15.073 -1.4860 -0.9687  2.1581
13293TIP3   OH261369   3.352   0.977  13.009  0.5669  0.2248 -0.9291
13293TIP3    H161370   3.441   0.983  13.044  0.4468 -0.6968 -0.4475
13293TIP3    H261371   3.320   0.892  13.039 -0.9976  1.1695  0.1623
13294TIP3   OH261372   1.708   3.864   4.756 -0.3574 -0.5474  0.3289
13294TIP3    H161373   1.666   3.942   4.721  1.2859 -1.1371 -3.1639
13294TIP3    H261374   1.788   3.896   4.797 -1.1770 -0.1015  1.6147
13295TIP3   OH261375   4.963   3.129   4.981  0.1114 -0.0717 -0.3109
13295TIP3    H161376   5.035   3.143   5.043 -0.0998 -1.4989  0.2871
13295TIP3    H261377   4.885   3.157   5.028  0.0890 -0.0573 -0.3571
13296TIP3   OH261378   0.190   2.634  17.005  0.0992  0.1394 -0.1770
13296TIP3    H161379   0.235   2.550  17.019 -0.8342 -0.0982  1.5375
13296TIP3    H261380   0.159   2.630  16.915 -0.5618 -1.6757  0.1082
13297TIP3   OH261381   1.420   3.721   4.330  0.6861 -0.2442 -0.2513
13297TIP3    H161382   1.383   3.635   4.307  1.4707 -0.6819  0.1057
13297TIP3    H261383   1.457   3.754   4.248 -1.1977  0.5616 -0.8034
13298TIP3   OH261384   3.673   5.274   5.602 -0.1181 -0.0981 -0.4493
13298TIP3    H161385   3.712   5.189   5.621  0.3809  0.7581  2.5831
13298TIP3    H261386   3.724   5.307   5.528  1.5729 -1.1960  0.1927
13299TIP3   OH261387   3.016   0.700   5.499 -0.6553  0.3451 -0.1529
13299TIP3    H161388   3.081   0.630   5.495  0.8305  1.6222  0.8880
13299TIP3    H261389   3.064   0.775   5.535 -2.4999  1.5608 -0.1635
13300TIP3   OH261390   3.898   1.337  14.261  0.5739 -0.1275 -0.0990
13300TIP3    H161391   3.852   1.363  14.342 -0.0652  0.3670 -0.6148
13300TIP3    H261392   3.989   1.328  14.288  0.4339  0.4205  0.5981
13301TIP3   OH261393   2.866   5.416  15.334  0.0656  0.1777  0.3951
13301TIP3    H161394   2.774   5.430  15.309 -0.3194 -1.7249  0.7075
13301TIP3    H261395   2.870   5.442  15.426  0.3374  2.2569 -0.1651
13302TIP3   OH261396   1.434   0.805  16.092 -0.3145  0.5636  0.0891
13302TIP3    H161397   1.367   0.746  16.127  0.6858 -0.3461  0.4791
13302TIP3    H261398   1.451   0.771  16.004 -0.0644  0.5407  0.1480
13303TIP3   OH261399   4.237   6.278   4.157 -0.0980 -0.1844  0.1971
13303TIP3    H161400   4.224   6.360   4.205 -0.1183 -0.0672 -0.0086
13303TIP3    H261401   4.263   6.305   4.069 -2.2080 -0.3525 -0.5175
13304TIP3   OH261402   3.807   4.057   5.239 -0.0042  0.0069  0.4894
13304TIP3    H161403   3.813   3.978   5.293  0.6901 -0.0680  0.3097
13304TIP3    H261404   3.837   4.029   5.153  0.5486  0.5419  0.5062
13305TIP3   OH261405   1.568   3.917   2.744  0.2489  0.1384 -0.2086
13305TIP3    H161406   1.622   3.920   2.823 -1.0432  0.7152  0.6672
13305TIP3    H261407   1.617   3.968   2.680  0.0687  1.9092  1.0213
13306TIP3   OH261408   3.151   1.154  12.914 -0.3918  0.0507  0.2287
13306TIP3    H161409   3.218   1.091  12.942 -0.2348  0.4700  0.8057
13306TIP3    H261410   3.138   1.135  12.821 -0.6472 -1.1099  0.4876
13307TIP3   OH261411   3.666   0.947   2.064 -0.0763 -0.2133  0.6450
13307TIP3    H161412   3.755   0.935   2.095  0.3018  1.0241  0.0823
13307TIP3    H261413   3.611   0.906   2.131  0.8397  0.3427  1.7519
13308TIP3   OH261414   2.342   2.757   3.190  0.0510 -0.2252 -0.2521
13308TIP3    H161415   2.247   2.764   3.199  0.2176  0.4043  1.1586
13308TIP3    H261416   2.377   2.813   3.260  1.4588  0.0246 -1.1216
13309TIP3   OH261417   6.395   1.019  14.743 -0.0544 -0.1303  0.5403
13309TIP3    H161418   6.332   1.071  14.693 -0.6449  0.1454  1.5551
13309TIP3    H261419   6.387   0.930  14.708  0.3297  0.2642 -0.6001
13310TIP3   OH261420   6.690   4.537   0.353  1.0038 -0.1603 -0.4395
13310TIP3    H161421   6.688   4.544   0.449 -0.3606  0.3622 -0.4989
13310TIP3    H261422   6.626   4.469   0.333  1.2278 -0.2071 -0.9941
13311TIP3   OH261423   1.707   2.109   5.877  1.1236  0.2037 -0.1760
13311TIP3    H161424   1.649   2.034   5.861  1.0527  0.5040 -1.3469
13311TIP3    H261425   1.695   2.129   5.970  0.2974 -0.5344 -0.1194
13312TIP3   OH261426   1.907   6.631   5.690  0.1148  0.4676 -0.3053
13312TIP3    H161427   1.950   6.703   5.736  1.1375 -0.9044  0.9230
13312TIP3    H261428   1.833   6.608   5.746 -0.8395  1.2317 -1.2232
13313TIP3   OH261429   5.300   5.883   0.621 -0.3017  0.2443  0.6541
13313TIP3    H161430   5.338   5.952   0.675  0.5670  1.0870 -1.0004
13313TIP3    H261431   5.374   5.846   0.573 -0.8174 -1.5988  1.2344
13314TIP3   OH261432   2.194   2.651   2.230  0.3884 -0.1614  0.0436
13314TIP3    H161433   2.185   2.700   2.312  0.9419  0.1055 -0.0549
13314TIP3    H261434   2.218   2.562   2.258  0.0175 -0.2183  0.1912
13315TIP3   OH261435   4.364   4.059   4.312 -0.1790  0.5231 -0.5346
13315TIP3    H161436   4.421   4.007   4.369 -1.2592 -0.8965 -0.7069
13315TIP3    H261437   4.424   4.114   4.262  0.8713  0.8109  0.9980
13316TIP3   OH261438   3.727   2.079   2.065  0.2529  0.4570 -0.0039
13316TIP3    H161439   3.689   1.991   2.074  0.4294  0.2493 -1.2221
13316TIP3    H261440   3.820   2.067   2.087  0.2444  0.3587 -0.0192
13317TIP3   OH261441   0.796   1.517  16.923  0.2771 -0.0139 -0.4054
13317TIP3    H161442   0.719   1.543  16.873  1.3729  1.3552 -1.4213
13317TIP3    H261443   0.842   1.456  16.866 -0.8545 -2.1025  0.8526
13318TIP3   OH261444   0.495   3.618   3.652  0.3585  0.1022  0.3224
13318TIP3    H161445   0.554   3.562   3.600 -0.9011 -1.0306  0.1025
13318TIP3    H261446   0.517   3.707   3.624 -0.3011 -0.4807 -2.2106
13319TIP3   OH261447   6.032   0.805   1.638  0.0387 -0.0891  0.2372
13319TIP3    H161448   6.019   0.832   1.729 -0.0803  0.6156  0.0152
13319TIP3    H261449   5.974   0.730   1.626  0.4066 -0.4815  0.8786
13320TIP3   OH261450   2.819   1.313  14.961  0.3004 -0.8759 -0.1054
13320TIP3    H161451   2.807   1.391  14.908  0.6194  0.4854  1.7668
13320TIP3    H261452   2.848   1.246  14.900  1.8687  0.9639 -1.4333
13321TIP3   OH261453   2.621   1.559   3.646 -0.1265  0.3310  0.3075
13321TIP3    H161454   2.708   1.519   3.646  0.5292  1.6803 -0.8512
13321TIP3    H261455   2.564   1.494   3.608  0.6976  0.0368 -0.4480
13322TIP3   OH261456   1.179   5.954  14.334  0.3505  0.3741 -0.3837
13322TIP3    H161457   1.219   6.019  14.275  1.5777 -1.2315 -1.3755
13322TIP3    H261458   1.164   5.878  14.278 -4.2596  0.9044 -0.0833
13323TIP3   OH261459   2.028   4.040   0.710  0.5639 -0.6235  0.0436
13323TIP3    H161460   1.993   4.103   0.648  2.5053  1.0427  0.5608
13323TIP3    H261461   1.968   3.965   0.707 -0.4431  0.2621 -2.3431
13324TIP3   OH261462   1.989   4.530   3.281  0.2462 -0.6588 -0.0332
13324TIP3    H161463   2.070   4.580   3.291 -0.1022  0.2939 -1.7008
13324TIP3    H261464   2.000   4.453   3.337  1.9396 -0.1116  0.3994
13325TIP3   OH261465   1.848   1.954  13.640  0.1467  0.4149 -0.0650
13325TIP3    H161466   1.851   2.015  13.713  0.1009  0.6609 -0.2700
13325TIP3    H261467   1.895   1.998  13.569 -0.3403  0.4420 -0.3781
13326TIP3   OH261468   2.176   4.459  14.764  0.1292 -0.0308 -0.2552
13326TIP3    H161469   2.173   4.363  14.767 -0.6062  0.0402  1.2725
13326TIP3    H261470   2.253   4.478  14.710  0.6577 -1.4847 -0.0408
13327TIP3   OH261471   5.595   0.184   5.253  0.3961  0.3122  0.4647
13327TIP3    H161472   5.688   0.184   5.228  0.5125 -1.4943  0.8539
13327TIP3    H261473   5.591   0.129   5.331 -1.2440 -0.9706 -0.4781
13328TIP3   OH261474   5.599   0.655   3.722 -0.1573 -0.6561  0.1276
13328TIP3    H161475   5.609   0.684   3.631  1.0222  0.2336  0.5280
13328TIP3    H261476   5.642   0.569   3.724  1.9565  0.3667  0.3687
13329TIP3   OH261477   0.517   5.766   5.302  0.3651 -0.0656  0.1687
13329TIP3    H161478   0.464   5.846   5.308  2.4430  1.3055  1.2357
13329TIP3    H261479   0.506   5.737   5.212  1.1918  2.6285 -0.8709
13330TIP3   OH261480   3.547   6.292  15.804  0.0586  0.1111  0.5769
13330TIP3    H161481   3.537   6.208  15.848 -1.1756  0.4376  0.9551
13330TIP3    H261482   3.464   6.305  15.757 -0.1420  1.5415  1.2828
13331TIP3   OH261483   2.038   5.095  16.875  0.2239  0.3100 -0.5343
13331TIP3    H161484   1.972   5.111  16.808  0.3236  0.1743 -0.6642
13331TIP3    H261485   2.018   5.159  16.944 -0.2621  0.0284 -0.4155
13332TIP3   OH261486   3.214   0.246  13.021 -0.3803 -0.2518 -0.1378
13332TIP3    H161487   3.161   0.261  12.942  0.7379 -2.5011 -1.3805
13332TIP3    H261488   3.296   0.292  13.003 -0.4311 -0.0697  0.0894
13333TIP3   OH261489   6.734   6.219   4.506  0.1542 -0.0360  0.0464
13333TIP3    H161490   6.759   6.202   4.597  0.0355 -1.8820 -0.2360
13333TIP3    H261491   6.788   6.158   4.455 -0.1821  0.5901 -1.0731
13334TIP3   OH261492   0.043   5.109   2.242  0.2793  0.4275  0.0470
13334TIP3    H161493  -0.047   5.082   2.225  0.2449 -1.4151  2.8867
13334TIP3    H261494   0.096   5.032   2.222  1.0818  1.0079 -0.1189
13335TIP3   OH261495   4.298   1.347   3.529  0.3499 -0.0409 -0.3359
13335TIP3    H161496   4.267   1.268   3.575  1.7274  0.6259  1.8485
13335TIP3    H261497   4.219   1.396   3.509 -0.2674  0.0292  2.1308
13336TIP3   OH261498   2.001   0.490   0.650 -0.5847  0.0798 -0.2772
13336TIP3    H161499   2.016   0.419   0.588  1.6301 -0.5148  0.8842
13336TIP3    H261500   2.051   0.564   0.615  0.8716 -0.3280  0.8627
13337TIP3   OH261501   5.981   0.511   0.975 -0.0208 -0.8613  0.2680
13337TIP3    H161502   5.945   0.424   0.995 -0.5825 -0.5702  0.5278
13337TIP3    H261503   5.938   0.536   0.893 -0.2061 -0.6275  0.4370
13338TIP3   OH261504   6.549   5.886   2.153  0.0440 -0.0440  0.2157
13338TIP3    H161505   6.513   5.825   2.219  0.7028 -0.1491  0.4788
13338TIP3    H261506   6.472   5.930   2.117 -0.4235 -0.8732  0.1847
13339TIP3   OH261507   5.346   2.369   4.079  0.1919  0.1582 -0.1111
13339TIP3    H161508   5.336   2.284   4.122  0.4709  1.4572  2.6798
13339TIP3    H261509   5.408   2.354   4.008  0.3764 -1.9283  0.4607
13340TIP3   OH261510   1.763   5.443   2.765 -0.4752  0.0713 -0.4756
13340TIP3    H161511   1.752   5.532   2.731 -0.4116 -0.0887 -0.9141
13340TIP3    H261512   1.674   5.408   2.768 -0.7825  0.9646  1.9368
13341TIP3   OH261513   1.436   0.753  16.990 -0.5352 -0.1270  0.2400
13341TIP3    H161514   1.386   0.760  16.909 -0.3629 -0.8798  0.0668
13341TIP3    H261515   1.404   0.673  17.031 -0.7202  0.3171  0.9896
13342TIP3   OH261516   5.666   5.249   5.298 -0.1934 -0.1544 -0.6746
13342TIP3    H161517   5.675   5.312   5.226  0.1494  0.5714 -0.0092
13342TIP3    H261518   5.645   5.303   5.374  0.4989 -0.8093 -0.0089
13343TIP3   OH261519   4.820   5.611   3.606 -0.0024  0.0446 -0.2085
13343TIP3    H161520   4.790   5.700   3.589 -0.3748  0.0600  0.5311
13343TIP3    H261521   4.764   5.579   3.676  0.1883 -0.7459 -0.4083
13344TIP3   OH261522   6.772   5.971   0.323 -0.4698  0.2736  0.3524
13344TIP3    H161523   6.739   5.882   0.339 -0.4641  0.3235  0.6515
13344TIP3    H261524   6.862   5.968   0.354 -1.0318  0.8971  2.1334
13345TIP3   OH261525   3.410   0.359   6.694 -0.1776 -0.5754  0.6295
13345TIP3    H161526   3.450   0.273   6.683  0.6029 -0.2286  0.6831
13345TIP3    H261527   3.320   0.348   6.664  0.3683 -1.0215 -0.9054
13346TIP3   OH261528   6.783   3.950  14.101 -0.0637 -0.4356 -0.1847
13346TIP3    H161529   6.702   3.995  14.125  0.5799  0.4844  0.3135
13346TIP3    H261530   6.849   3.986  14.161  0.3990 -2.3200  0.4895
13347TIP3   OH261531   6.131   0.284   1.614  0.0575  0.1135  0.2333
13347TIP3    H161532   6.078   0.350   1.660  1.0794  0.9565  0.2334
13347TIP3    H261533   6.132   0.209   1.672 -0.4249  0.4053  0.6246
13348TIP3   OH261534   6.630   6.073   6.114  0.3714 -1.1674  0.0414
13348TIP3    H161535   6.687   6.131   6.165  1.8466 -1.1056 -1.6354
13348TIP3    H261536   6.679   6.057   6.033 -1.6301 -1.7942 -1.0690
13349TIP3   OH261537   6.588   0.274   2.585 -0.3754 -0.2117  0.2159
13349TIP3    H161538   6.494   0.270   2.600 -0.2941 -0.0176  0.7936
13349TIP3    H261539   6.599   0.339   2.516 -0.7059 -0.6375 -0.2412
13350TIP3   OH261540   4.270   6.564   0.904  0.1252  0.1031 -0.5398
13350TIP3    H161541   4.324   6.633   0.942 -0.0641 -0.8948  1.6561
13350TIP3    H261542   4.309   6.546   0.819  1.3110  1.5801 -0.3331
13351TIP3   OH261543   6.398   6.143   5.456 -0.7312  0.0025 -0.5762
13351TIP3    H161544   6.443   6.197   5.521  0.7456 -0.3773 -1.2557
13351TIP3    H261545   6.453   6.150   5.378 -0.6369 -2.2663 -0.7471
13352TIP3   OH261546   1.841   5.327  11.292  0.5251 -0.1433  0.4663
13352TIP3    H161547   1.805   5.292  11.210  1.5334  0.2307 -0.1449
13352TIP3    H261548   1.786   5.402  11.313  1.5125  1.0262 -0.9930
13353TIP3   OH261549   0.622   4.020   5.232 -0.1726 -0.1309  0.5010
13353TIP3    H161550   0.697   3.976   5.193  1.0684  1.5842  0.8943
13353TIP3    H261551   0.562   4.034   5.159 -0.6929 -2.5850  0.3899
13354TIP3   OH261552   2.447   2.000  16.034  0.7535  0.4941 -0.4009
13354TIP3    H161553   2.503   1.946  15.978  2.4723  1.8905 -0.0841
13354TIP3    H261554   2.453   1.959  16.120  1.2494  0.6199 -0.3766
13355TIP3   OH261555   6.688   5.915  15.168  0.5327  0.4054  0.1325
13355TIP3    H161556   6.612   5.870  15.131 -0.3306  1.9470 -0.0241
13355TIP3    H261557   6.752   5.846  15.182 -0.8290 -0.8993  0.0840
13356TIP3   OH261558   2.655   4.980  14.232  0.4004  0.5025  0.4165
13356TIP3    H161559   2.636   5.013  14.320  0.2087  1.6002 -0.0337
13356TIP3    H261560   2.736   5.025  14.206 -0.1374  1.0003 -0.3998
13357TIP3   OH261561   5.995   6.212   0.078  0.3720  0.4029  0.3734
13357TIP3    H161562   6.016   6.132   0.030  1.9693  0.2953  1.2016
13357TIP3    H261563   5.924   6.252   0.028 -0.3596 -1.4502 -0.1317
13358TIP3   OH261564   4.459   4.923   4.788 -0.0175  0.1941  0.3321
13358TIP3    H161565   4.449   4.828   4.785  0.4474  0.1642 -0.3163
13358TIP3    H261566   4.523   4.938   4.857 -1.2317  0.1377  1.5065
13359TIP3   OH261567   2.362   3.199  12.880  0.3567  0.2229  0.4801
13359TIP3    H161568   2.389   3.109  12.899 -1.1537 -0.3433 -0.0024
13359TIP3    H261569   2.267   3.196  12.879  0.2865  1.9744  1.0936
13360TIP3   OH261570   1.603   0.322  15.251  0.2013  0.4570 -0.2654
13360TIP3    H161571   1.565   0.273  15.178 -1.0723  0.4301  0.4053
13360TIP3    H261572   1.690   0.346  15.220 -0.8815  1.8392 -2.4439
13361TIP3   OH261573   5.134   6.484  15.787  0.0849  0.3946 -0.4651
13361TIP3    H161574   5.126   6.397  15.747 -0.1015  0.5654 -0.7997
13361TIP3    H261575   5.063   6.535  15.748 -0.2908  0.4731  0.3201
13362TIP3   OH261576   5.567   1.408   6.229 -0.1800  0.1645 -0.1935
13362TIP3    H161577   5.526   1.480   6.277  1.3155  0.3775  0.8005
13362TIP3    H261578   5.512   1.396   6.152 -3.5034 -1.0757  2.2154
13363TIP3   OH261579   5.187   2.351   5.461  0.4579 -0.5206 -0.0759
13363TIP3    H161580   5.101   2.308   5.463  0.3790 -0.3809 -0.4383
13363TIP3    H261581   5.249   2.279   5.456  0.3917 -0.6474  0.8042
13364TIP3   OH261582   6.543   2.031   1.260  0.0060  0.5428  0.1484
13364TIP3    H161583   6.500   1.987   1.186  0.6202  0.7534 -0.3405
13364TIP3    H261584   6.636   2.026   1.239  0.1758  0.6873  0.8714
13365TIP3   OH261585   4.981   3.707   0.508 -0.2191  0.1458  0.2268
13365TIP3    H161586   5.074   3.728   0.504  0.0218 -1.0363 -0.4133
13365TIP3    H261587   4.938   3.781   0.464  0.5364 -0.1053 -0.9596
13366TIP3   OH261588   4.148   6.788  15.868 -0.7268  0.0482 -0.1452
13366TIP3    H161589   4.167   6.872  15.911  0.4702 -0.8392  1.0696
13366TIP3    H261590   4.116   6.814  15.781  0.0987  1.7675  0.0275
13367TIP3   OH261591   6.173   1.561   3.430 -0.2876 -0.2470 -0.1778
13367TIP3    H161592   6.222   1.479   3.425  1.0933  0.5418  0.2547
13367TIP3    H261593   6.110   1.548   3.501  1.0973 -0.3287  1.0516
13368TIP3   OH261594   4.112   0.032   6.020 -0.1699  0.0688  0.3078
13368TIP3    H161595   4.149   0.022   5.932  0.6503 -0.3696  0.6966
13368TIP3    H261596   4.181   0.000   6.079 -0.8952 -0.0766  1.0867
13369TIP3   OH261597   5.117   2.178  14.485 -0.0176  0.0219  0.3262
13369TIP3    H161598   5.157   2.183  14.572 -1.4224  0.5203  0.9579
13369TIP3    H261599   5.075   2.092  14.483  0.5716 -0.2527 -0.1013
13370TIP3   OH261600   6.231   3.516  14.245 -0.1875  0.0033 -0.2511
13370TIP3    H161601   6.140   3.513  14.218 -0.6107  0.5789  1.0480
13370TIP3    H261602   6.230   3.487  14.336  0.9811 -0.3905 -0.3538
13371TIP3   OH261603   6.412   0.614  13.078 -0.0618  0.0657 -0.5120
13371TIP3    H161604   6.459   0.681  13.126  0.1466 -0.3402 -0.1506
13371TIP3    H261605   6.415   0.643  12.987 -0.4856  0.8466 -0.2729
13372TIP3   OH261606   2.121   1.000  13.117  0.0083  0.0231  0.2536
13372TIP3    H161607   2.154   1.082  13.081  0.0958  0.4761  1.3263
13372TIP3    H261608   2.141   1.006  13.211  4.7533 -3.3920 -0.3012
13373TIP3   OH261609   5.743   1.242   0.479 -0.0786 -0.0474 -0.0782
13373TIP3    H161610   5.673   1.306   0.485  0.7168  0.7827  0.3401
13373TIP3    H261611   5.822   1.293   0.463  0.1850 -1.0848 -2.3466
13374TIP3   OH261612   3.082   2.638  13.958  0.1258  0.2132 -0.3916
13374TIP3    H161613   2.999   2.627  14.004  0.4626 -0.5540  0.0483
13374TIP3    H261614   3.106   2.729  13.974 -0.6550  0.4568 -0.5692
13375TIP3   OH261615   4.283   0.970   2.967 -0.0636 -0.0358 -0.0848
13375TIP3    H161616   4.258   0.916   2.892  1.6740 -0.8570 -0.1163
13375TIP3    H261617   4.295   1.058   2.931  0.8551 -0.4444 -0.8173
13376TIP3   OH261618   2.748   3.174  16.946 -0.5527  0.3476 -0.1865
13376TIP3    H161619   2.787   3.103  16.997 -0.2499 -0.3790 -1.4323
13376TIP3    H261620   2.741   3.140  16.857 -5.0561  0.0382  0.1908
13377TIP3   OH261621   3.057   1.045   3.451 -0.4425 -0.2677  0.5305
13377TIP3    H161622   2.989   0.978   3.456 -1.7775  0.8469 -1.7245
13377TIP3    H261623   3.025   1.116   3.507 -0.6087 -0.1822  0.3265
13378TIP3   OH261624   0.489   0.528   5.065 -0.8931 -0.0093  0.2136
13378TIP3    H161625   0.459   0.441   5.091 -0.7748 -0.0065  0.3620
13378TIP3    H261626   0.556   0.550   5.129 -0.9455  0.2051  0.1952
13379TIP3   OH261627   3.927   5.918   1.992 -0.1784  0.4331 -0.0208
13379TIP3    H161628   4.021   5.909   1.982 -0.2367 -0.5380  0.2317
13379TIP3    H261629   3.902   5.983   1.926  0.6875  0.8378  0.0443
13380TIP3   OH261630   6.681   5.863  16.053  0.3310 -0.1028  0.0381
13380TIP3    H161631   6.587   5.847  16.041  0.4411 -0.9808  0.2562
13380TIP3    H261632   6.696   5.949  16.015 -0.1385 -0.9245 -2.0685
13381TIP3   OH261633   5.654   1.150  10.654 -0.0496 -0.0714 -0.2328
13381TIP3    H161634   5.712   1.215  10.693  1.7172 -3.3220  2.7993
13381TIP3    H261635   5.707   1.109  10.585  0.4105 -1.3356  0.8627
13382TIP3   OH261636   1.191   2.392   2.149  0.0634  0.7605  0.3312
13382TIP3    H161637   1.155   2.308   2.121 -0.8702  0.9880  0.8426
13382TIP3    H261638   1.191   2.388   2.245  1.8192  0.5888  0.3494
13383TIP3   OH261639   0.715   0.933  14.903 -0.2026 -0.0528 -0.3490
13383TIP3    H161640   0.793   0.879  14.890 -0.2271 -0.3063  0.5283
13383TIP3    H261641   0.748   1.013  14.945 -0.2709  0.2909 -0.9434
13384TIP3   OH261642   2.239   0.933  16.477 -0.1332 -0.2169 -0.1466
13384TIP3    H161643   2.160   0.970  16.517  0.2101  1.2491 -0.7788
13384TIP3    H261644   2.305   1.001  16.488  0.5525 -0.6882 -1.2576
13385TIP3   OH261645   3.613   1.666   5.602  0.3558 -0.2309 -0.2668
13385TIP3    H161646   3.544   1.731   5.613  0.5162 -0.0679 -0.2270
13385TIP3    H261647   3.569   1.582   5.618 -0.1686 -0.2461 -1.7242
13386TIP3   OH261648   3.315   5.523   3.238  0.3789 -0.0698 -0.0140
13386TIP3    H161649   3.313   5.612   3.203 -1.2317 -0.7765 -1.8042
13386TIP3    H261650   3.378   5.476   3.184 -0.5027 -0.6051 -0.5930
13387TIP3   OH261651   4.816   5.731  11.167 -0.9696 -0.1762  0.0140
13387TIP3    H161652   4.740   5.752  11.222 -0.1263  0.9810  0.7754
13387TIP3    H261653   4.872   5.808  11.174 -0.9544  0.1111 -2.7117
13388TIP3   OH261654   4.982   2.321   1.585  0.0351 -0.1109 -0.5620
13388TIP3    H161655   4.944   2.257   1.646 -1.3410 -0.0902 -1.3853
13388TIP3    H261656   4.942   2.404   1.611  1.2628  0.3116  0.0285
13389TIP3   OH261657   3.227   1.386   5.176 -0.4010  0.2917 -0.2107
13389TIP3    H161658   3.140   1.378   5.215  0.0201 -0.4465  0.5897
13389TIP3    H261659   3.246   1.480   5.179 -0.9926  0.4088 -0.0028
13390TIP3   OH261660   0.090   5.616   1.991  0.7450 -0.3232 -0.0425
13390TIP3    H161661   0.121   5.534   2.027 -1.7321 -2.0852 -1.7535
13390TIP3    H261662   0.061   5.595   1.902 -1.6889  1.9431  0.1224
13391TIP3   OH261663   0.075   3.308   5.145 -0.3175 -0.1798  0.2691
13391TIP3    H161664   0.164   3.345   5.142  0.1015 -1.0665  1.2083
13391TIP3    H261665   0.034   3.354   5.218 -0.7931  0.5630 -0.4598
13392TIP3   OH261666   5.838   1.537   4.788 -0.5383 -0.1464  0.0064
13392TIP3    H161667   5.819   1.627   4.763  0.0893 -0.2260 -0.8020
13392TIP3    H261668   5.925   1.520   4.750 -0.2791 -0.8062  0.8900
13393TIP3   OH261669   6.060   6.808   5.690  0.1413 -0.1003 -0.0567
13393TIP3    H161670   5.992   6.874   5.700  0.3024  0.0331  0.1683
13393TIP3    H261671   6.137   6.846   5.732  0.6584  0.1975 -1.2675
13394TIP3   OH261672   5.446   2.984  15.695  0.3422  0.6094  0.2755
13394TIP3    H161673   5.471   2.935  15.617 -1.2727  1.1895 -0.6240
13394TIP3    H261674   5.417   3.069  15.662 -2.1530  0.1969  1.3011
13395TIP3   OH261675   2.172   1.685  15.625 -0.3773 -0.1284  0.4459
13395TIP3    H161676   2.168   1.590  15.621  3.2253 -0.3443  0.3900
13395TIP3    H261677   2.194   1.712  15.536  0.7188  0.5870  0.9214
13396TIP3   OH261678   4.927   1.287   3.704 -0.5587 -0.3053 -0.1837
13396TIP3    H161679   4.997   1.222   3.694 -1.2911 -1.2825  0.8824
13396TIP3    H261680   4.948   1.355   3.639  2.7301  0.6139  1.6760
13397TIP3   OH261681   3.560   3.696  12.489 -0.2487  0.1718  0.3416
13397TIP3    H161682   3.547   3.640  12.412  2.0286  1.5102 -1.0806
13397TIP3    H261683   3.625   3.761  12.460 -1.2883  2.2805  2.5914
13398TIP3   OH261684   5.806   4.363   4.855 -0.0846  0.2237  0.3824
13398TIP3    H161685   5.837   4.362   4.764  0.4662 -0.4612  0.5675
13398TIP3    H261686   5.711   4.360   4.848 -0.0235 -0.7113 -0.1666
13399TIP3   OH261687   1.416   5.036  15.512  0.0089  0.0204  0.2542
13399TIP3    H161688   1.447   5.055  15.424  1.5090 -0.8323  0.5749
13399TIP3    H261689   1.486   5.068  15.569  0.3381 -1.9897  1.0017
13400TIP3   OH261690   0.311   1.446   2.054  0.5737 -0.0611  0.3326
13400TIP3    H161691   0.390   1.454   2.106  1.0541 -0.5621 -0.3055
13400TIP3    H261692   0.301   1.352   2.039  0.8631  0.1304 -1.1077
13401TIP3   OH261693   0.106   4.929   2.657  0.2257 -0.0551 -0.4554
13401TIP3    H161694   0.154   4.923   2.739 -0.5817 -2.3376 -0.1116
13401TIP3    H261695   0.096   5.023   2.642  1.7678  0.4062  1.2218
13402TIP3   OH261696   3.463   5.261  13.358 -0.2838 -0.0206  0.2097
13402TIP3    H161697   3.467   5.256  13.262 -0.3171 -2.4034  0.3192
13402TIP3    H261698   3.374   5.290  13.377 -1.1667 -2.2556 -0.4106
13403TIP3   OH261699   6.684   6.030  13.911 -0.4888 -0.2205 -0.5133
13403TIP3    H161700   6.719   6.035  13.999  3.2499 -0.0364 -1.9138
13403TIP3    H261701   6.613   6.094  13.910  0.3901  0.8483  1.9328
13404TIP3   OH261702   4.605   0.342   5.437  0.2971 -0.2006  0.3005
13404TIP3    H161703   4.520   0.351   5.394  0.6383  0.1458 -0.3007
13404TIP3    H261704   4.604   0.410   5.505  0.3284  0.1996 -0.0962
13405TIP3   OH261705   6.321   1.016   1.289 -0.3143  0.4390 -0.6244
13405TIP3    H161706   6.280   0.931   1.272  0.3263 -0.4996  2.2014
13405TIP3    H261707   6.248   1.078   1.287 -1.1145 -0.4843 -0.6478
13406TIP3   OH261708   5.845   6.335   1.141  0.1182  0.7486 -0.0417
13406TIP3    H161709   5.801   6.262   1.185 -2.7350  0.5441 -3.0622
13406TIP3    H261710   5.900   6.292   1.074  1.3385  1.2275  0.6392
13407TIP3   OH261711   5.854   5.558   1.279 -0.8255 -0.2261 -0.2675
13407TIP3    H161712   5.762   5.540   1.260 -0.5870 -1.9771  0.1454
13407TIP3    H261713   5.901   5.479   1.251  0.6630  0.9568 -1.2251
13408TIP3   OH261714   0.045   1.692  14.292  0.1556 -0.7303 -0.2138
13408TIP3    H161715   0.092   1.737  14.362 -0.0888  0.1459 -0.6095
13408TIP3    H261716   0.043   1.600  14.320 -0.1136 -0.3580  1.0255
13409TIP3   OH261717   4.749   6.646   0.167 -0.2593  0.7365  0.4235
13409TIP3    H161718   4.675   6.633   0.227  0.2342  1.0611  1.1065
13409TIP3    H261719   4.735   6.583   0.097  0.7202 -1.7270  2.3852
13410TIP3   OH261720   5.284   5.716   4.284  0.6229  0.4550  0.1936
13410TIP3    H161721   5.252   5.639   4.236  1.2266 -0.6624  1.5496
13410TIP3    H261722   5.218   5.731   4.352  0.5132  1.1293 -0.0610
13411TIP3   OH261723   4.713   4.942  17.052 -0.0417  0.0523 -0.2074
13411TIP3    H161724   4.733   4.958  16.960  0.3934  1.8249  0.1688
13411TIP3    H261725   4.770   5.003  17.099 -2.3131  1.1995  1.1212
13412TIP3   OH261726   5.716   0.231  16.492  0.3533  0.1449  0.0101
13412TIP3    H161727   5.746   0.192  16.410  0.9990  0.7630 -0.0540
13412TIP3    H261728   5.775   0.196  16.559 -1.5111 -2.0615  0.5532
13413TIP3   OH261729   3.213   5.399  11.522  0.1940  0.2458  0.1078
13413TIP3    H161730   3.162   5.388  11.602 -1.7943 -0.6696 -1.2576
13413TIP3    H261731   3.220   5.311  11.486 -0.5167  0.9020 -1.6711
13414TIP3   OH261732   4.524   6.138  12.872  0.5457 -0.0490 -0.2371
13414TIP3    H161733   4.457   6.196  12.909  0.2463 -1.2982  1.2731
13414TIP3    H261734   4.555   6.183  12.794  0.5847  2.2953  1.0858
13415TIP3   OH261735   2.703   4.936   6.708 -0.3279 -0.3132 -0.4080
13415TIP3    H161736   2.749   4.967   6.630 -0.2217  2.4584  0.6920
13415TIP3    H261737   2.610   4.946   6.686 -0.3297 -1.1303 -0.7844
13416TIP3   OH261738   6.764   4.228   6.692 -0.0092  0.7974  0.0756
13416TIP3    H161739   6.855   4.202   6.700  0.0358  0.8785 -0.1624
13416TIP3    H261740   6.739   4.200   6.604 -0.4590  0.0010  0.4523
13417TIP3   OH261741   3.142   5.226  16.196  0.9155  0.3712  0.3792
13417TIP3    H161742   3.047   5.228  16.180  0.4247  1.2105  3.2258
13417TIP3    H261743   3.171   5.314  16.175  0.7633  0.6139  1.1659
13418TIP3   OH261744   3.425   3.196   5.012 -0.0654  0.6015 -0.3143
13418TIP3    H161745   3.455   3.206   4.922 -0.8805 -1.7632 -0.8939
13418TIP3    H261746   3.408   3.102   5.021 -1.0510  0.9608  1.9704
13419TIP3   OH261747   2.488   0.610  15.509 -0.5499  0.0909 -0.3143
13419TIP3    H161748   2.451   0.695  15.488 -0.6356 -0.2937 -1.7458
13419TIP3    H261749   2.428   0.573  15.573  0.6927  2.0353  2.0487
13420TIP3   OH261750   5.664   0.160   2.375  0.7555  0.6090 -0.7214
13420TIP3    H161751   5.697   0.140   2.287  2.2402  1.4559 -0.3956
13420TIP3    H261752   5.599   0.229   2.361 -0.0512 -0.2657 -1.2848
13421TIP3   OH261753   3.641   3.499   0.112  0.3417  0.2678 -0.6632
13421TIP3    H161754   3.562   3.507   0.059 -0.3132  0.5632  0.3492
13421TIP3    H261755   3.660   3.588   0.141  0.6944  0.1065 -0.3875
13422TIP3   OH261756   6.275   5.040  11.497  0.5812 -0.0362  0.1439
13422TIP3    H161757   6.316   5.090  11.567  0.8257 -0.2922  0.1883
13422TIP3    H261758   6.290   5.093  11.418  0.5891  0.0961  0.2357
13423TIP3   OH261759   3.482   4.918   3.495 -0.0190  0.1984 -0.5290
13423TIP3    H161760   3.476   4.825   3.518 -0.8034  0.4448  0.2942
13423TIP3    H261761   3.569   4.945   3.526 -0.4581  0.1462  0.7811
13424TIP3   OH261762   1.844   2.198   0.561  0.6192 -0.2665  0.6983
13424TIP3    H161763   1.886   2.255   0.625 -0.0857  0.5887  0.4270
13424TIP3    H261764   1.847   2.111   0.599  0.9958  0.0945  1.4944
13425TIP3   OH261765   6.428   3.850  15.345  0.3112  0.1352  0.1493
13425TIP3    H161766   6.391   3.769  15.378 -0.5481 -0.0046 -1.1153
13425TIP3    H261767   6.357   3.914  15.351  0.5883  0.4723 -0.0582
13426TIP3   OH261768   4.312   4.489   5.051 -0.4543 -0.7162  0.3728
13426TIP3    H161769   4.243   4.555   5.054 -0.6808 -0.9719  0.8072
13426TIP3    H261770   4.266   4.406   5.063  0.0813 -0.7888  2.1167
13427TIP3   OH261771   1.158   4.490  15.223 -0.1321  0.0542  0.0439
13427TIP3    H161772   1.151   4.446  15.308  0.1055 -1.4037 -0.6785
13427TIP3    H261773   1.244   4.530  15.224  0.2419 -0.7454  0.1269
13428TIP3   OH261774   5.537   2.101   4.116 -0.0362  0.0264 -0.9275
13428TIP3    H161775   5.608   2.047   4.082 -0.1275  0.2290 -1.4443
13428TIP3    H261776   5.544   2.183   4.068 -0.1988  0.2956 -0.4896
13429TIP3   OH261777   3.868   0.671  13.389  0.1717  0.4434 -0.3328
13429TIP3    H161778   3.806   0.653  13.318  0.2505 -0.4860 -0.1724
13429TIP3    H261779   3.824   0.737  13.442  0.0658  1.0667 -1.1789
13430TIP3   OH261780   6.495   2.505  12.036 -0.5055  0.2890  0.7404
13430TIP3    H161781   6.508   2.554  11.955 -0.2502 -0.5980  0.2428
13430TIP3    H261782   6.468   2.571  12.100  1.4465  1.3407  0.5032
13431TIP3   OH261783   1.964   6.476  12.992 -0.0390 -0.2219  0.1614
13431TIP3    H161784   2.038   6.527  13.024 -1.0238  1.9099 -0.7859
13431TIP3    H261785   1.990   6.449  12.904  0.2838 -0.8972  0.4685
13432TIP3   OH261786   2.300   6.401  13.964  0.2398  0.4038  0.1655
13432TIP3    H161787   2.278   6.493  13.954 -2.6024 -0.3345 -0.6454
13432TIP3    H261788   2.216   6.356  13.976  1.5335 -2.1281  0.1977
13433TIP3   OH261789   2.715   1.399  14.657  0.7024 -0.3880 -0.4818
13433TIP3    H161790   2.759   1.389  14.573 -1.6278  0.3856 -1.8453
13433TIP3    H261791   2.736   1.489  14.684  0.9462 -0.4266 -0.5414
13434TIP3   OH261792   1.583   0.876  13.140 -0.0471  0.2621 -0.1590
13434TIP3    H161793   1.674   0.853  13.123 -0.4588 -0.6240 -1.2473
13434TIP3    H261794   1.546   0.891  13.053 -1.0991 -0.0143  0.2365
13435TIP3   OH261795   0.082   0.662   1.944  0.1729 -0.0002 -0.4500
13435TIP3    H161796   0.025   0.726   1.986 -0.3582 -0.5629 -0.2921
13435TIP3    H261797   0.170   0.700   1.948 -0.0090  0.3391  0.3914
13436TIP3   OH261798   0.356   4.813   3.605 -0.4127  0.0896  0.0235
13436TIP3    H161799   0.293   4.881   3.627  0.6590  0.3144  2.6659
13436TIP3    H261800   0.431   4.860   3.570 -1.1474 -0.0651 -1.7870
13437TIP3   OH261801   0.048   1.124   0.247  0.3104 -0.3039 -0.2790
13437TIP3    H161802  -0.003   1.062   0.299  1.8671 -1.7384 -0.4033
13437TIP3    H261803  -0.016   1.167   0.191 -0.5424 -3.3777 -1.7759
13438TIP3   OH261804   3.790   3.062   0.257  0.4295  0.5623  0.4249
13438TIP3    H161805   3.790   3.139   0.201  1.6271  0.8037  0.7393
13438TIP3    H261806   3.847   3.000   0.212 -0.7243 -0.2510  0.0457
13439TIP3   OH261807   1.737   6.459  13.300 -0.1525  0.3597 -0.2127
13439TIP3    H161808   1.809   6.518  13.275 -0.5428  0.9848  0.1236
13439TIP3    H261809   1.712   6.488  13.388  1.0505 -1.6750  0.8305
13440TIP3   OH261810   2.877   4.396   0.202  0.1871 -0.0266 -0.8401
13440TIP3    H161811   2.973   4.402   0.204  0.1339  3.3607 -3.6805
13440TIP3    H261812   2.848   4.439   0.283  1.0307 -0.5540 -0.2509
13441TIP3   OH261813   2.885   4.328   2.206 -0.4523  0.6041  0.0254
13441TIP3    H161814   2.978   4.312   2.225 -0.9308 -0.1889  1.7654
13441TIP3    H261815   2.838   4.286   2.278 -2.1588  1.3524 -0.6291
13442TIP3   OH261816   6.270   2.905   3.805  0.0338 -0.7336  0.1468
13442TIP3    H161817   6.180   2.872   3.806 -0.4964  0.6317 -1.1309
13442TIP3    H261818   6.310   2.861   3.729  0.1213 -0.4832  0.0502
13443TIP3   OH261819   6.596   2.876   0.049  0.1372  0.1356  0.4794
13443TIP3    H161820   6.662   2.821   0.006 -0.5963  1.9002 -3.0631
13443TIP3    H261821   6.647   2.935   0.104  1.2186 -1.1994  0.9589
13444TIP3   OH261822   3.387   2.209   3.935  0.0851  0.1101 -0.4070
13444TIP3    H161823   3.456   2.144   3.928 -0.5592 -0.5758 -0.4813
13444TIP3    H261824   3.397   2.246   4.022  0.5075 -0.0270 -0.3950
13445TIP3   OH261825   1.432   3.620  13.997  0.5168 -0.4102  0.3600
13445TIP3    H161826   1.360   3.590  14.053 -1.8990 -0.0135 -2.4380
13445TIP3    H261827   1.468   3.540  13.959 -0.3756 -0.3948 -0.5189
13446TIP3   OH261828   0.794   3.373  15.360  0.0399 -0.3373 -0.3200
13446TIP3    H161829   0.739   3.444  15.394 -0.6047 -1.6511  1.5174
13446TIP3    H261830   0.841   3.341  15.437  0.6013 -1.6467 -1.1964
13447TIP3   OH261831   4.402   6.329   0.289 -0.0125  0.2739 -0.0900
13447TIP3    H161832   4.361   6.413   0.304  1.0734  0.9155 -0.5951
13447TIP3    H261833   4.333   6.264   0.303 -1.4312  1.3691 -1.9090
13448TIP3   OH261834   4.695   0.785  14.153 -0.0372 -0.2307 -0.0335
13448TIP3    H161835   4.643   0.863  14.134  0.5048  0.8700  2.7222
13448TIP3    H261836   4.761   0.782  14.084  0.3906  2.1746  0.2425
13449TIP3   OH261837   4.019   0.361   5.891  0.3623  0.1816 -0.1175
13449TIP3    H161838   3.980   0.296   5.833  0.6217  0.0810 -0.1763
13449TIP3    H261839   4.028   0.316   5.975  1.3415 -0.1240 -0.3891
13450TIP3   OH261840   5.253   1.233  15.400  0.6534 -0.3376 -0.3466
13450TIP3    H161841   5.259   1.280  15.317  0.7467 -0.6585 -0.5205
13450TIP3    H261842   5.230   1.301  15.464 -0.2277 -0.2299 -0.7696
13451TIP3   OH261843   2.766   3.212  12.469  0.0093 -0.2754  0.2747
13451TIP3    H161844   2.727   3.164  12.543 -1.5145  0.7016  0.1420
13451TIP3    H261845   2.774   3.302  12.502 -1.8881  0.4463 -1.1664
13452TIP3   OH261846   3.348   4.229  14.918  0.4299  0.2529 -0.2194
13452TIP3    H161847   3.258   4.200  14.932  0.5853  0.3095  0.9775
13452TIP3    H261848   3.343   4.286  14.841 -0.2608 -1.0998 -1.2075
13453TIP3   OH261849   4.513   1.724   3.851  0.5723  0.0753 -0.2307
13453TIP3    H161850   4.558   1.663   3.793  0.1099  0.6704 -1.2368
13453TIP3    H261851   4.461   1.669   3.909  0.2646 -0.4950 -1.0453
13454TIP3   OH261852   6.189   4.639  15.857 -0.3753  0.1555  0.5962
13454TIP3    H161853   6.197   4.550  15.823  0.9220  0.5941 -0.2771
13454TIP3    H261854   6.173   4.627  15.950 -0.5875 -0.9997  0.4284
13455TIP3   OH261855   5.639   3.292   5.878  0.2926  0.0826 -0.1627
13455TIP3    H161856   5.546   3.294   5.856  0.6737 -0.9258 -2.0426
13455TIP3    H261857   5.680   3.347   5.811  1.1097 -0.0668  0.2066
13456TIP3   OH261858   0.551   4.286  13.364 -0.1768  0.3286  0.0485
13456TIP3    H161859   0.573   4.364  13.415  1.2989  1.5778 -2.3845
13456TIP3    H261860   0.476   4.312  13.311  1.1169  0.5557 -1.7163
13457TIP3   OH261861   1.765   0.625   1.063 -0.3207  0.4921  0.2312
13457TIP3    H161862   1.685   0.579   1.088  1.0169  0.0818  4.1104
13457TIP3    H261863   1.795   0.581   0.984 -1.6287 -2.1796  1.1799
13458TIP3   OH261864   5.406   4.570  15.477 -0.0128 -0.4709 -0.0643
13458TIP3    H161865   5.444   4.551  15.563  1.6218  2.7744 -0.0107
13458TIP3    H261866   5.481   4.572  15.418 -1.0152 -1.6285 -1.4115
13459TIP3   OH261867   0.731   2.209   5.045 -0.3553 -0.3637  0.4505
13459TIP3    H161868   0.811   2.249   5.010  1.6872 -4.8755 -0.4053
13459TIP3    H261869   0.726   2.241   5.135  2.6633 -0.2861  0.6534
13460TIP3   OH261870   2.145   3.505   5.385  0.1913  0.3196  0.0009
13460TIP3    H161871   2.057   3.494   5.350 -0.2118  0.2338  1.0003
13460TIP3    H261872   2.137   3.480   5.477  1.2400  0.4018  0.1239
13461TIP3   OH261873   4.562   4.409  15.416  0.2867  0.1892  0.8383
13461TIP3    H161874   4.628   4.408  15.346  0.0804 -1.2909  0.6623
13461TIP3    H261875   4.602   4.463  15.485  0.3828  1.8792 -0.5135
13462TIP3   OH261876   3.910   4.922   1.470  0.0242  0.3276  0.3564
13462TIP3    H161877   3.845   4.868   1.514  1.2354 -2.3883 -1.1082
13462TIP3    H261878   3.859   4.980   1.414 -1.1426 -2.2237 -1.2754
13463TIP3   OH261879   2.885   5.766   3.279 -0.0238 -0.0785  0.3939
13463TIP3    H161880   2.950   5.696   3.273 -0.4095 -0.5512  1.6914
13463TIP3    H261881   2.928   5.841   3.237  1.4992 -0.2853  1.5340
13464TIP3   OH261882   4.236   1.000  15.819  0.0873 -0.0375 -0.6494
13464TIP3    H161883   4.303   1.066  15.837 -2.4191  2.0051  1.6948
13464TIP3    H261884   4.185   1.038  15.747  0.2563 -0.7040 -1.1265
13465TIP3   OH261885   0.546   2.651   1.410  0.5353 -0.0973  0.3382
13465TIP3    H161886   0.601   2.726   1.390  0.4483 -0.1340 -0.0376
13465TIP3    H261887   0.526   2.612   1.325 -0.5030  0.2205  0.4343
13466TIP3   OH261888   6.112   6.717  13.363  0.0232 -0.5702 -0.0351
13466TIP3    H161889   6.184   6.675  13.411  1.1960  0.9817 -0.3976
13466TIP3    H261890   6.155   6.765  13.292 -1.3720  0.3925 -0.2517
13467TIP3   OH261891   2.903   2.134  12.186 -0.6603  0.0541  0.5485
13467TIP3    H161892   2.958   2.156  12.111 -1.8652  1.2326  0.0000
13467TIP3    H261893   2.936   2.187  12.258 -1.8102  1.6511 -0.0801
13468TIP3   OH261894   0.688   4.006   1.974 -0.1188  0.7154  0.3465
13468TIP3    H161895   0.780   3.989   1.955 -0.2758  1.3195 -1.0178
13468TIP3    H261896   0.641   3.961   1.903 -0.7391  2.9914 -0.7119
13469TIP3   OH261897   3.993   6.433  13.272  0.3157 -0.2584  0.7976
13469TIP3    H161898   3.975   6.525  13.256  0.6214 -0.4586 -0.8198
13469TIP3    H261899   4.088   6.427  13.279  0.4288 -0.6571 -0.7172
13470TIP3   OH261900   4.121   4.490   5.795 -0.7729 -0.0599 -0.2586
13470TIP3    H161901   4.210   4.458   5.806 -0.0917  2.7858  3.2854
13470TIP3    H261902   4.079   4.476   5.880 -2.4835  2.1044 -0.6878
13471TIP3   OH261903   0.194   6.653  16.702  0.1527  0.0467  0.5421
13471TIP3    H161904   0.125   6.638  16.767 -0.8129  0.1622 -0.4381
13471TIP3    H261905   0.150   6.640  16.617  1.2992  0.2789 -0.0978
13472TIP3   OH261906   4.286   3.452   6.173  0.2641 -0.5912 -0.5808
13472TIP3    H161907   4.289   3.510   6.249 -1.0275 -0.1887 -0.8242
13472TIP3    H261908   4.370   3.406   6.174  1.1934  1.0822 -0.2221
13473TIP3   OH261909   4.165   0.294   5.119 -0.1921 -0.1489 -0.5379
13473TIP3    H161910   4.125   0.295   5.033 -1.5841  1.6121  0.0834
13473TIP3    H261911   4.103   0.249   5.175 -0.3050  0.6101 -0.0304
13474TIP3   OH261912   6.163   4.462   1.275 -0.3164  0.5274  0.2112
13474TIP3    H161913   6.173   4.495   1.185  0.3522  0.1167  0.1363
13474TIP3    H261914   6.111   4.383   1.265  3.1354 -1.7621 -0.2671
13475TIP3   OH261915   0.693   4.494  13.544  0.4903 -0.2495 -0.0883
13475TIP3    H161916   0.778   4.455  13.524  0.6212 -0.5262  0.9813
13475TIP3    H261917   0.682   4.563  13.479  2.0784  0.5582  0.4806
13476TIP3   OH261918   3.420   3.789   3.125  0.1270 -0.2648 -0.2159
13476TIP3    H161919   3.502   3.796   3.174 -0.2665  0.8090  0.3118
13476TIP3    H261920   3.379   3.875   3.133 -3.1953 -1.9835  3.3216
13477TIP3   OH261921   0.596   4.716   4.988 -0.1068 -0.2501 -0.0618
13477TIP3    H161922   0.507   4.680   4.988 -0.0156 -0.5300 -2.0966
13477TIP3    H261923   0.652   4.639   4.991  0.0696 -0.1161  0.0371
13478TIP3   OH261924   0.404   1.519   4.452 -0.4559  0.2863  1.5291
13478TIP3    H161925   0.426   1.434   4.414 -2.2252 -0.5394  2.3172
13478TIP3    H261926   0.464   1.527   4.527  1.2758  0.7825  0.1327
13479TIP3   OH261927   5.104   3.674  15.881 -0.3301  0.6898 -0.0045
13479TIP3    H161928   5.188   3.646  15.916  0.0241  1.6803 -0.0404
13479TIP3    H261929   5.039   3.640  15.942  0.3178  3.2160  2.1898
13480TIP3   OH261930   4.531   6.602  16.947  0.0652  0.5692 -0.1150
13480TIP3    H161931   4.462   6.637  17.004 -0.0485  0.6458 -0.3017
13480TIP3    H261932   4.528   6.658  16.869  0.4555  0.6865 -0.0448
13481TIP3   OH261933   0.429   3.366  12.329  0.0800  0.3307 -0.4381
13481TIP3    H161934   0.451   3.456  12.354  0.2338  0.8198 -2.2913
13481TIP3    H261935   0.364   3.375  12.260 -1.3313 -1.0312  0.6594
13482TIP3   OH261936   1.859   1.207  11.678  0.3545  0.0095 -0.1377
13482TIP3    H161937   1.945   1.244  11.657 -0.7055  0.7620 -3.4640
13482TIP3    H261938   1.857   1.124  11.631 -0.4536 -0.3861  0.5762
13483TIP3   OH261939   2.409   3.232  14.715 -0.1575 -0.2343 -0.6400
13483TIP3    H161940   2.425   3.290  14.790  1.1235 -0.9082 -0.3720
13483TIP3    H261941   2.317   3.247  14.692  0.2926  2.2701 -0.8981
13484TIP3   OH261942   3.279   6.367  17.164  0.0695 -0.0286  0.0637
13484TIP3    H161943   3.232   6.411  17.093  0.9531 -0.7993 -1.0085
13484TIP3    H261944   3.363   6.413  17.169 -0.4103  0.7244  1.3391
13485TIP3   OH261945   2.263   1.283  16.304  0.5023  0.1119 -0.0142
13485TIP3    H161946   2.278   1.290  16.398  1.5802  0.6520 -0.2181
13485TIP3    H261947   2.232   1.193  16.291 -0.0434  0.1623  0.9027
13486TIP3   OH261948   2.265   5.452  14.308 -0.3009 -0.1218 -0.4295
13486TIP3    H161949   2.325   5.406  14.367 -1.9510 -2.5118 -0.5426
13486TIP3    H261950   2.306   5.445  14.222  1.1821  1.7335  0.0942
13487TIP3   OH261951   3.873   5.471  15.645  0.2718  0.4162 -0.2568
13487TIP3    H161952   3.871   5.383  15.609 -0.0595  0.1160  0.4817
13487TIP3    H261953   3.898   5.459  15.737  1.4625  1.1943 -0.4635
13488TIP3   OH261954   0.903   5.111  16.776 -0.4682 -0.5261 -0.3468
13488TIP3    H161955   0.831   5.048  16.773 -2.4261  1.5728  1.0668
13488TIP3    H261956   0.881   5.177  16.710  0.4148 -0.1287 -0.2606
13489TIP3   OH261957   6.018   5.767  10.712  0.3978  0.0157 -0.1332
13489TIP3    H161958   5.953   5.756  10.642 -0.4301  0.5603  0.5498
13489TIP3    H261959   6.091   5.813  10.670  0.0082  0.1267 -0.6920
13490TIP3   OH261960   1.892   0.296   1.360  0.3182  0.7120  0.3658
13490TIP3    H161961   1.801   0.270   1.347  0.1547  2.0421 -1.2612
13490TIP3    H261962   1.927   0.232   1.422 -0.7405 -1.8852 -1.6497
13491TIP3   OH261963   3.256   1.850  13.373 -0.4590  0.1005  0.4511
13491TIP3    H161964   3.161   1.862  13.364 -0.6512 -0.7746  1.1636
13491TIP3    H261965   3.294   1.930  13.338 -1.4161 -0.1303 -1.1806
13492TIP3   OH261966   5.981   3.092   4.281 -0.2159 -0.8859 -0.1523
13492TIP3    H161967   5.897   3.107   4.324 -1.1336 -1.5546 -1.6399
13492TIP3    H261968   5.975   3.002   4.249 -0.2067  0.0744 -2.9952
13493TIP3   OH261969   5.382   0.128   4.565  0.4306  0.3793 -0.3520
13493TIP3    H161970   5.421   0.045   4.593  0.0166  0.6085  0.9130
13493TIP3    H261971   5.451   0.193   4.580 -0.2672  0.7225  1.5150
13494TIP3   OH261972   5.064   0.555   4.716 -0.3003  0.6198 -0.6745
13494TIP3    H161973   5.075   0.640   4.760 -0.7457  0.3956 -0.1231
13494TIP3    H261974   5.136   0.501   4.751 -0.7717  0.3805 -0.0663
13495TIP3   OH261975   6.212   6.630   5.009  0.2297  0.1312 -0.1877
13495TIP3    H161976   6.124   6.635   4.973  0.8891  0.9946 -1.7270
13495TIP3    H261977   6.255   6.710   4.979  1.8979 -0.8367 -0.4528
13496TIP3   OH261978   0.790   5.107  14.831 -0.7264  0.2057 -0.5558
13496TIP3    H161979   0.768   5.016  14.849 -2.8203  0.5317 -1.2637
13496TIP3    H261980   0.768   5.120  14.739  1.4454  0.9193 -1.0080
13497TIP3   OH261981   4.354   2.233   4.788  0.1688  0.2415  0.5831
13497TIP3    H161982   4.325   2.159   4.841 -0.0252  0.6604  1.0658
13497TIP3    H261983   4.279   2.255   4.733 -0.2748  0.9984  1.4686
13498TIP3   OH261984   3.257   2.121  14.817  0.1777  0.2041  0.1095
13498TIP3    H161985   3.298   2.038  14.840 -0.5773 -0.4648 -0.9710
13498TIP3    H261986   3.304   2.151  14.739  0.3529  0.7281  0.4107
13499TIP3   OH261987   4.134   2.768  15.468 -0.2279  0.2564 -0.0927
13499TIP3    H161988   4.103   2.681  15.494 -0.1130  0.5394  1.0175
13499TIP3    H261989   4.230   2.759  15.467 -0.1834  0.5853  0.8161
13500TIP3   OH261990   2.248   0.760   3.864 -0.1745  0.2705 -0.0842
13500TIP3    H161991   2.278   0.823   3.930  0.5603  1.5737 -1.6368
13500TIP3    H261992   2.191   0.810   3.806 -2.4555 -1.3395  0.6928
13501TIP3   OH261993   2.255   1.461   2.996  0.1231  0.2698  0.8047
13501TIP3    H161994   2.303   1.509   3.064  1.6515 -0.4328  0.2405
13501TIP3    H261995   2.201   1.527   2.954  0.2807  0.9999  1.7177
13502TIP3   OH261996   6.638   0.137   1.031  0.0975  0.1412  0.2990
13502TIP3    H161997   6.650   0.048   1.063 -0.4678  0.4729  1.4371
13502TIP3    H261998   6.596   0.184   1.103 -0.2548  1.1534 -0.5431
13503TIP3   OH261999   2.800   6.335   5.519 -0.2586 -0.0587 -0.1170
13503TIP3    H162000   2.895   6.330   5.524 -0.0174  4.3142  1.6517
13503TIP3    H262001   2.781   6.365   5.430 -0.0759 -1.6735 -0.7176
13504TIP3   OH262002   4.826   4.516   4.562  0.1204 -0.5266 -0.1246
13504TIP3    H162003   4.851   4.444   4.504 -0.0424 -0.1598 -0.6627
13504TIP3    H262004   4.779   4.577   4.504  1.8916  0.8988 -0.1086
13505TIP3   OH262005   1.200   1.916  15.217  0.1550  0.4473  0.2627
13505TIP3    H162006   1.159   1.970  15.150  1.2032  0.8430 -0.0758
13505TIP3    H262007   1.127   1.875  15.263 -0.5758  0.1094 -1.1642
13506TIP3   OH262008   0.359   4.084  15.497 -0.1969  0.4652 -0.3753
13506TIP3    H162009   0.285   4.144  15.500 -0.6298 -0.0320 -0.9185
13506TIP3    H262010   0.409   4.103  15.576 -0.1821  1.7217 -0.6812
13507TIP3   OH262011   3.904   5.936   4.073 -0.2570  0.0942  0.3840
13507TIP3    H162012   3.877   5.997   4.142 -2.3196 -0.9069  0.4890
13507TIP3    H262013   3.875   5.978   3.991 -3.8565 -1.7534  0.5982
13508TIP3   OH262014   2.217   0.492  12.707 -0.1533  0.0165  0.7020
13508TIP3    H162015   2.147   0.529  12.654  1.0888  0.1642 -0.8805
13508TIP3    H262016   2.235   0.559  12.774  0.1813  1.0551 -0.4191
13509TIP3   OH262017   0.609   6.116  10.817 -0.1870  0.2367  0.3213
13509TIP3    H162018   0.683   6.120  10.756 -0.5531  0.9425 -0.0889
13509TIP3    H262019   0.626   6.039  10.870 -1.1447 -1.8817 -2.3360
13510TIP3   OH262020   4.151   3.339   0.145  0.5625  0.4777 -0.5026
13510TIP3    H162021   4.181   3.429   0.137 -1.3285  1.0714 -1.2819
13510TIP3    H262022   4.104   3.322   0.063  0.9006 -1.2135 -0.3607
13511TIP3   OH262023   2.290   3.132   1.780  0.6016  0.2999 -0.0926
13511TIP3    H162024   2.299   3.107   1.872 -2.5032  0.2958  0.2563
13511TIP3    H262025   2.275   3.049   1.734  1.4363  0.3761 -0.5082
13512TIP3   OH262026   0.847   5.675  14.320 -0.2190  0.2992  0.5520
13512TIP3    H162027   0.916   5.717  14.370 -0.4820  0.7133  0.5729
13512TIP3    H262028   0.793   5.748  14.288 -0.4919 -0.0036  0.3174
13513TIP3   OH262029   0.088   2.131   0.111 -0.5339 -0.0707  0.3384
13513TIP3    H162030   0.176   2.108   0.083  0.1089  2.5524  0.0732
13513TIP3    H262031   0.046   2.165   0.032 -0.2392  2.9775  1.4050
13514TIP3   OH262032   1.713   1.299   1.751  0.3081 -0.3466  0.7282
13514TIP3    H162033   1.726   1.305   1.656  0.9964  0.4899  0.8659
13514TIP3    H262034   1.772   1.366   1.787 -1.9600  1.2443  1.5877
13515TIP3   OH262035   1.193   2.804   5.808 -0.2539  0.4583  0.5918
13515TIP3    H162036   1.253   2.732   5.787 -1.7264 -0.6691  0.1207
13515TIP3    H262037   1.153   2.779   5.891 -2.0079 -0.1311 -0.3890
13516TIP3   OH262038   5.157   2.618  14.293 -0.2347 -0.2647  0.6883
13516TIP3    H162039   5.138   2.583  14.380  0.1695 -1.8028  0.1698
13516TIP3    H262040   5.173   2.541  14.239  3.9163  0.7683  0.2674
13517TIP3   OH262041   2.739   1.022   3.335  0.2229 -0.5728  0.5453
13517TIP3    H162042   2.653   1.006   3.296  1.4329 -0.5150 -2.3235
13517TIP3    H262043   2.794   0.953   3.300  1.5720 -0.0299  1.5686
13518TIP3   OH262044   1.944   3.129   1.159  0.4865  0.4461 -0.2032
13518TIP3    H162045   1.851   3.145   1.143  0.6771 -1.0683 -3.2733
13518TIP3    H262046   1.982   3.122   1.071  3.2232 -0.5074  1.0050
13519TIP3   OH262047   0.756   0.643  13.105  0.3858  0.4755 -0.2248
13519TIP3    H162048   0.782   0.734  13.091 -0.7217  1.0885  1.5408
13519TIP3    H262049   0.802   0.616  13.185  0.4006 -0.4090 -0.5176
13520TIP3   OH262050   4.454   1.928   3.455 -0.6672  0.9000  0.2831
13520TIP3    H162051   4.507   1.858   3.414  0.2908  0.6843  1.8606
13520TIP3    H262052   4.364   1.895   3.450 -0.0844 -1.1483  2.3115
13521TIP3   OH262053   2.167   3.940  16.508 -0.2320 -0.2140  0.2576
13521TIP3    H162054   2.211   3.878  16.450 -1.8945 -1.5242  0.3536
13521TIP3    H262055   2.088   3.966  16.460  0.9142  2.5774 -0.1860
13522TIP3   OH262056   1.686   2.024  11.947 -0.3268 -0.3545 -0.6713
13522TIP3    H162057   1.607   2.015  11.893 -0.7742 -2.2238  0.2560
13522TIP3    H262058   1.654   2.059  12.030  0.2191  1.4754 -1.1946
13523TIP3   OH262059   4.375   4.746   3.994  0.1434  0.6383 -0.6498
13523TIP3    H162060   4.307   4.811   3.984 -0.3215  0.0438 -1.4243
13523TIP3    H262061   4.457   4.795   3.992 -0.1590  1.0784 -2.3413
13524TIP3   OH262062   5.220   4.897   6.529  0.0153  0.2098 -0.1272
13524TIP3    H162063   5.302   4.945   6.519  0.3071  0.0974  1.6221
13524TIP3    H262064   5.242   4.823   6.586 -0.6105 -1.5822 -2.1129
13525TIP3   OH262065   1.125   5.323  11.026 -0.4012  0.7111 -0.1716
13525TIP3    H162066   1.057   5.275  10.979  0.4956 -0.6354 -0.1150
13525TIP3    H262067   1.116   5.413  10.994  0.3436 -0.2072 -3.1443
13526TIP3   OH262068   2.258   6.769   2.481  0.1769  0.5298 -0.4523
13526TIP3    H162069   2.168   6.778   2.449 -0.5622  1.1236  1.6951
13526TIP3    H262070   2.287   6.685   2.447 -1.8268 -0.5137  0.3500
13527TIP3   OH262071   4.263   3.423  14.937 -0.0052  0.1225  0.5966
13527TIP3    H162072   4.305   3.389  15.016  0.0184 -2.2739 -0.4342
13527TIP3    H262073   4.174   3.387  14.939 -0.5209  1.3503  0.3409
13528TIP3   OH262074   4.134   3.771   5.159  0.6638 -0.0315  0.1267
13528TIP3    H162075   4.198   3.763   5.088  0.7239  0.6377  0.1048
13528TIP3    H262076   4.116   3.681   5.184 -0.4116 -0.3583 -1.6874
13529TIP3   OH262077   5.925   0.835   0.225  0.5058 -0.0313  0.6326
13529TIP3    H162078   5.877   0.840   0.308 -1.3119 -0.7436 -0.3410
13529TIP3    H262079   6.015   0.817   0.251 -0.1913 -1.1272  2.4423
13530TIP3   OH262080   1.575   0.572   6.396 -0.0158 -0.5876 -0.7129
13530TIP3    H162081   1.531   0.657   6.382  0.2528  0.0323  1.9161
13530TIP3    H262082   1.668   0.591   6.383  0.1405 -0.2329  0.8566
13531TIP3   OH262083   3.248   1.506   1.768 -0.4266 -0.3739 -0.0551
13531TIP3    H162084   3.260   1.458   1.686  1.3219 -1.6050  0.8913
13531TIP3    H262085   3.308   1.580   1.762 -0.2723 -0.4831  0.1091
13532TIP3   OH262086   4.124   6.127  13.648 -0.7215 -0.0292 -0.0766
13532TIP3    H162087   4.112   6.036  13.620  0.3541 -0.2973  0.3087
13532TIP3    H262088   4.066   6.137  13.723 -1.4528 -0.1520 -0.6148
13533TIP3   OH262089   5.593   0.773   1.882 -0.1931 -0.0897  0.5535
13533TIP3    H162090   5.648   0.714   1.934 -2.0849 -1.6286  0.8824
13533TIP3    H262091   5.526   0.804   1.944 -1.9433 -1.2340 -0.7142
13534TIP3   OH262092   3.645   2.070  16.327 -0.3987 -0.5463 -0.3990
13534TIP3    H162093   3.716   2.122  16.288 -0.7468 -1.0014 -1.6880
13534TIP3    H262094   3.649   1.986  16.280 -1.3771 -0.8034 -0.0260
13535TIP3   OH262095   5.861   2.289   2.518  0.2711 -0.2410  0.0161
13535TIP3    H162096   5.917   2.217   2.490  1.4612  0.2079  1.1708
13535TIP3    H262097   5.887   2.306   2.608  0.1859  1.7800 -0.3081
13536TIP3   OH262098   1.016   3.224  15.933 -0.6340 -0.2863  1.1510
13536TIP3    H162099   1.061   3.296  15.891 -1.0188 -0.5396  0.2859
13536TIP3    H262100   0.976   3.262  16.012  0.2852  0.1355  1.4089
13537TIP3   OH262101   0.244   2.913   1.813 -0.0334 -0.7710 -0.4157
13537TIP3    H162102   0.186   2.898   1.888 -0.6291  1.1427 -0.4704
13537TIP3    H262103   0.325   2.946   1.852 -0.9114  1.7741 -0.7127
13538TIP3   OH262104   4.737   0.538   1.729  0.3763  0.4992  0.0370
13538TIP3    H162105   4.809   0.475   1.732  0.3771  0.4595 -0.8901
13538TIP3    H262106   4.667   0.497   1.780  0.9654  0.4923  0.8647
13539TIP3   OH262107   5.198   6.030  14.509  0.3550  0.7294 -0.3079
13539TIP3    H162108   5.242   6.045  14.425 -1.2839 -1.0565 -1.5163
13539TIP3    H262109   5.108   6.060  14.494 -0.1507 -0.3377  0.5591
13540TIP3   OH262110   2.320   0.318   0.106 -0.0220  0.1734 -0.2050
13540TIP3    H162111   2.257   0.295   0.038 -0.4386 -0.1669  0.2886
13540TIP3    H262112   2.291   0.269   0.183 -0.3308  1.5721  0.5839
13541TIP3   OH262113   3.706   1.825   5.288 -0.0795 -0.0362 -0.2856
13541TIP3    H162114   3.786   1.773   5.296 -0.4078 -0.4833  0.0400
13541TIP3    H262115   3.635   1.761   5.286 -0.4565  0.3786 -0.2337
13542TIP3   OH262116   4.024   0.903  12.670  0.3372  0.0612 -0.1836
13542TIP3    H162117   4.100   0.951  12.702  0.0221 -0.0616  0.7716
13542TIP3    H262118   4.006   0.838  12.738 -1.9596  1.5301  0.6860
13543TIP3   OH262119   2.932   4.767   4.171 -0.6756  0.2875  0.2238
13543TIP3    H162120   2.969   4.818   4.243 -1.1886  4.0586 -2.0249
13543TIP3    H262121   2.837   4.773   4.184 -0.7399 -0.3102  0.0583
13544TIP3   OH262122   5.698   4.332   1.512 -0.4045 -0.8636  0.0318
13544TIP3    H162123   5.642   4.307   1.586  0.8780  2.1103  2.1133
13544TIP3    H262124   5.640   4.382   1.455 -0.0575  1.9601  2.0387
13545TIP3   OH262125   3.626   2.048   5.168 -0.1565 -0.2707 -0.2497
13545TIP3    H162126   3.539   2.011   5.150 -0.2375  0.3565 -1.1510
13545TIP3    H262127   3.679   1.972   5.195 -0.0243 -1.2707 -3.1459
13546TIP3   OH262128   1.133   5.109   6.683 -0.2304  0.2965  0.0488
13546TIP3    H162129   1.173   5.024   6.702 -1.3307  0.0141  1.1236
13546TIP3    H262130   1.179   5.140   6.605  2.2865  0.0968  1.3973
13547TIP3   OH262131   3.077   2.854  10.645  0.3915 -0.1892 -0.4258
13547TIP3    H162132   3.025   2.904  10.582  0.4258  0.2358 -0.1164
13547TIP3    H262133   3.109   2.920  10.707  2.5620 -0.2014 -1.4650
13548TIP3   OH262134   2.899   6.311   4.078 -0.4505  0.0966 -0.2800
13548TIP3    H162135   2.892   6.340   3.987  2.6164  0.4493 -0.4508
13548TIP3    H262136   2.932   6.388   4.125  0.4126 -0.8184  0.6441
13549TIP3   OH262137   6.405   2.102  15.434  0.1079 -0.1740  0.2837
13549TIP3    H162138   6.351   2.069  15.506  0.2864  1.4727  1.2043
13549TIP3    H262139   6.342   2.133  15.369 -0.0562  0.1233  0.5827
13550TIP3   OH262140   3.516   5.655   1.730 -0.1404 -0.2384  0.1709
13550TIP3    H162141   3.558   5.697   1.806 -1.4859  1.0298  0.2271
13550TIP3    H262142   3.561   5.693   1.655 -1.0211  0.9810  0.2398
13551TIP3   OH262143   4.519   6.356   6.029 -0.1957 -0.7234 -0.1376
13551TIP3    H162144   4.425   6.358   6.011 -0.1082 -1.8177 -0.7251
13551TIP3    H262145   4.542   6.448   6.043 -1.3493 -0.4464  0.0218
13552TIP3   OH262146   1.323   5.012  17.252  0.6425  0.2608 -0.2706
13552TIP3    H162147   1.311   4.983  17.343  1.9936 -0.1562 -0.2059
13552TIP3    H262148   1.260   5.083  17.241 -0.9268 -1.0132  0.3748
13553TIP3   OH262149   4.750   1.214  14.439 -0.3455 -0.3350  0.3150
13553TIP3    H162150   4.764   1.163  14.359  0.2169 -0.1491  0.2983
13553TIP3    H262151   4.674   1.173  14.480 -0.2861 -0.7852 -0.0246
13554TIP3   OH262152   3.418   0.090  15.567  0.2240 -0.4409  0.4256
13554TIP3    H162153   3.434   0.061  15.656  0.7869  1.1498  0.8697
13554TIP3    H262154   3.323   0.102  15.562  0.1863 -0.6015  0.7917
13555TIP3   OH262155   2.105   1.538   4.470 -0.7009 -0.0964  0.2910
13555TIP3    H162156   2.140   1.471   4.412  1.3675 -0.2342  1.6505
13555TIP3    H262157   2.180   1.570   4.519 -2.7060 -1.7377  4.6775
13556TIP3   OH262158   0.444   5.823  11.536  0.0404  0.7871  0.1395
13556TIP3    H162159   0.416   5.744  11.581  1.3753  0.7301  0.9039
13556TIP3    H262160   0.372   5.884  11.547  0.1939  0.6508  2.0836
13557TIP3   OH262161   6.348   4.216   0.679  0.3302 -0.1661 -0.4044
13557TIP3    H162162   6.271   4.233   0.624 -1.2618  0.5249  1.9360
13557TIP3    H262163   6.312   4.202   0.767  2.9526  0.8499  0.8849
13558TIP3   OH262164   1.871   5.921   1.826 -0.8282  0.2282  0.1211
13558TIP3    H162165   1.855   6.016   1.820  0.5627  0.4152 -1.1634
13558TIP3    H262166   1.842   5.897   1.913 -1.2694  1.8469  0.4372
13559TIP3   OH262167   1.569   5.392  13.568  0.1108 -0.6136  0.3474
13559TIP3    H162168   1.535   5.481  13.554  0.2709 -0.5963  0.0682
13559TIP3    H262169   1.661   5.398  13.544  0.2829 -0.6951  0.9776
13560TIP3   OH262170   0.460   3.452  16.694  0.7294 -0.4072 -0.3366
13560TIP3    H162171   0.406   3.504  16.634  0.6911 -0.1848 -0.1080
13560TIP3    H262172   0.396   3.398  16.741  0.6324  0.4542  0.5259
13561TIP3   OH262173   1.402   4.105   0.668  0.6480 -0.2084  0.2680
13561TIP3    H162174   1.354   4.159   0.731 -0.4144 -0.2150 -0.5222
13561TIP3    H262175   1.486   4.150   0.657 -0.2201  1.3108 -0.3882
13562TIP3   OH262176   3.219   0.875  12.550  0.2085  0.3850  0.0729
13562TIP3    H162177   3.291   0.897  12.491  0.1200  0.5185  0.0143
13562TIP3    H262178   3.192   0.958  12.588 -1.2817  0.6416 -1.4865
13563TIP3   OH262179   4.660   0.080  16.153  0.1134  0.0654  0.3334
13563TIP3    H162180   4.725   0.011  16.140 -2.0926 -2.2884  1.3669
13563TIP3    H262181   4.671   0.138  16.078  1.9044 -1.5196 -0.6530
13564TIP3   OH262182   6.706   3.455   0.179  0.1799 -0.1658 -0.2738
13564TIP3    H162183   6.800   3.433   0.182  0.2696  0.3871  2.0485
13564TIP3    H262184   6.662   3.370   0.176  0.7179 -0.5193  1.2395
13565TIP3   OH262185   6.268   0.890   3.554  0.2442  0.2340  0.0158
13565TIP3    H162186   6.263   0.853   3.466  1.3883 -0.8114  0.3791
13565TIP3    H262187   6.337   0.955   3.550  0.8660 -0.3958  0.3343
13566TIP3   OH262188   5.419   6.163   2.392  0.4545  0.2664 -0.5629
13566TIP3    H162189   5.503   6.148   2.437 -0.6934 -1.5625  1.0378
13566TIP3    H262190   5.415   6.094   2.326  0.1201  0.2028 -0.4762
13567TIP3   OH262191   0.431   1.000  16.756 -0.3202 -0.2656  0.0355
13567TIP3    H162192   0.406   1.018  16.847  1.7624  0.1055  0.5748
13567TIP3    H262193   0.515   0.955  16.763  0.4168  0.7665 -1.7191
13568TIP3   OH262194   1.502   6.030   5.818  0.2701 -0.1647  0.2995
13568TIP3    H162195   1.463   6.083   5.749 -1.5084 -1.8919 -0.0482
13568TIP3    H262196   1.569   5.978   5.773 -0.0189 -0.3748  0.1159
13569TIP3   OH262197   6.784   3.151  16.478 -0.5329  0.0676 -0.4016
13569TIP3    H162198   6.867   3.179  16.441  0.0932 -0.4082  0.6168
13569TIP3    H262199   6.717   3.189  16.421  0.3673  1.0411 -0.8051
13570TIP3   OH262200   2.568   2.594  11.160  0.3393  0.1996 -0.5537
13570TIP3    H162201   2.551   2.555  11.075 -0.2747 -0.9941  0.0997
13570TIP3    H262202   2.490   2.573  11.212 -0.3521  2.9286 -0.3783
13571TIP3   OH262203   5.148   4.094   5.458  0.0019 -0.2736 -0.6687
13571TIP3    H162204   5.150   4.000   5.437  0.9675  0.0055 -1.8882
13571TIP3    H262205   5.072   4.127   5.411 -0.9024 -0.6068  0.5316
13572TIP3   OH262206   4.060   1.176  11.433  0.2927  0.7708  0.7130
13572TIP3    H162207   4.135   1.171  11.374 -1.0817 -0.5742 -0.9780
13572TIP3    H262208   4.039   1.270  11.437  3.0914  1.4049  2.6392
13573TIP3   OH262209   6.193   4.257  10.862  0.6086  0.1762 -0.0855
13573TIP3    H162210   6.274   4.210  10.881 -0.6654 -1.7704  0.6604
13573TIP3    H262211   6.185   4.321  10.933  1.9121  0.9470 -0.6271
13574TIP3   OH262212   2.660   3.879  15.393  0.2200  0.0302  0.0293
13574TIP3    H162213   2.613   3.798  15.415 -0.5888  0.6569  0.6301
13574TIP3    H262214   2.631   3.900  15.304  0.6714 -0.5078 -0.2468
13575TIP3   OH262215   1.280   2.893  16.970 -0.6746  0.2564  0.4030
13575TIP3    H162216   1.295   2.871  16.878 -0.5245 -1.9744  0.9318
13575TIP3    H262217   1.364   2.929  17.000 -0.4843  0.2396 -0.1088
13576TIP3   OH262218   6.684   2.173   3.191  0.8387  0.1055  0.1972
13576TIP3    H162219   6.735   2.117   3.132  0.0183  0.6383 -1.0443
13576TIP3    H262220   6.690   2.261   3.152 -2.0314 -0.0281 -0.7156
13577TIP3   OH262221   3.557   3.062   1.281  0.5930 -0.4164  0.0268
13577TIP3    H162222   3.625   3.080   1.216  1.1654  1.6791  1.1690
13577TIP3    H262223   3.606   3.028   1.357  0.0711 -1.4969 -0.1114
13578TIP3   OH262224   5.838   4.920   2.664  0.1365 -0.4866 -0.4255
13578TIP3    H162225   5.747   4.893   2.676  0.1118 -0.4581 -0.5584
13578TIP3    H262226   5.833   5.011   2.635  0.2444  0.0599  1.1717
13579TIP3   OH262227   2.008   6.173   2.322  0.2345 -0.0235  0.0748
13579TIP3    H162228   1.920   6.144   2.347  0.8117 -0.6982  1.4280
13579TIP3    H262229   2.041   6.218   2.400  1.6784 -1.1774  0.1510
13580TIP3   OH262230   5.143   0.959   2.054  0.6948  0.3141  0.1078
13580TIP3    H162231   5.116   1.043   2.091 -1.8188 -0.0140 -0.9173
13580TIP3    H262232   5.142   0.899   2.129 -0.7502  0.4635  0.2122
13581TIP3   OH262233   6.055   3.236   1.703  0.2059  0.1701 -0.1261
13581TIP3    H162234   5.974   3.218   1.655  0.0278  0.1938  0.1687
13581TIP3    H262235   6.029   3.293   1.775  0.7636  1.5960 -1.0335
13582TIP3   OH262236   2.031   5.351   0.348  0.4473 -0.0708  0.1619
13582TIP3    H162237   1.986   5.435   0.338 -0.4248 -0.2461  2.3035
13582TIP3    H262238   1.996   5.296   0.277  0.0342  0.9611 -0.4393
13583TIP3   OH262239   6.330   1.518  11.084  0.2445 -0.3179  0.8007
13583TIP3    H162240   6.293   1.492  11.168  0.0471 -0.4588  0.6708
13583TIP3    H262241   6.425   1.518  11.099  0.2204 -0.5411  0.9653
13584TIP3   OH262242   1.614   5.498  14.417 -0.2649 -0.4216  0.4653
13584TIP3    H162243   1.610   5.587  14.452  2.6756 -0.6272  1.4173
13584TIP3    H262244   1.703   5.490  14.383 -1.2223 -2.2502 -1.7103
13585TIP3   OH262245   3.416   3.080   5.443  0.1213 -0.1041 -0.7623
13585TIP3    H162246   3.479   3.124   5.386  0.9957  1.2375  1.1819
13585TIP3    H262247   3.469   3.037   5.510 -0.9821  0.6021  0.5978
13586TIP3   OH262248   2.002   0.118  16.481  0.4015  0.3716  0.1836
13586TIP3    H162249   2.044   0.179  16.421 -0.1289  0.1289 -0.4375
13586TIP3    H262250   1.921   0.161  16.508  0.9327  0.7515  1.2253
13587TIP3   OH262251   1.796   1.937   4.836  0.0799 -0.2718  0.2060
13587TIP3    H162252   1.788   1.929   4.931  0.0496 -1.6794  0.0939
13587TIP3    H262253   1.747   1.862   4.801  0.0443  0.2621 -0.9179
13588TIP3   OH262254   3.663   2.569  12.550 -0.2819 -0.0299  0.2275
13588TIP3    H162255   3.687   2.563  12.458  0.7483  0.2713  0.4733
13588TIP3    H262256   3.669   2.662  12.571 -0.3850 -0.1145  0.6421
13589TIP3   OH262257   2.439   3.715  15.403  0.6459  0.0684  0.1978
13589TIP3    H162258   2.355   3.752  15.429  0.8304  2.4224 -2.2656
13589TIP3    H262259   2.438   3.625  15.436 -2.6338  0.2021  0.5978
13590TIP3   OH262260   3.366   1.605   4.543 -0.0212 -0.1265 -0.1336
13590TIP3    H162261   3.316   1.597   4.624  0.9466 -0.1063  0.4715
13590TIP3    H262262   3.429   1.533   4.546  0.0979 -0.0522 -0.8042
13591TIP3   OH262263   6.217   4.472  11.466 -0.0076  0.2757 -0.2870
13591TIP3    H162264   6.228   4.564  11.492 -0.8164  0.3673 -0.2589
13591TIP3    H262265   6.185   4.477  11.376 -0.5049  0.0351 -0.1247
13592TIP3   OH262266   4.683   0.836   6.841  0.2341 -0.3298  0.4409
13592TIP3    H162267   4.703   0.928   6.826 -0.0516 -0.5482 -1.3496
13592TIP3    H262268   4.624   0.836   6.916  0.6319  0.9070  0.7643
13593TIP3   OH262269   2.187   4.442  10.847 -0.0255 -0.2371  0.2629
13593TIP3    H162270   2.200   4.536  10.861 -3.1242  0.4248 -0.9925
13593TIP3    H262271   2.253   4.400  10.902 -0.3872  2.5948  2.9548
13594TIP3   OH262272   2.691   5.828  11.115  0.1136  0.0798  0.1246
13594TIP3    H162273   2.764   5.767  11.101  0.9845  1.4053 -1.2801
13594TIP3    H262274   2.623   5.798  11.055 -0.1359 -0.5545  0.7128
13595TIP3   OH262275   4.780   1.544  12.996  0.1930 -0.1779 -0.0648
13595TIP3    H162276   4.702   1.518  12.947 -0.5341  0.7030  0.6259
13595TIP3    H262277   4.849   1.549  12.930  0.2229 -3.1844 -0.3428
13596TIP3   OH262278   5.028   6.189   4.139 -0.3976 -0.5883  0.2875
13596TIP3    H162279   4.952   6.132   4.131 -0.3219 -1.1847  3.2891
13596TIP3    H262280   4.995   6.266   4.185  0.7095 -0.6490  1.2060
13597TIP3   OH262281   2.014   2.888   0.025  0.4564  0.7298  0.2998
13597TIP3    H162282   2.098   2.857   0.059  0.8079  2.6525  1.2465
13597TIP3    H262283   2.027   2.893  -0.069  0.0221 -3.0177 -0.0366
13598TIP3   OH262284   0.131   5.113  15.495 -0.5635 -0.0015  0.4360
13598TIP3    H162285   0.225   5.132  15.502 -0.3229  0.1753 -2.5792
13598TIP3    H262286   0.089   5.198  15.497 -0.6101 -0.0486  1.3085
13599TIP3   OH262287   1.403   5.359   4.849  0.2331  0.0386  0.6305
13599TIP3    H162288   1.311   5.385   4.840  0.5940  1.5527  1.1824
13599TIP3    H262289   1.411   5.332   4.941  0.9710  2.5375  1.3285
13600TIP3   OH262290   0.585   3.818  11.973  0.1133  0.3523  0.1837
13600TIP3    H162291   0.521   3.867  12.024  0.3089  1.3660 -0.5162
13600TIP3    H262292   0.622   3.883  11.912  0.7223 -0.5562 -0.4345
13601TIP3   OH262293   4.549   4.970  16.800  0.0856  0.0417 -0.4662
13601TIP3    H162294   4.558   4.922  16.718 -0.8052  2.0218 -1.7709
13601TIP3    H262295   4.630   5.020  16.808 -0.8946  1.8289 -1.4857
13602TIP3   OH262296   5.510   6.242   1.376  0.3232  0.9292 -0.0023
13602TIP3    H162297   5.575   6.201   1.319 -0.9251 -1.4783  0.2491
13602TIP3    H262298   5.560   6.304   1.429  1.8595  1.5206 -2.0998
13603TIP3   OH262299   1.704   3.573   2.228 -0.4480 -0.1827  0.3987
13603TIP3    H162300   1.722   3.479   2.222 -0.2562 -0.0542 -1.6311
13603TIP3    H262301   1.784   3.610   2.264  0.0722 -0.6439 -0.2468
13604TIP3   OH262302   4.333   1.919   3.942 -0.1244  0.3117  0.6764
13604TIP3    H162303   4.397   1.862   3.901 -0.6706  1.4078 -1.7714
13604TIP3    H262304   4.312   1.875   4.025  1.5072 -1.5881  0.1238
13605TIP3   OH262305   3.748   6.594  15.160  0.1568 -0.6230 -0.5903
13605TIP3    H162306   3.653   6.604  15.173  0.0767 -0.6490 -1.1380
13605TIP3    H262307   3.773   6.522  15.217 -0.1032 -0.4103 -0.2061
13606TIP3   OH262308   4.868   5.590  16.941  0.5822  0.4661  0.1039
13606TIP3    H162309   4.932   5.646  16.985  0.4030  1.6370 -1.0913
13606TIP3    H262310   4.806   5.566  17.009  1.3607  0.6841  0.9098
13607TIP3   OH262311   2.432   5.061  12.251 -0.1774 -0.1998 -0.0203
13607TIP3    H162312   2.433   4.966  12.250  0.8781 -0.2153  1.5898
13607TIP3    H262313   2.514   5.086  12.208  0.1331 -0.0398  0.6577
13608TIP3   OH262314   5.727   0.270   1.832 -0.6553  0.5505  0.4190
13608TIP3    H162315   5.778   0.195   1.800  0.1573  1.6205 -0.8749
13608TIP3    H262316   5.741   0.338   1.766 -0.5680  2.1801  2.0825
13609TIP3   OH262317   1.308   1.421   2.218  0.6046  0.0805 -0.2367
13609TIP3    H162318   1.361   1.485   2.170 -0.2712  1.9576  1.2315
13609TIP3    H262319   1.284   1.466   2.299 -0.5481 -1.9067  0.5566
13610TIP3   OH262320   0.968   6.648   5.625 -0.4215 -0.3537 -0.4958
13610TIP3    H162321   1.027   6.708   5.580  1.3405 -0.9931  0.9255
13610TIP3    H262322   0.985   6.563   5.585 -0.4179 -0.5251 -0.1320
13611TIP3   OH262323   4.042   0.246  14.174 -0.6974 -0.6796 -0.1403
13611TIP3    H162324   4.078   0.329  14.206  0.8014 -1.3733  0.0219
13611TIP3    H262325   3.996   0.210  14.250 -1.5606  0.1232 -0.2843
13612TIP3   OH262326   4.127   2.120   3.302  0.3902  0.1682 -0.1543
13612TIP3    H162327   4.213   2.111   3.261 -0.1659 -0.3124 -1.2398
13612TIP3    H262328   4.121   2.213   3.325 -0.1262  0.9371 -3.1078
13613TIP3   OH262329   6.508   2.484  15.468  0.2183 -0.1475  0.6412
13613TIP3    H162330   6.417   2.456  15.471  1.0779 -3.4377 -1.4445
13613TIP3    H262331   6.519   2.520  15.380  1.0191 -0.2088  0.7134
13614TIP3   OH262332   2.597   2.453  16.207  0.5849  0.4276 -0.2194
13614TIP3    H162333   2.543   2.424  16.134  2.2735 -1.6505 -0.6899
13614TIP3    H262334   2.538   2.505  16.261 -1.5531 -0.7505 -1.3563
13615TIP3   OH262335   2.585   6.348  16.333 -0.2660 -0.3258  0.1918
13615TIP3    H162336   2.595   6.362  16.239  0.3912 -0.6265  0.2161
13615TIP3    H262337   2.500   6.387  16.354 -0.2784  0.0056 -0.4718
13616TIP3   OH262338   1.325   3.498   2.708 -0.2012  0.0634  1.1814
13616TIP3    H162339   1.357   3.430   2.768  1.8439  0.3659  0.4774
13616TIP3    H262340   1.378   3.574   2.729  1.1320 -0.0649 -1.5683
13617TIP3   OH262341   4.294   2.941  16.168 -0.0011  0.6716  0.0356
13617TIP3    H162342   4.209   2.923  16.127  0.9473 -0.4113 -1.5249
13617TIP3    H262343   4.330   2.854  16.186  0.7060  1.1298  0.8301
13618TIP3   OH262344   1.377   1.868   1.333 -0.3295 -0.5465  0.8189
13618TIP3    H162345   1.286   1.876   1.359 -0.2410 -1.0857  1.3046
13618TIP3    H262346   1.421   1.943   1.374 -0.8579  0.6868 -0.8306
13619TIP3   OH262347   4.395   1.203  14.968 -0.4212 -0.6128  0.0153
13619TIP3    H162348   4.306   1.230  14.945 -0.1152 -0.8480 -1.4935
13619TIP3    H262349   4.382   1.127  15.026 -1.2030 -0.7035 -0.2701
13620TIP3   OH262350   4.674   5.143  11.392 -0.2062 -0.2763 -0.3298
13620TIP3    H162351   4.618   5.106  11.460  0.1248  0.2607  0.2416
13620TIP3    H262352   4.623   5.134  11.311 -0.2368 -1.7219 -0.1618
13621TIP3   OH262353   2.302   0.051  12.855  0.4426 -0.0839  0.1541
13621TIP3    H162354   2.247   0.000  12.795 -0.6803  1.6512 -0.3215
13621TIP3    H262355   2.345  -0.015  12.910 -1.8973 -1.5165  0.3493
13622TIP3   OH262356   5.299   1.687  17.284  0.4383  0.0055  0.1743
13622TIP3    H162357   5.228   1.748  17.264 -0.3945 -1.1082 -0.3200
13622TIP3    H262358   5.379   1.734  17.259 -0.2328  0.7123 -0.6668
13623TIP3   OH262359   4.044   3.518   2.426 -0.4445 -0.0030  0.7847
13623TIP3    H162360   3.984   3.448   2.402 -0.0937  0.4376 -1.5480
13623TIP3    H262361   3.990   3.581   2.473 -1.2467 -0.8134  0.9468
13624TIP3   OH262362   4.160   4.897  12.400 -0.2863 -0.4647  0.4378
13624TIP3    H162363   4.198   4.970  12.451 -1.1314  0.0180  0.3816
13624TIP3    H262364   4.106   4.940  12.334 -1.0881 -1.1559  0.6391
13625TIP3   OH262365   1.201   2.801  12.934 -0.1434 -0.5153  0.7201
13625TIP3    H162366   1.239   2.876  12.889  0.7606 -0.8830  0.8613
13625TIP3    H262367   1.200   2.731  12.869 -2.0812 -0.0607  0.2281
13626TIP3   OH262368   5.794   4.753  16.969  0.5663 -0.0000  0.1249
13626TIP3    H162369   5.759   4.767  17.057  2.9374  0.8125  0.9836
13626TIP3    H262370   5.842   4.670  16.975  1.5180  0.5188 -0.1246
13627TIP3   OH262371   6.154   2.793  12.337  0.1242  0.3961  0.5140
13627TIP3    H162372   6.172   2.781  12.431 -1.0115  0.5409  0.7633
13627TIP3    H262373   6.153   2.888  12.325  0.9817  0.3658  0.2098
13628TIP3   OH262374   0.787   6.533  11.464  0.2610  0.0477 -0.3630
13628TIP3    H162375   0.807   6.502  11.552  0.7943 -0.2629 -0.5915
13628TIP3    H262376   0.851   6.603  11.448 -0.1419  0.4274 -0.3205
13629TIP3   OH262377   6.548   4.994   5.038  0.3412 -0.2486 -0.5202
13629TIP3    H162378   6.455   4.980   5.026  0.2208  0.2565 -0.2206
13629TIP3    H262379   6.554   5.058   5.110  0.9665 -1.5350  0.5940
13630TIP3   OH262380   0.392   5.612  16.318 -0.0464 -0.2884  0.5086
13630TIP3    H162381   0.380   5.692  16.369  1.3555 -0.1509  0.6291
13630TIP3    H262382   0.426   5.548  16.380  0.9356 -0.3384 -0.0560
13631TIP3   OH262383   3.717   3.051   3.600 -0.1646  0.6489  0.4276
13631TIP3    H162384   3.774   3.073   3.674 -0.0691  0.3761  0.4320
13631TIP3    H262385   3.665   2.977   3.631 -0.7037  1.0605  0.5179
13632TIP3   OH262386   5.390   1.628  16.723  0.8929  0.1743 -0.3498
13632TIP3    H162387   5.367   1.581  16.803  0.2470  0.2609 -0.4855
13632TIP3    H262388   5.359   1.717  16.738  2.7554  0.7600  0.2028
13633TIP3   OH262389   4.001   3.674   1.384  0.1461  0.5186 -0.0507
13633TIP3    H162390   4.091   3.706   1.384  0.3610 -0.0170 -2.2274
13633TIP3    H262391   3.982   3.655   1.292 -1.3409 -1.7990  0.6977
13634TIP3   OH262392   0.632   5.233   4.308 -0.4353 -0.2179 -0.2786
13634TIP3    H162393   0.694   5.302   4.331  1.4761 -1.6218 -0.9999
13634TIP3    H262394   0.606   5.253   4.218 -1.3356  0.5661  0.1428
13635TIP3   OH262395   5.812   2.487  11.412 -0.3672 -0.5903 -0.6246
13635TIP3    H162396   5.753   2.509  11.484  2.6448 -0.1124  1.8366
13635TIP3    H262397   5.788   2.548  11.342 -0.9795  1.4905  1.3165
13636TIP3   OH262398   1.910   5.574   0.464  0.2858  0.2029  0.1297
13636TIP3    H162399   1.819   5.594   0.445  0.8654  0.0475 -3.0639
13636TIP3    H262400   1.907   5.508   0.532 -2.0359 -0.9177 -1.0126
13637TIP3   OH262401   3.263   3.316  12.902 -0.1302  0.6315 -0.0866
13637TIP3    H162402   3.278   3.305  12.996  1.2912  0.0538 -0.3629
13637TIP3    H262403   3.176   3.279  12.887 -1.3866  2.8834  1.3862
13638TIP3   OH262404   5.016   4.603  12.424  0.2282  0.4751  0.5363
13638TIP3    H162405   5.091   4.659  12.406 -0.9498  0.9693 -3.1269
13638TIP3    H262406   5.002   4.554  12.343 -1.8218 -1.4927  2.0214
13639TIP3   OH262407   3.200   4.856   3.733 -0.5510  0.6411  0.4360
13639TIP3    H162408   3.125   4.886   3.785  0.0305  1.3801  0.8629
13639TIP3    H262409   3.209   4.922   3.664 -2.1222 -1.0120 -1.4310
13640TIP3   OH262410   1.088   0.802  10.673  0.4567  0.0524 -0.0035
13640TIP3    H162411   1.181   0.803  10.652  0.9062 -4.0586  1.2810
13640TIP3    H262412   1.085   0.803  10.769 -0.9653  2.5575 -0.0320
13641TIP3   OH262413   0.574   6.150  11.637 -0.3009 -0.6030 -0.2310
13641TIP3    H162414   0.644   6.084  11.644  0.1206 -0.0854  0.4832
13641TIP3    H262415   0.522   6.138  11.715  0.6005  0.8414  0.6112
13642TIP3   OH262416   5.269   2.759  15.052 -0.4623  0.5580 -0.1509
13642TIP3    H162417   5.332   2.829  15.068  2.1133 -1.5681 -0.6293
13642TIP3    H262418   5.269   2.747  14.957 -0.8275 -0.1387 -0.0699
13643TIP3   OH262419   3.193   4.694   0.678  0.3929  0.0735 -0.3024
13643TIP3    H162420   3.214   4.739   0.760  1.1496 -0.2501 -0.3193
13643TIP3    H262421   3.108   4.730   0.653  1.0362  1.5952 -0.3709
13644TIP3   OH262422   4.168   2.107  13.078 -0.2578  0.0809 -0.1447
13644TIP3    H162423   4.132   2.164  13.146  0.0993 -0.6738  0.6893
13644TIP3    H262424   4.263   2.121  13.083 -0.1722 -0.5469  0.0365
13645TIP3   OH262425   6.510   0.666   4.891 -0.4941  0.3870  0.0657
13645TIP3    H162426   6.424   0.634   4.866 -0.5631 -0.3431  1.2394
13645TIP3    H262427   6.520   0.748   4.842 -1.2805 -0.2186 -1.1220
13646TIP3   OH262428   2.215   4.691  12.328  0.2689 -0.0112 -0.2744
13646TIP3    H162429   2.274   4.740  12.385 -0.2841 -1.4058  1.5314
13646TIP3    H262430   2.130   4.694  12.372 -0.6684  0.6106 -2.0524
13647TIP3   OH262431   2.800   0.507  12.171  0.1397 -0.0236 -0.2517
13647TIP3    H162432   2.759   0.464  12.096 -2.0967 -0.0162  0.9504
13647TIP3    H262433   2.754   0.590  12.180  1.5527  0.7337  0.0852
13648TIP3   OH262434   0.848   1.901   5.402  0.8463 -0.2407  0.7325
13648TIP3    H162435   0.789   1.963   5.444  0.3953  0.3490 -0.7190
13648TIP3    H262436   0.888   1.852   5.474 -0.1259  0.5262  1.8060
13649TIP3   OH262437   0.960   5.670  16.182  0.5040  0.5431  0.3623
13649TIP3    H162438   0.921   5.737  16.238  2.6322  3.7121 -1.7590
13649TIP3    H262439   1.045   5.652  16.222  0.6761  0.4551 -0.0312
13650TIP3   OH262440   3.744   5.135   1.347 -0.3728  0.0279 -0.1794
13650TIP3    H162441   3.684   5.148   1.273 -1.7396  2.1595  1.2551
13650TIP3    H262442   3.817   5.194   1.329 -0.0021 -0.5563 -0.5785
13651TIP3   OH262443   5.046   1.620  13.456  0.1112  0.0844 -0.2524
13651TIP3    H162444   5.058   1.710  13.426  1.9272 -0.2002 -0.4808
13651TIP3    H262445   5.016   1.573  13.378 -0.3525  0.3989 -0.2630
13652TIP3   OH262446   0.119   2.852   5.421  0.0726  0.3144 -0.1742
13652TIP3    H162447   0.139   2.919   5.487  1.4016  0.6198 -0.8746
13652TIP3    H262448   0.158   2.772   5.456 -0.5959  0.1240  0.1527
13653TIP3   OH262449   1.367   1.532   3.808 -0.2333 -0.3741 -0.2522
13653TIP3    H162450   1.318   1.513   3.728 -0.2214 -0.0315 -0.3387
13653TIP3    H262451   1.459   1.537   3.780 -0.0989 -1.4045 -0.0271
13654TIP3   OH262452   0.876   6.481  13.790  0.2522 -0.2213 -0.4333
13654TIP3    H162453   0.784   6.502  13.800  0.8787  2.5119  0.0024
13654TIP3    H262454   0.905   6.534  13.715  1.9781  0.7957  0.9151
13655TIP3   OH262455   5.150   0.054  13.121  0.6539  0.6551 -0.1321
13655TIP3    H162456   5.235   0.075  13.160  1.7157 -0.4856 -1.7701
13655TIP3    H262457   5.143  -0.042  13.130 -1.1165  0.8781  1.2619
13656TIP3   OH262458   5.863   2.446  10.551 -0.2157  0.3397 -0.2639
13656TIP3    H162459   5.935   2.508  10.541 -0.1242  0.3223  0.3023
13656TIP3    H262460   5.904   2.360  10.541  0.0631  0.2762  1.3127
13657TIP3   OH262461   1.595   1.586   3.646 -0.2315  0.6180 -0.2376
13657TIP3    H162462   1.638   1.566   3.729 -1.3285 -0.9767 -0.0174
13657TIP3    H262463   1.648   1.541   3.580  0.0566  1.0287 -0.2861
13658TIP3   OH262464   4.271   3.131   5.772 -0.3491  0.4613  0.7635
13658TIP3    H162465   4.239   3.132   5.862 -0.6260 -2.2915  0.7176
13658TIP3    H262466   4.360   3.095   5.779 -0.5356 -0.1781 -0.1162
13659TIP3   OH262467   1.580   6.480  17.039 -0.0553 -0.5194 -0.1434
13659TIP3    H162468   1.624   6.436  16.966 -1.8160 -0.3222 -1.3494
13659TIP3    H262469   1.487   6.476  17.017 -0.3994  2.1965  0.6213
13660TIP3   OH262470   3.774   2.409  15.059 -0.3654 -0.0228  0.4112
13660TIP3    H162471   3.833   2.415  14.983 -1.5729 -0.3422 -0.5705
13660TIP3    H262472   3.807   2.474  15.120  0.0699  0.9095 -0.7973
13661TIP3   OH262473   1.555   4.122   4.046  0.1041 -0.2759  0.3187
13661TIP3    H162474   1.552   4.209   4.086 -2.4623 -1.2225  2.2977
13661TIP3    H262475   1.611   4.071   4.103  0.4645 -0.2955 -0.0540
13662TIP3   OH262476   5.865   0.444   3.036  0.1133 -0.1056  0.3380
13662TIP3    H162477   5.850   0.424   3.129  2.1446 -1.8991  0.3211
13662TIP3    H262478   5.829   0.369   2.989  1.0666 -0.2566 -0.1748
13663TIP3   OH262479   2.261   1.359   4.819  0.0020 -0.0792  0.6594
13663TIP3    H162480   2.193   1.297   4.793 -1.1422  0.9623  1.1585
13663TIP3    H262481   2.268   1.349   4.914  1.2543 -0.8977  0.4894
13664TIP3   OH262482   3.156   2.926  12.897  0.3840  0.1002  0.4840
13664TIP3    H162483   3.123   2.991  12.958  3.8121  2.4075  0.0155
13664TIP3    H262484   3.111   2.946  12.814 -0.3429  0.3306  0.9278
13665TIP3   OH262485   1.819   6.323  15.411 -0.0450  0.1217  0.1961
13665TIP3    H162486   1.730   6.329  15.376  0.6732  0.5150 -1.6070
13665TIP3    H262487   1.868   6.278  15.343  1.4634  1.2231  0.5374
13666TIP3   OH262488   4.166   3.786  11.589  0.0992  0.3386 -0.1084
13666TIP3    H162489   4.104   3.859  11.585 -0.0945  0.1485 -0.7633
13666TIP3    H262490   4.120   3.714  11.545  0.1339 -0.2872  0.8685
13667TIP3   OH262491   4.472   6.077   5.030  0.0084 -0.3948  0.2920
13667TIP3    H162492   4.442   6.168   5.025  1.1377 -0.0816 -1.1894
13667TIP3    H262493   4.494   6.064   5.122 -2.1883  0.1502  0.9305
13668TIP3   OH262494   2.946   3.787   1.492 -0.0383  0.2466 -0.3125
13668TIP3    H162495   2.919   3.809   1.581  1.0246  1.1509 -0.2097
13668TIP3    H262496   3.001   3.710   1.502  0.3860  0.5726 -0.1552
13669TIP3   OH262497   0.318   3.660   4.215  0.6988 -0.0750 -0.4528
13669TIP3    H162498   0.226   3.641   4.197  0.4397  0.2769  0.4600
13669TIP3    H262499   0.328   3.644   4.309  1.2837  1.0120 -0.3134
13670TIP3   OH262500   4.857   3.862  14.928 -0.0217 -0.0560 -0.4448
13670TIP3    H162501   4.886   3.819  14.847  0.7347 -0.4819  0.0434
13670TIP3    H262502   4.890   3.805  14.998  2.2075  2.0131  0.2624
13671TIP3   OH262503   1.488   1.920   4.201  0.4131 -0.3494 -0.2558
13671TIP3    H162504   1.522   1.852   4.144  1.9106 -0.0462  0.2687
13671TIP3    H262505   1.419   1.962   4.150  1.1235 -0.6810 -1.4949
13672TIP3   OH262506   2.752   5.578  13.006  0.0961 -0.1917 -0.1262
13672TIP3    H162507   2.691   5.598  12.936  0.8937 -1.6789 -1.2693
13672TIP3    H262508   2.743   5.483  13.019  1.4971 -0.2695  0.3280
13673TIP3   OH262509   2.397   4.480   4.175  0.3692 -0.2768  0.0615
13673TIP3    H162510   2.491   4.496   4.167  0.0206  1.7935 -0.1240
13673TIP3    H262511   2.372   4.441   4.091  0.9790 -0.4862 -0.0252
13674TIP3   OH262512   5.763   5.789   2.566  0.0630  0.5477 -0.3139
13674TIP3    H162513   5.729   5.714   2.516  2.7249 -1.3044  0.5844
13674TIP3    H262514   5.694   5.808   2.630 -0.1242 -1.9381  0.2662
13675TIP3   OH262515   3.345   6.439  12.236  0.3468  0.1901  0.0625
13675TIP3    H162516   3.343   6.408  12.326 -0.1360 -1.5233 -0.5029
13675TIP3    H262517   3.317   6.530  12.241  1.1521  0.3620  1.7238
13676TIP3   OH262518   0.691   0.311  15.361 -0.2189  0.4877  0.2565
13676TIP3    H162519   0.715   0.399  15.332 -1.0038  0.9111  0.8713
13676TIP3    H262520   0.609   0.292  15.315 -0.4179  0.3589  0.6623
13677TIP3   OH262521   6.721   3.035   0.229 -0.2752  0.3248  0.3719
13677TIP3    H162522   6.775   2.964   0.265 -0.8305 -1.3635 -1.9996
13677TIP3    H262523   6.784   3.098   0.195  0.2221  0.7123  1.9441
13678TIP3   OH262524   6.671   1.666  14.499 -0.0318 -0.1921 -0.1712
13678TIP3    H162525   6.587   1.685  14.456 -0.1294 -0.7483 -0.2223
13678TIP3    H262526   6.736   1.702  14.439 -0.1873 -0.6313 -0.6058
13679TIP3   OH262527   6.277   6.212  10.000 -0.2822 -0.2053 -0.6593
13679TIP3    H162528   6.204   6.233  10.059  0.1400 -0.6748  0.0307
13679TIP3    H262529   6.340   6.283  10.012  0.2624 -0.8315  0.2179
13680TIP3   OH262530   4.996   0.593  11.351  0.1421  0.2863  0.3752
13680TIP3    H162531   4.943   0.609  11.429  0.7422  1.5991  0.5366
13680TIP3    H262532   5.007   0.498  11.349 -0.0737  0.2101  1.7686
13681TIP3   OH262533   3.143   6.610   5.712 -0.6766  0.6809  0.2533
13681TIP3    H162534   3.159   6.704   5.718 -0.7247  0.7672 -0.9206
13681TIP3    H262535   3.062   6.596   5.761 -2.0019  1.6190 -1.6578
13682TIP3   OH262536   6.381   6.645  13.767  0.4698 -0.3646 -0.0804
13682TIP3    H162537   6.423   6.620  13.684  0.3256 -1.0891  0.0624
13682TIP3    H262538   6.315   6.709  13.742  0.4534 -0.5504 -0.5281
13683TIP3   OH262539   4.635   4.544   6.108  0.3615 -0.8562 -0.5776
13683TIP3    H162540   4.626   4.471   6.169  0.0861  0.1226  0.5952
13683TIP3    H262541   4.705   4.598   6.146  0.0718 -0.1524 -1.0252
13684TIP3   OH262542   1.535   0.111  16.130  0.0865  0.1101  0.2122
13684TIP3    H162543   1.460   0.052  16.137 -0.1980  0.3032 -1.1977
13684TIP3    H262544   1.497   0.198  16.141  0.0614  0.2265 -0.8120
13685TIP3   OH262545   0.887   1.347   2.645  0.1605 -0.9589 -0.4487
13685TIP3    H162546   0.889   1.263   2.690 -1.1418 -1.0664 -0.5756
13685TIP3    H262547   0.801   1.383   2.666  0.8166  0.4728 -0.1466
13686TIP3   OH262548   1.169   4.026  13.929  0.2109  0.1067 -0.3486
13686TIP3    H162549   1.085   3.995  13.964  0.3438  0.3433  0.1747
13686TIP3    H262550   1.233   3.962  13.961  0.4460  0.7626  0.4970
13687TIP3   OH262551   1.672   4.597  15.837 -0.2836 -0.3500 -0.5074
13687TIP3    H162552   1.674   4.692  15.824  0.1256 -0.0496  1.6280
13687TIP3    H262553   1.584   4.572  15.811 -0.4510  0.6401 -0.9279
13688TIP3   OH262554   0.612   4.819   5.564 -0.8526  0.0663 -0.0747
13688TIP3    H162555   0.687   4.829   5.504 -2.1172 -0.1487 -1.7423
13688TIP3    H262556   0.649   4.777   5.641  0.9768  1.0323 -0.3937
13689TIP3   OH262557   5.316   4.024   5.692 -0.3734 -0.2974  0.7341
13689TIP3    H162558   5.268   4.035   5.610 -0.9100 -1.2793  0.9119
13689TIP3    H262559   5.262   4.069   5.757 -1.8973 -2.7537  1.2235
13690TIP3   OH262560   0.220   6.521  13.153  0.0090  0.5633 -0.5261
13690TIP3    H162561   0.218   6.515  13.249  0.3486 -0.1164 -0.5559
13690TIP3    H262562   0.270   6.601  13.135  0.3195  0.4587 -0.1356
13691TIP3   OH262563   4.798   6.817  12.226 -0.3355  0.1354  0.8674
13691TIP3    H162564   4.862   6.755  12.262  0.3195 -0.0538 -0.6062
13691TIP3    H262565   4.779   6.876  12.299  2.1658  0.7006  1.1218
13692TIP3   OH262566   0.748   6.402   1.220 -0.2207 -0.0218 -0.2879
13692TIP3    H162567   0.674   6.354   1.182 -0.1033  0.8449 -1.6399
13692TIP3    H262568   0.719   6.494   1.220 -0.4988 -0.0780  2.3986
13693TIP3   OH262569   6.648   1.145  14.703 -0.4275  0.0228  0.3439
13693TIP3    H162570   6.663   1.202  14.778  0.7289 -0.1696  0.2704
13693TIP3    H262571   6.571   1.094  14.727  0.6579 -0.9303  1.9605
13694TIP3   OH262572   2.893   1.767  14.466 -0.4063 -0.3540  0.4064
13694TIP3    H162573   2.925   1.752  14.377  1.3421 -1.3787  1.1755
13694TIP3    H262574   2.908   1.861  14.481 -3.5530  0.5092 -1.4177
13695TIP3   OH262575   5.496   0.652   5.926 -0.2800  0.1033  0.7766
13695TIP3    H162576   5.401   0.656   5.924 -0.2773 -0.1764  0.1435
13695TIP3    H262577   5.519   0.577   5.872  0.3042  0.1784  0.9081
13696TIP3   OH262578   3.228   2.322  12.764 -0.1593 -0.2214 -0.3786
13696TIP3    H162579   3.237   2.372  12.683  0.6276 -0.1644 -0.2639
13696TIP3    H262580   3.255   2.384  12.833 -1.1113 -0.1746 -0.0461
13697TIP3   OH262581   2.796   6.252  16.821  0.0743  1.2056  0.1448
13697TIP3    H162582   2.809   6.157  16.827 -1.3124  0.8994 -1.3543
13697TIP3    H262583   2.785   6.280  16.912  2.8652  0.3049  0.7987
13698TIP3   OH262584   6.657   2.082  14.878 -0.4159 -0.6190 -0.2221
13698TIP3    H162585   6.662   2.173  14.849 -2.2986 -0.6631 -0.7371
13698TIP3    H262586   6.678   2.030  14.801  1.1540 -0.6243  0.1973
13699TIP3   OH262587   2.174   0.020   3.661 -0.3868  0.2774  0.0378
13699TIP3    H162588   2.162   0.040   3.568  0.2939 -0.8906 -0.3143
13699TIP3    H262589   2.236   0.086   3.692 -1.0556  1.0243 -0.1976
13700TIP3   OH262590   4.916   6.102   0.393 -0.0616 -0.8649 -0.1505
13700TIP3    H162591   4.863   6.088   0.471 -1.3322  0.1108 -0.8235
13700TIP3    H262592   4.965   6.182   0.412 -0.5841 -0.4681 -0.4595
13701TIP3   OH262593   4.409   5.355   2.342  0.0070  0.0931  0.0437
13701TIP3    H162594   4.482   5.378   2.399  0.2080 -1.3196  0.3731
13701TIP3    H262595   4.440   5.374   2.253  0.2165  0.9177  0.2881
13702TIP3   OH262596   1.839   5.746  17.133 -0.3252  0.6848 -0.2019
13702TIP3    H162597   1.800   5.748  17.046  1.0746  1.5888 -0.8273
13702TIP3    H262598   1.843   5.838  17.160  1.7153  0.6573 -0.3258
13703TIP3   OH262599   3.584   0.698   4.279  0.5138 -0.2368  0.4668
13703TIP3    H162600   3.628   0.783   4.277  1.9881 -1.0080 -0.5121
13703TIP3    H262601   3.595   0.662   4.191  0.2077 -1.6003  0.9633
13704TIP3   OH262602   3.025   2.592  12.346  0.3065 -0.1659  0.0286
13704TIP3    H162603   3.042   2.523  12.410 -0.2502  0.9098  1.3599
13704TIP3    H262604   2.930   2.596  12.340  0.3562 -0.1682 -0.7698
13705TIP3   OH262605   3.962   1.772  12.431 -0.3033  0.0576  0.7003
13705TIP3    H162606   4.047   1.728  12.439  0.2297  1.0679  0.6242
13705TIP3    H262607   3.921   1.732  12.354  0.2547 -0.1641  0.5221
13706TIP3   OH262608   4.418   5.669  17.038  0.3038  0.1571  0.3769
13706TIP3    H162609   4.343   5.654  16.981  0.8537 -2.1608  0.2499
13706TIP3    H262610   4.476   5.724  16.986  0.2508 -0.9179 -0.8346
13707TIP3   OH262611   6.736   6.641  14.951  0.0812 -0.4414 -0.1226
13707TIP3    H162612   6.720   6.547  14.947 -0.1245 -0.3382 -2.9362
13707TIP3    H262613   6.651   6.681  14.932  0.3993  0.2857 -0.0391
13708TIP3   OH262614   2.420   1.827  16.484  0.0945  0.2787 -0.4891
13708TIP3    H162615   2.388   1.790  16.402 -0.0678  0.2602 -0.4182
13708TIP3    H262616   2.389   1.918  16.483 -0.2965  0.1510 -0.2423
13709TIP3   OH262617   0.626   1.917  13.081 -0.3213  0.2828 -0.2630
13709TIP3    H162618   0.544   1.961  13.060 -0.3416  0.3511 -0.0472
13709TIP3    H262619   0.602   1.825  13.091 -0.6018  0.4760  1.0057
13710TIP3   OH262620   2.730   0.202   5.115 -0.0518 -0.2454  0.0231
13710TIP3    H162621   2.668   0.134   5.141  0.3215  0.1226  1.9658
13710TIP3    H262622   2.677   0.280   5.102 -0.1757 -0.3004  0.1996
13711TIP3   OH262623   4.350   2.165   3.615  0.2449 -0.1845 -0.3706
13711TIP3    H162624   4.375   2.083   3.571 -0.9076 -0.6539 -0.1504
13711TIP3    H262625   4.413   2.229   3.582  0.0087 -0.7454 -1.9616
13712TIP3   OH262626   2.648   1.076  12.364 -0.3728  0.0442 -0.0105
13712TIP3    H162627   2.710   1.146  12.385 -0.8988  0.8111 -1.0164
13712TIP3    H262628   2.702   1.010  12.319 -0.2111  0.5328 -0.5328
13713TIP3   OH262629   2.522   6.532   3.324 -0.5780 -0.1904  0.2495
13713TIP3    H162630   2.537   6.511   3.417  0.1464  0.2522  0.2335
13713TIP3    H262631   2.456   6.601   3.326  1.0822  1.4049  0.5374
13714TIP3   OH262632   3.981   3.284  13.866  0.0343  0.3556  0.7866
13714TIP3    H162633   3.909   3.290  13.804 -0.9015  2.6083  2.0561
13714TIP3    H262634   4.054   3.250  13.814 -1.1513  0.7108 -1.1580
13715TIP3   OH262635   2.558   3.552  16.702 -0.4391  0.1445  0.2086
13715TIP3    H162636   2.604   3.500  16.637 -1.0610  0.5968 -0.6126
13715TIP3    H262637   2.543   3.493  16.776 -1.3973 -0.9201 -0.8291
13716TIP3   OH262638   3.616   2.262   4.995 -0.4686  0.2565 -0.3521
13716TIP3    H162639   3.636   2.201   5.065  1.2043  0.0850 -0.9477
13716TIP3    H262640   3.559   2.213   4.936  1.4756 -1.0611 -1.2250
13717TIP3   OH262641   5.738   3.010  11.170 -0.1228  0.4995 -0.1822
13717TIP3    H162642   5.789   3.052  11.101  0.3730  1.4687  0.7715
13717TIP3    H262643   5.652   3.052  11.166 -0.0562  0.6395 -0.1283
13718TIP3   OH262644   6.754   1.266   4.874 -0.5065 -0.2629 -0.0205
13718TIP3    H162645   6.756   1.191   4.813  2.1424 -2.1301  2.2302
13718TIP3    H262646   6.827   1.321   4.845 -0.8309  0.1428 -0.0685
13719TIP3   OH262647   3.266   5.284   6.176 -0.4131  0.1393 -0.6050
13719TIP3    H162648   3.185   5.270   6.225 -0.2662 -1.9072 -0.8952
13719TIP3    H262649   3.329   5.225   6.216  1.0823  2.0024 -0.1275
13720TIP3   OH262650   3.019   1.015   4.292  0.2289  0.0160  0.2857
13720TIP3    H162651   3.035   1.034   4.200 -1.0330  0.9409  0.2487
13720TIP3    H262652   2.930   0.980   4.295  0.6581 -1.0525  1.0181
13721TIP3   OH262653   5.160   6.659  11.953  0.1394  0.1833  0.6096
13721TIP3    H162654   5.254   6.641  11.949  0.0628 -0.0995 -0.0107
13721TIP3    H262655   5.120   6.579  11.918 -0.3276  0.3161  0.8463
13722TIP3   OH262656   2.084   0.482  11.816  0.0915  0.0075  0.3188
13722TIP3    H162657   1.994   0.489  11.848  0.0988 -0.8334  0.5339
13722TIP3    H262658   2.120   0.406  11.863  1.3365  1.1490  1.2508
13723TIP3   OH262659   1.284   4.516   3.951 -0.1881  0.0806  0.3483
13723TIP3    H162660   1.369   4.502   3.908  0.4345 -1.0413  1.8919
13723TIP3    H262661   1.306   4.556   4.034 -1.1215 -0.8478  1.0581
13724TIP3   OH262662   5.613   5.412   4.943 -0.6107 -0.5347  0.1352
13724TIP3    H162663   5.689   5.454   4.983 -2.0677  0.5556  1.8606
13724TIP3    H262664   5.628   5.419   4.849  2.1564 -1.7530  0.4544
13725TIP3   OH262665   6.365   0.113  12.616  0.0162 -0.2233 -0.4184
13725TIP3    H162666   6.453   0.148  12.635 -0.4780  1.1884 -0.6613
13725TIP3    H262667   6.306   0.186  12.635 -0.8028  0.0651 -3.7934
13726TIP3   OH262668   1.324   2.743   0.805  0.3234 -0.2262  0.0807
13726TIP3    H162669   1.387   2.673   0.823 -0.1864 -0.6701  0.1320
13726TIP3    H262670   1.258   2.736   0.874  0.3833  0.4423  0.2144
13727TIP3   OH262671   3.749   3.706   5.049 -0.4242 -0.2735  0.7195
13727TIP3    H162672   3.837   3.670   5.045 -0.7364 -0.9610 -0.0542
13727TIP3    H262673   3.762   3.799   5.069  0.4341 -0.5451  1.4233
13728TIP3   OH262674   5.057   1.694  15.109 -0.1527 -0.4283  0.0563
13728TIP3    H162675   4.965   1.673  15.126 -0.2486  0.3464  0.5422
13728TIP3    H262676   5.102   1.673  15.191  0.2756 -1.8014 -0.5329
13729TIP3   OH262677   5.813   5.566  15.538  0.1541  0.2656  0.2279
13729TIP3    H162678   5.740   5.510  15.563 -0.1747  0.8890  0.7046
13729TIP3    H262679   5.890   5.526  15.579  0.0595 -0.3069 -0.1482
13730TIP3   OH262680   0.393   4.517  16.400  0.0253 -0.6723  0.1175
13730TIP3    H162681   0.391   4.599  16.352  0.2153  0.6592  2.3262
13730TIP3    H262682   0.485   4.490  16.397  0.3424  0.2489  1.0770
13731TIP3   OH262683   2.957   4.851   6.828  0.1455 -0.0231 -0.7349
13731TIP3    H162684   2.981   4.929   6.877 -1.1924  0.0684 -0.1935
13731TIP3    H262685   2.863   4.860   6.813  0.0300 -1.3711 -0.9412
13732TIP3   OH262686   2.405   2.322   2.073 -0.4745  0.1921  0.0103
13732TIP3    H162687   2.486   2.332   2.123 -0.1723 -1.5070 -0.0938
13732TIP3    H262688   2.345   2.386   2.111  0.6124  0.8092  0.7249
13733TIP3   OH262689   1.593   3.656   1.222  0.1804 -0.2089  0.6298
13733TIP3    H162690   1.504   3.681   1.195 -0.2140 -1.1765  1.0026
13733TIP3    H262691   1.650   3.721   1.181 -0.9059  2.0781  2.6503
13734TIP3   OH262692   1.442   2.005  17.191  0.6201 -0.2132  0.1345
13734TIP3    H162693   1.531   2.017  17.222  0.6423  1.0389 -0.3587
13734TIP3    H262694   1.445   2.033  17.099 -0.7322  1.9519  0.7148
13735TIP3   OH262695   0.700   4.593  14.890  0.0159  0.0116  0.2839
13735TIP3    H162696   0.674   4.614  14.800  1.0580  1.0596  0.2044
13735TIP3    H262697   0.745   4.509  14.883 -1.9380 -1.0393  0.1943
13736TIP3   OH262698   2.150   0.274   4.367  0.3049 -0.2197  0.0056
13736TIP3    H162699   2.147   0.219   4.289  3.5434  0.6353 -0.8271
13736TIP3    H262700   2.171   0.213   4.438 -2.2396 -0.9375  0.1642
13737TIP3   OH262701   4.241   0.344  13.849  0.2789 -0.1027 -0.0158
13737TIP3    H162702   4.283   0.409  13.905  0.6453  0.2525 -0.7013
13737TIP3    H262703   4.148   0.368  13.848  0.5260  0.8209 -0.8323
13738TIP3   OH262704   4.065   6.193  15.617 -0.6101 -0.0050 -0.4528
13738TIP3    H162705   4.148   6.241  15.610 -0.2896 -0.3724  0.7772
13738TIP3    H262706   4.090   6.101  15.611 -0.8458 -0.1448  0.7032
13739TIP3   OH262707   0.104   3.051   3.757  0.0220  0.0651 -0.3835
13739TIP3    H162708   0.157   2.979   3.790 -1.0623 -0.1264  1.0151
13739TIP3    H262709   0.047   3.010   3.691  0.0298 -0.1913 -0.2342
13740TIP3   OH262710   6.195   2.065   0.046 -0.1516 -0.1563  0.1704
13740TIP3    H162711   6.229   2.121  -0.024  0.3918 -0.2125  0.3876
13740TIP3    H262712   6.121   2.019   0.006  0.2002 -0.2422 -0.3886
13741TIP3   OH262713   5.480   3.944   3.228 -0.1761 -0.1910  0.2184
13741TIP3    H162714   5.471   3.853   3.258  1.0312 -0.2809  0.3192
13741TIP3    H262715   5.568   3.969   3.253 -0.3927  0.9157 -0.1004
13742TIP3   OH262716   4.714   2.046  13.795  0.0067  0.3085  0.1279
13742TIP3    H162717   4.754   1.976  13.743 -0.1670  0.7084 -0.5489
13742TIP3    H262718   4.678   2.106  13.731 -0.2655  0.7804  0.7163
13743TIP3   OH262719   3.059   1.957   1.656 -0.5982 -0.4687 -0.2145
13743TIP3    H162720   3.095   2.001   1.733 -1.2506  2.9026 -1.7258
13743TIP3    H262721   3.009   1.884   1.692  1.3374 -0.6070  2.3642
13744TIP3   OH262722   0.189   0.170  14.066 -0.1913  0.3465 -0.3826
13744TIP3    H162723   0.247   0.104  14.028 -0.6564  0.1053 -0.6657
13744TIP3    H262724   0.244   0.215  14.131 -0.2385 -1.1009  0.6651
13745TIP3   OH262725   6.446   1.189  14.503  1.0156  0.0482  0.2090
13745TIP3    H162726   6.516   1.165  14.564  1.0083  0.3745  0.3468
13745TIP3    H262727   6.392   1.251  14.552  0.3306 -0.6059  0.2847
13746TIP3   OH262728   1.623   2.532  12.900  0.5678  0.0666  0.3788
13746TIP3    H162729   1.705   2.483  12.907  0.4329 -0.0922  0.8416
13746TIP3    H262730   1.568   2.480  12.842  0.3769 -0.3934  0.9729
13747TIP3   OH262731   5.542   1.957   1.713  0.0779  0.5903  0.1353
13747TIP3    H162732   5.520   1.865   1.704 -0.9397  0.6708  1.7229
13747TIP3    H262733   5.516   1.980   1.802  1.0218  2.2189  0.0113
13748TIP3   OH262734   4.352   1.111  11.423 -0.5007  0.6211  0.4128
13748TIP3    H162735   4.354   1.019  11.399 -2.0347  1.4459 -3.3879
13748TIP3    H262736   4.435   1.146  11.391 -1.7714  1.3664 -2.2079
13749TIP3   OH262737   5.701   2.767  13.510 -0.0298 -0.0172  0.4652
13749TIP3    H162738   5.635   2.833  13.489  0.6102  0.2984 -0.6125
13749TIP3    H262739   5.783   2.816  13.516  0.1287 -0.4266  1.6503
13750TIP3   OH262740   2.461   4.167  12.305  0.3498  0.2237  0.3124
13750TIP3    H162741   2.366   4.176  12.297  0.0777 -0.5675  2.3688
13750TIP3    H262742   2.485   4.227  12.376  1.0368 -1.3680  1.4579
13751TIP3   OH262743   3.501   5.447  16.681  0.2134 -0.2006 -0.0218
13751TIP3    H162744   3.574   5.402  16.723 -0.1241  0.7595  1.6379
13751TIP3    H262745   3.459   5.379  16.628 -0.4642 -1.9710  2.6813
13752TIP3   OH262746   1.071   4.182  12.056 -0.0493  0.0609  0.1369
13752TIP3    H162747   1.129   4.141  11.993 -0.2849 -1.3111  0.7959
13752TIP3    H262748   1.121   4.255  12.092  1.0455 -0.7669  0.2926
13753TIP3   OH262749   0.350   3.961   0.817  0.3878 -0.0489  0.7210
13753TIP3    H162750   0.318   3.871   0.818 -0.2280  0.1426 -0.7712
13753TIP3    H262751   0.291   4.009   0.875  0.1371 -0.4056  0.7573
13754TIP3   OH262752   5.184   3.403   4.233 -0.1125 -0.6709 -0.2473
13754TIP3    H162753   5.130   3.457   4.292 -2.0416 -1.3619 -1.3151
13754TIP3    H262754   5.178   3.448   4.149  1.3347 -0.5376 -0.2768
13755TIP3   OH262755   4.348   1.297  14.516 -0.1480 -0.5051  0.2167
13755TIP3    H162756   4.392   1.330  14.438 -1.9502 -0.3696 -0.7543
13755TIP3    H262757   4.418   1.292  14.582  1.0321  1.0718 -0.8639
13756TIP3   OH262758   0.310   1.844   3.386 -0.0897  0.8558 -0.7442
13756TIP3    H162759   0.364   1.893   3.448  1.1167 -2.1924  0.7722
13756TIP3    H262760   0.222   1.849   3.422  0.7639 -1.8047  1.9997
13757TIP3   OH262761   0.812   1.346  13.581  0.3491 -0.0914  0.0740
13757TIP3    H162762   0.783   1.394  13.503  0.5076  0.2377  0.2180
13757TIP3    H262763   0.826   1.256  13.550  1.1620  0.2161 -0.4485
13758TIP3   OH262764   6.040   2.029  15.615 -0.6147  0.0739 -0.5841
13758TIP3    H162765   5.954   1.998  15.585 -1.2973  0.7320  0.6496
13758TIP3    H262766   6.053   2.111  15.567  0.1474 -0.9135 -2.1087
13759TIP3   OH262767   1.706   5.620  11.079  0.6446  0.2552 -0.2532
13759TIP3    H162768   1.785   5.572  11.054  0.7190 -1.4621  3.1032
13759TIP3    H262769   1.637   5.553  11.079 -0.4055  1.3203 -1.0306
13760TIP3   OH262770   0.530   4.975   2.304  0.4092 -0.1856  0.0601
13760TIP3    H162771   0.441   4.962   2.336  0.3988  1.0110  0.5353
13760TIP3    H262772   0.585   4.934   2.371  0.2712  0.1068  0.3542
13761TIP3   OH262773   0.734   3.476   3.847  0.1012 -0.0763  0.1327
13761TIP3    H162774   0.715   3.567   3.870 -1.7249 -0.3795 -0.1119
13761TIP3    H262775   0.672   3.425   3.899  0.7422 -1.1667 -0.1509
13762TIP3   OH262776   1.022   4.174   6.745  0.0568 -0.6836  0.5342
13762TIP3    H162777   1.004   4.268   6.739  0.5796 -0.6207 -0.1744
13762TIP3    H262778   1.087   4.158   6.676 -1.6637 -1.9554 -0.8582
13763TIP3   OH262779   1.210   3.935   4.107 -0.1363  0.4502  0.0223
13763TIP3    H162780   1.298   3.903   4.129 -0.1044  0.3023 -0.3050
13763TIP3    H262781   1.206   4.023   4.143 -0.5219 -0.2236  1.6681
13764TIP3   OH262782   5.676   3.269   1.850  0.1165 -0.1399 -0.1118
13764TIP3    H162783   5.678   3.360   1.879  1.5889 -0.1442 -0.1734
13764TIP3    H262784   5.755   3.230   1.887 -0.1183 -1.1978 -0.7003
13765TIP3   OH262785   2.466   0.979  14.415 -0.1811  1.0237  0.2630
13765TIP3    H162786   2.450   0.964  14.508  0.8255  0.9053  0.4164
13765TIP3    H262787   2.400   1.043  14.390  0.3375  1.9956  1.3474
13766TIP3   OH262788   1.289   4.111  11.926 -0.0992 -0.2221  0.1850
13766TIP3    H162789   1.338   4.137  12.004 -0.7107 -2.3154  1.3091
13766TIP3    H262790   1.355   4.106  11.857  1.1985 -2.3550  1.5213
13767TIP3   OH262791   5.611   1.271  14.895  0.5389  0.0516  0.1048
13767TIP3    H162792   5.546   1.336  14.868 -1.5166 -2.2081 -0.5501
13767TIP3    H262793   5.637   1.228  14.814  1.2900 -0.4764  0.6268
13768TIP3   OH262794   4.136   6.456   4.402 -0.2694 -0.2212  0.4029
13768TIP3    H162795   4.169   6.381   4.451  0.2009 -0.3755 -0.1338
13768TIP3    H262796   4.054   6.480   4.446 -0.2296 -0.8121  0.8054
13769TIP3   OH262797   1.357   4.626  11.054 -0.4565 -0.5030  0.1807
13769TIP3    H162798   1.342   4.600  11.145  0.2744 -0.0147  0.4465
13769TIP3    H262799   1.339   4.720  11.052 -3.1813 -0.9874 -0.7994
13770TIP3   OH262800   6.223   1.898  15.124 -0.5633 -0.6086  0.3631
13770TIP3    H162801   6.210   1.967  15.190 -0.6725 -0.7147  0.4511
13770TIP3    H262802   6.246   1.946  15.044 -1.7316 -0.4083  0.1407
13771TIP3   OH262803   6.444   4.852   2.154  0.3007  0.0681 -0.0063
13771TIP3    H162804   6.489   4.924   2.110 -1.2127  0.4958 -0.9074
13771TIP3    H262805   6.514   4.800   2.194  1.7450 -0.1735 -2.6756
13772TIP3   OH262806   6.801   6.294  12.974 -0.3965 -0.1986  0.5024
13772TIP3    H162807   6.790   6.294  12.879 -0.3603  1.8085  0.4791
13772TIP3    H262808   6.774   6.206  13.001  0.8505 -1.2502 -1.4945
13773TIP3   OH262809   2.701   4.513   4.064 -0.2822  0.0942 -0.3069
13773TIP3    H162810   2.747   4.561   4.133  1.5406 -2.6476  0.4456
13773TIP3    H262811   2.749   4.535   3.984 -1.2250  1.7410 -0.4587
13774TIP3   OH262812   5.819   3.574   2.762  0.0109 -0.8435  0.2293
13774TIP3    H162813   5.852   3.644   2.706 -0.9382 -0.7954 -0.2793
13774TIP3    H262814   5.742   3.541   2.716 -1.9463  0.5227  2.4736
13775TIP3   OH262815   5.789   6.433  16.878 -0.0885  0.1309  0.1422
13775TIP3    H162816   5.759   6.489  16.806 -1.1748  0.5480  0.9192
13775TIP3    H262817   5.787   6.345  16.841 -2.5388  0.1231  0.2742
13776TIP3   OH262818   6.280   4.946   4.962 -0.0442  0.0321  0.1266
13776TIP3    H162819   6.236   4.897   4.892  0.3637 -0.5489  0.2767
13776TIP3    H262820   6.217   4.945   5.034 -0.3152  0.3156 -0.1043
13777TIP3   OH262821   6.402   2.497   1.936  0.5755 -0.6551  0.3398
13777TIP3    H162822   6.390   2.404   1.951 -0.2167 -0.2971  2.1233
13777TIP3    H262823   6.319   2.537   1.964  1.1101  0.6425  0.1446
13778TIP3   OH262824   6.364   6.095  13.581 -0.3382 -0.1626  0.0652
13778TIP3    H162825   6.439   6.065  13.530 -0.0392 -0.1381  0.4820
13778TIP3    H262826   6.378   6.058  13.668 -2.0168 -2.0869 -0.4675
13779TIP3   OH262827   0.247   4.767   5.257  0.6038  0.0901  0.7550
13779TIP3    H162828   0.162   4.793   5.221  1.4856  2.5377  0.3838
13779TIP3    H262829   0.275   4.695   5.201 -1.6723 -1.4366  1.5064
13780TIP3   OH262830   1.315   5.142  15.906  0.4460 -0.1415  0.4406
13780TIP3    H162831   1.407   5.119  15.914  0.6371  0.4034 -0.1778
13780TIP3    H262832   1.303   5.216  15.966  0.5130  0.0735  0.1894
13781TIP3   OH262833   0.931   4.620   5.437 -0.1472  0.6448 -0.0221
13781TIP3    H162834   0.891   4.705   5.456 -1.4986 -0.2401  1.1684
13781TIP3    H262835   0.882   4.558   5.491  0.4506 -0.9744 -1.3100
13782TIP3   OH262836   6.362   6.252  13.162  0.0500 -0.0533  0.2686
13782TIP3    H162837   6.321   6.335  13.137 -0.7852 -0.1354  1.3118
13782TIP3    H262838   6.303   6.185  13.127  0.5785 -0.2051 -0.3325
13783TIP3   OH262839   2.765   2.951   4.919  0.0166  0.0701 -0.1734
13783TIP3    H162840   2.707   2.920   4.989  2.3216 -1.0082  1.3199
13783TIP3    H262841   2.720   3.028   4.884 -2.6162 -1.0690  0.4988
13784TIP3   OH262842   2.214   1.714   1.313  0.0654 -0.4961 -0.3959
13784TIP3    H162843   2.210   1.775   1.239 -1.0639 -0.4210 -0.2944
13784TIP3    H262844   2.158   1.755   1.379  1.4696 -0.3190  0.6847
13785TIP3   OH262845   6.526   5.900  17.061  0.1701  0.5226  0.0399
13785TIP3    H162846   6.445   5.880  17.015  0.4099 -0.3432 -0.0224
13785TIP3    H262847   6.545   5.820  17.111  0.4611  1.0749  0.8233
13786TIP3   OH262848   0.646   4.997  15.444 -0.0484 -0.3519 -0.0610
13786TIP3    H162849   0.705   5.065  15.412 -1.7008  0.6816 -0.9418
13786TIP3    H262850   0.635   4.938  15.370  0.9867 -1.3364  0.5496
13787TIP3   OH262851   5.407   0.225  15.252  0.5414 -0.0577 -0.3731
13787TIP3    H162852   5.348   0.280  15.200  0.4959  1.3829  1.1439
13787TIP3    H262853   5.494   0.243  15.216  0.3940  0.1226 -0.6423
13788TIP3   OH262854   2.118   2.553   4.087 -0.3330  0.2756 -0.3394
13788TIP3    H162855   2.073   2.617   4.142  0.5814  0.4598  0.2166
13788TIP3    H262856   2.188   2.604   4.046 -0.2071 -0.1566 -0.6525
13789TIP3   OH262857   4.858   4.154   5.599 -0.0689 -0.8307  0.0824
13789TIP3    H162858   4.852   4.071   5.646  0.4731  0.1256  1.9118
13789TIP3    H262859   4.809   4.140   5.518 -2.0052 -2.1901  1.4400
13790TIP3   OH262860   4.684   2.487   1.281  0.4428 -0.0236 -0.8088
13790TIP3    H162861   4.766   2.534   1.298 -0.7418  1.5629  0.7074
13790TIP3    H262862   4.647   2.532   1.205 -0.3256  1.0461  0.1813
13791TIP3   OH262863   4.804   6.504   5.863 -0.2586  0.4350  0.4305
13791TIP3    H162864   4.898   6.514   5.873  0.0299  0.7189 -2.2321
13791TIP3    H262865   4.768   6.591   5.883  0.1306  0.6200  0.3097
13792TIP3   OH262866   6.223   3.526   5.054 -0.1914 -0.3040 -0.6845
13792TIP3    H162867   6.269   3.538   4.971  1.5078 -1.9370 -0.0155
13792TIP3    H262868   6.271   3.582   5.116 -0.8024  0.1034 -0.5810
13793TIP3   OH262869   3.768   1.145  16.918 -0.2586 -0.0545  0.6010
13793TIP3    H162870   3.863   1.143  16.930 -0.2875 -0.1285  0.8200
13793TIP3    H262871   3.733   1.164  17.006 -0.4569 -0.2922  0.5719
13794TIP3   OH262872   1.534   2.390   5.348  0.1878  0.0516  0.7759
13794TIP3    H162873   1.527   2.312   5.292 -1.7824  0.6120  0.1652
13794TIP3    H262874   1.494   2.363   5.430 -1.3203  0.6652  0.2593
13795TIP3   OH262875   3.152   4.707  16.747  0.0993 -0.9145  0.3248
13795TIP3    H162876   3.067   4.679  16.780  0.5004 -0.9256  1.3817
13795TIP3    H262877   3.145   4.802  16.738 -0.2398 -0.9925 -0.2253
13796TIP3   OH262878   4.535   5.931   1.243  0.3976 -0.0361  0.0842
13796TIP3    H162879   4.492   6.016   1.247 -0.5313 -0.5004  0.0729
13796TIP3    H262880   4.557   5.911   1.334  1.0326  0.4221  0.0344
13797TIP3   OH262881   1.644   4.305  11.859 -0.1618 -0.5534 -0.5425
13797TIP3    H162882   1.650   4.398  11.882  0.4186 -0.7317  0.0316
13797TIP3    H262883   1.718   4.264  11.903 -1.5538 -1.6235  0.8511
13798TIP3   OH262884   1.514   1.288   1.477  0.0380 -0.2328 -0.0808
13798TIP3    H162885   1.574   1.267   1.406 -0.5914 -0.4181 -0.5537
13798TIP3    H262886   1.540   1.376   1.505  0.5680 -0.3356 -0.2466
13799TIP3   OH262887   0.452   2.774  13.155  0.1503  0.2206 -0.3192
13799TIP3    H162888   0.468   2.723  13.076  1.1003 -1.2429  0.7898
13799TIP3    H262889   0.402   2.715  13.212 -0.4642  1.2312  0.1984
13800TIP3   OH262890   0.180   6.174   3.622 -0.0079  0.3564  0.2894
13800TIP3    H162891   0.196   6.097   3.567 -0.4236  0.3469  0.1803
13800TIP3    H262892   0.259   6.182   3.675  1.6974  2.1942 -2.4288
13801TIP3   OH262893   4.643   5.568  16.140 -0.3386 -0.1029 -0.4738
13801TIP3    H162894   4.723   5.518  16.153 -0.3307  0.2060  0.7707
13801TIP3    H262895   4.639   5.584  16.046  0.6382 -0.8141 -0.6423
13802TIP3   OH262896   0.604   4.026   0.864  0.4610  0.3856 -0.4056
13802TIP3    H162897   0.581   4.106   0.912 -0.3181 -1.8959  3.2521
13802TIP3    H262898   0.520   3.986   0.842  0.8296 -0.5276 -0.2008
13803TIP3   OH262899   1.028   6.194  11.868  0.3549  0.3562  0.7794
13803TIP3    H162900   0.986   6.271  11.908  0.9842  0.6223  0.9362
13803TIP3    H262901   1.120   6.219  11.860 -0.3004  1.6134 -3.9272
13804TIP3   OH262902   4.678   1.454   2.922 -0.8551  0.8795  1.1793
13804TIP3    H162903   4.596   1.460   2.971 -1.1236 -1.3487  1.0524
13804TIP3    H262904   4.743   1.493   2.981 -2.1096  3.3403  0.9682
13805TIP3   OH262905   4.317   5.524   0.422 -0.0372  0.2829 -0.6565
13805TIP3    H162906   4.245   5.567   0.377 -0.4838 -1.3000 -1.4886
13805TIP3    H262907   4.386   5.591   0.426 -1.5084  1.8051  0.1327
13806TIP3   OH262908   4.340   2.876   5.272  0.3131 -0.3128  0.6032
13806TIP3    H162909   4.371   2.966   5.273  0.9684 -0.5247  0.0018
13806TIP3    H262910   4.276   2.872   5.343 -0.0214  0.7246  0.3707
13807TIP3   OH262911   3.125   5.496  12.501  0.2100  0.3606 -0.7328
13807TIP3    H162912   3.123   5.521  12.594  1.0702  1.2036 -0.9362
13807TIP3    H262913   3.129   5.401  12.503 -2.3669  0.2251  0.0633
13808TIP3   OH262914   6.734   5.222  10.955 -0.0405 -0.6611  0.1717
13808TIP3    H162915   6.702   5.134  10.974  0.0576 -1.0429 -1.4137
13808TIP3    H262916   6.672   5.257  10.890 -0.2136  0.5304  0.9540
13809TIP3   OH262917   2.241   5.270  11.613 -0.1796  0.3584  0.2278
13809TIP3    H162918   2.186   5.332  11.566 -0.8314 -0.4579 -0.1092
13809TIP3    H262919   2.303   5.239  11.548  1.3170  1.9891  0.8443
13810TIP3   OH262920   6.306   4.271  14.619  0.2276  0.1678 -0.2829
13810TIP3    H162921   6.211   4.279  14.620  0.3335  1.8855 -1.4276
13810TIP3    H262922   6.323   4.184  14.655 -1.6226  1.0135  2.7840
13811TIP3   OH262923   3.564   0.839  11.925 -0.0470  0.6359  0.6113
13811TIP3    H162924   3.576   0.932  11.941 -1.2050  0.7169  1.0456
13811TIP3    H262925   3.469   0.826  11.925  0.1037 -0.5961  0.8754
13812TIP3   OH262926   2.087   6.468   0.573  0.1370 -0.3547  0.1219
13812TIP3    H162927   2.139   6.518   0.511 -0.0981 -1.4807 -1.0025
13812TIP3    H262928   2.148   6.444   0.642  0.2982  1.2709  0.5709
13813TIP3   OH262929   1.532   0.445  13.886 -0.3760  0.1782  0.1057
13813TIP3    H162930   1.618   0.403  13.881  0.7727  2.4706  0.0601
13813TIP3    H262931   1.531   0.509  13.815 -2.1406  0.1647  0.0787
13814TIP3   OH262932   3.018   6.727  11.724  0.0975  0.0527  0.0861
13814TIP3    H162933   2.936   6.743  11.770  1.1346 -1.1971  2.4548
13814TIP3    H262934   3.014   6.635  11.699  1.1416 -0.2499  0.9987
13815TIP3   OH262935   1.940   3.171  14.174 -0.2721  0.1532  0.1133
13815TIP3    H162936   1.852   3.146  14.203  1.0889 -1.2772  3.1180
13815TIP3    H262937   1.942   3.266  14.185 -1.7290  0.3213 -0.8663
13816TIP3   OH262938   4.011   4.038  16.413  1.1935  0.0680  0.3331
13816TIP3    H162939   4.090   4.028  16.360  1.1668 -1.0360  0.4710
13816TIP3    H262940   4.012   4.129  16.442  2.8781 -0.1621  1.0527
13817TIP3   OH262941   2.402   1.072   3.398 -0.0672 -0.6238 -0.7268
13817TIP3    H162942   2.425   1.021   3.320  1.6071 -0.7400 -0.1855
13817TIP3    H262943   2.363   1.152   3.364 -1.8182 -1.8370 -1.6106
13818TIP3   OH262944   6.629   2.244  15.446  0.2104 -0.3809 -0.0087
13818TIP3    H162945   6.564   2.175  15.435 -1.2903  0.7908  1.1788
13818TIP3    H262946   6.578   2.325  15.447  1.8222  0.6575 -0.2604
13819TIP3   OH262947   2.563   5.680  14.131 -0.1150  0.4473 -0.3380
13819TIP3    H162948   2.514   5.600  14.109 -1.2136  0.9314  0.3393
13819TIP3    H262949   2.572   5.726  14.047  2.0795 -1.2242 -1.0653
13820TIP3   OH262950   2.942   2.693   1.684 -0.1797 -0.4971 -0.1320
13820TIP3    H162951   2.931   2.684   1.779 -1.8651 -0.8616 -0.3526
13820TIP3    H262952   3.011   2.759   1.674 -2.4290  2.1678  1.3329
13821TIP3   OH262953   4.265   2.968  14.159  0.2441 -0.0666 -0.4798
13821TIP3    H162954   4.346   3.006  14.194 -0.5301 -0.3714  1.6824
13821TIP3    H262955   4.295   2.905  14.093  1.7129  0.6286 -0.5104
13822TIP3   OH262956   4.531   4.929   0.810 -0.9108 -0.2925 -0.4077
13822TIP3    H162957   4.613   4.885   0.791 -0.4232  1.1385 -1.6754
13822TIP3    H262958   4.527   4.933   0.906  0.2934 -0.7291 -0.3419
13823TIP3   OH262959   3.137   3.596  12.165 -0.0042  0.3597 -0.9165
13823TIP3    H162960   3.158   3.507  12.137 -0.8284 -0.3835  0.7594
13823TIP3    H262961   3.058   3.619  12.114  0.0182  0.0094 -1.1073
13824TIP3   OH262962   5.503   4.645  14.844  0.2664  0.1855  0.0274
13824TIP3    H162963   5.557   4.671  14.770  1.3337  0.6428  0.9642
13824TIP3    H262964   5.561   4.595  14.901 -0.5752 -0.2738  0.5047
13825TIP3   OH262965   5.962   3.308  12.507 -0.6182  0.4024  0.2382
13825TIP3    H162966   5.951   3.388  12.558  3.7197  2.0525 -1.1938
13825TIP3    H262967   5.990   3.338  12.421  1.4757 -2.6507 -0.2175
13826TIP3   OH262968   1.899   1.616  14.654 -0.3384  0.2911 -0.5566
13826TIP3    H162969   1.940   1.648  14.734 -0.3509  2.1670 -1.2819
13826TIP3    H262970   1.947   1.659  14.583 -0.7681 -0.8129 -1.5407
13827TIP3   OH262971   5.223   6.374   0.157 -1.2029  0.2560 -0.0408
13827TIP3    H162972   5.197   6.429   0.231  0.7145  2.6200 -1.0659
13827TIP3    H262973   5.167   6.403   0.085 -0.3750  0.6544 -0.5189
13828TIP3   OH262974   4.618   0.600   0.921  0.3970 -0.1609 -0.2622
13828TIP3    H162975   4.610   0.551   1.003 -0.0625 -1.2358 -0.9446
13828TIP3    H262976   4.691   0.558   0.875 -0.0338 -0.2506 -0.8714
13829TIP3   OH262977   4.398   6.289   2.475  0.3972  0.3545  0.1606
13829TIP3    H162978   4.353   6.252   2.399  1.2764  1.1558 -0.7727
13829TIP3    H262979   4.358   6.375   2.488 -0.0685  0.0300  0.8963
13830TIP3   OH262980   5.991   2.953   5.180 -0.1430  0.0419  0.1827
13830TIP3    H162981   6.085   2.970   5.184 -0.4394  1.9148 -0.5331
13830TIP3    H262982   5.978   2.911   5.095  0.0267 -0.1060  0.2294
13831TIP3   OH262983   3.660   0.249  16.732 -0.3527 -0.4507 -0.0363
13831TIP3    H162984   3.694   0.265  16.643 -0.3620 -0.2103  0.0047
13831TIP3    H262985   3.652   0.336  16.771 -2.7487 -0.3525 -0.6716
13832TIP3   OH262986   4.962   1.841  16.505 -0.0920 -0.2587  0.4288
13832TIP3    H162987   4.972   1.751  16.537  2.2390  0.0943  0.7250
13832TIP3    H262988   4.925   1.831  16.417  0.6695 -1.5192  0.2451
13833TIP3   OH262989   3.594   5.340   4.717  0.1394  0.3771  0.3735
13833TIP3    H162990   3.651   5.299   4.781  1.2240  1.0071 -0.1670
13833TIP3    H262991   3.654   5.381   4.654 -0.8949 -0.2332 -1.0407
13834TIP3   OH262992   6.790   5.700  15.450 -0.4110  0.3538  0.1353
13834TIP3    H162993   6.817   5.715  15.359 -1.0548 -1.6543 -0.4100
13834TIP3    H262994   6.871   5.704  15.500  0.2568 -0.6167 -0.8259
13835TIP3   OH262995   3.333   0.459  11.677  0.2323  0.0786 -0.1487
13835TIP3    H162996   3.394   0.522  11.715  0.8467 -0.0310 -0.9406
13835TIP3    H262997   3.375   0.374  11.691 -0.1928 -0.0776  0.1642
13836TIP3   OH262998   4.973   3.713  14.706  0.0322 -0.7735  0.1291
13836TIP3    H162999   5.064   3.732  14.684  0.1702 -0.2208  1.1453
13836TIP3    H263000   4.923   3.742  14.629  0.5783  0.3337  0.1889
13837TIP3   OH263001   4.687   1.772   1.345  0.6833  0.2021  0.6314
13837TIP3    H163002   4.645   1.843   1.296 -0.6668  0.4828  2.1591
13837TIP3    H263003   4.723   1.815   1.422 -0.0391 -0.7522  1.5105
13838TIP3   OH263004   6.625   0.153   3.142  1.1640  0.3995  0.2842
13838TIP3    H163005   6.568   0.195   3.207  0.0494  0.7974 -0.9093
13838TIP3    H263006   6.619   0.060   3.161 -1.7249  0.2045 -1.1677
13839TIP3   OH263007   0.162   1.573   2.537  0.0304 -0.1793  0.4518
13839TIP3    H163008   0.251   1.608   2.545 -0.5403  1.9324 -1.8314
13839TIP3    H263009   0.170   1.502   2.473  0.2199 -0.5804  0.9176
13840TIP3   OH263010   2.309   1.415   2.414  0.4747  0.1833 -0.0722
13840TIP3    H163011   2.337   1.408   2.322  1.4650  0.9888  0.1550
13840TIP3    H263012   2.214   1.428   2.409  0.3853 -0.7100 -0.9424
13841TIP3   OH263013   1.065   3.504   0.451 -0.4553  0.1710 -0.0157
13841TIP3    H163014   1.136   3.448   0.418 -1.4810 -0.9703 -0.3283
13841TIP3    H263015   1.027   3.543   0.372 -1.1494 -0.4229  0.0164
13842TIP3   OH263016   3.425   4.233   3.463  0.8296 -0.0243 -0.0694
13842TIP3    H163017   3.373   4.279   3.529 -1.7887 -0.7980 -1.5441
13842TIP3    H263018   3.482   4.174   3.514 -0.9938 -0.4556  1.5197
13843TIP3   OH263019   4.417   0.006  17.120 -0.2967  0.0013 -0.3366
13843TIP3    H163020   4.367   0.038  17.045 -0.7865  0.0696  0.0249
13843TIP3    H263021   4.364   0.027  17.196  0.3198  0.1663  0.0558
13844TIP3   OH263022   0.926   3.962   2.497 -0.1784  0.1580  0.1902
13844TIP3    H163023   0.880   4.001   2.422 -0.7545 -0.8127  0.0328
13844TIP3    H263024   0.934   4.034   2.560  0.1003  0.9254 -0.6991
13845TIP3   OH263025   1.894   1.647   2.476 -0.3181 -0.0832 -0.7581
13845TIP3    H163026   1.899   1.664   2.382 -1.8321  1.1484 -0.6313
13845TIP3    H263027   1.885   1.734   2.516 -0.6487 -0.6617  0.4597
13846TIP3   OH263028   4.849   6.732  13.707 -0.4260  0.7504 -0.4362
13846TIP3    H163029   4.863   6.758  13.616 -0.9977  0.4645 -0.6083
13846TIP3    H263030   4.770   6.779  13.734 -1.1867 -0.4204 -0.5942
13847TIP3   OH263031   5.305   5.754  17.061  0.4617 -0.1141  0.0056
13847TIP3    H163032   5.331   5.801  17.140  0.7542 -1.2795  0.6243
13847TIP3    H263033   5.383   5.758  17.005  0.5130  0.0776  0.0872
13848TIP3   OH263034   3.868   5.237   0.715  0.4504  0.3778  0.2454
13848TIP3    H163035   3.921   5.255   0.637 -0.9111  1.9461 -0.3498
13848TIP3    H263036   3.931   5.228   0.786  1.6282  0.2234 -0.7997
13849TIP3   OH263037   4.975   1.147   0.808 -0.0466  0.2830 -0.2746
13849TIP3    H163038   4.912   1.216   0.792 -0.2106 -0.1865 -1.7409
13849TIP3    H263039   4.951   1.077   0.746  0.0231 -1.1375  1.2596
13850TIP3   OH263040   3.575   1.163   5.746 -0.2797  0.4037  0.2031
13850TIP3    H163041   3.543   1.120   5.667 -2.0473  0.5854  0.7949
13850TIP3    H263042   3.668   1.141   5.749 -0.7538 -1.8744 -0.4722
13851TIP3   OH263043   4.568   5.565  10.494  0.1277  0.6874  0.3378
13851TIP3    H163044   4.509   5.491  10.488 -0.3238  1.0064  0.8433
13851TIP3    H263045   4.513   5.638  10.521  0.2974  1.5400 -1.4856
13852TIP3   OH263046   4.296   0.350   2.145  0.0993 -0.0489  0.2042
13852TIP3    H163047   4.296   0.441   2.175  1.1404  0.3909 -1.0679
13852TIP3    H263048   4.280   0.298   2.224  0.7675  1.1678  1.1478
13853TIP3   OH263049   3.404   5.900  16.221 -0.2528  0.2264  0.0686
13853TIP3    H163050   3.309   5.893  16.207 -0.0068  0.3610 -1.7559
13853TIP3    H263051   3.426   5.987  16.186  0.9001 -0.7173 -1.5711
13854TIP3   OH263052   3.450   5.905  14.528  0.4320 -0.0880 -0.4092
13854TIP3    H163053   3.506   5.980  14.548  0.1309 -0.5691  2.3634
13854TIP3    H263054   3.379   5.942  14.476 -0.4688  1.8587  2.0961
13855TIP3   OH263055   5.421   0.963  17.097  0.1330  0.4217  0.0822
13855TIP3    H163056   5.345   0.953  17.154  0.8754  1.2737  1.2339
13855TIP3    H263057   5.385   0.964  17.009 -0.8374 -3.2208  0.3595
13856TIP3   OH263058   6.585   0.512   0.597  0.1558 -0.2663  0.5392
13856TIP3    H163059   6.662   0.461   0.572  0.9094  1.8664 -1.6322
13856TIP3    H263060   6.512   0.450   0.589  0.9543 -0.8367 -2.7385
13857TIP3   OH263061   1.501   4.992   4.247  0.0894  0.3843 -0.4070
13857TIP3    H163062   1.545   4.930   4.305  1.0328  2.9495  1.6819
13857TIP3    H263063   1.412   4.998   4.281  0.1671  0.6260 -0.2467
13858TIP3   OH263064   0.668   6.442   0.924 -0.1114 -0.0061 -0.3503
13858TIP3    H163065   0.617   6.517   0.894  1.4019  1.0470 -0.3206
13858TIP3    H263066   0.611   6.367   0.909 -1.3907  1.0753 -0.9826
13859TIP3   OH263067   3.935   3.639   0.740 -0.3984 -0.0274  0.2705
13859TIP3    H163068   3.890   3.703   0.795 -0.9274  0.3875 -0.6429
13859TIP3    H263069   3.937   3.679   0.653  1.5123 -0.1491  0.2370
13860TIP3   OH263070   6.043   4.294   1.577 -0.2151  0.4578  0.4275
13860TIP3    H163071   5.999   4.247   1.506 -1.3399  0.5215  1.0643
13860TIP3    H263072   5.980   4.361   1.605  0.0167  0.1388  1.7755
13861TIP3   OH263073   4.658   1.923  14.541 -0.3781 -0.0740  0.2247
13861TIP3    H163074   4.673   1.943  14.633 -0.7686  0.4518  0.1758
13861TIP3    H263075   4.573   1.880  14.538  0.5052 -1.8947  0.3418
13862TIP3   OH263076   5.740   5.294   4.490  0.4105  0.8723  0.0907
13862TIP3    H163077   5.675   5.363   4.478  0.9667  1.5172  0.7012
13862TIP3    H263078   5.781   5.315   4.574  1.6907  0.7186 -0.4839
13863TIP3   OH263079   3.168   2.823   4.151 -0.1972 -0.2808 -0.3198
13863TIP3    H163080   3.194   2.824   4.243 -2.2089 -2.1264  0.2936
13863TIP3    H263081   3.160   2.731   4.128  0.6604  0.1475 -2.4755
13864TIP3   OH263082   5.543   1.029   5.978  0.0803  0.1746 -0.1478
13864TIP3    H163083   5.550   1.123   5.962 -0.9466  0.2662 -0.0682
13864TIP3    H263084   5.500   1.023   6.063  1.7501 -0.3531  0.6880
13865TIP3   OH263085   5.308   4.013  14.689  0.2772 -0.6869  0.3039
13865TIP3    H163086   5.223   3.971  14.676  0.0518  0.3642 -1.7800
13865TIP3    H263087   5.296   4.067  14.767 -1.0245 -0.4363 -0.0556
13866TIP3   OH263088   3.774   0.914   4.968 -0.4206  0.3366 -0.2338
13866TIP3    H163089   3.759   0.901   5.062  3.3841 -0.6428  0.3264
13866TIP3    H263090   3.799   1.006   4.960 -0.6453  0.3950 -0.2537
13867TIP3   OH263091   3.831   3.488  13.405 -0.3760  0.1730 -0.4271
13867TIP3    H163092   3.738   3.494  13.426 -0.4461  0.3633 -0.8002
13867TIP3    H263093   3.869   3.569  13.439 -0.3504  0.1141 -0.3118
13868TIP3   OH263094   2.645   4.285  16.425  0.8271 -0.0124 -0.8509
13868TIP3    H163095   2.607   4.291  16.512 -1.1532 -0.2401 -1.6856
13868TIP3    H263096   2.686   4.198  16.422  1.1291  0.1005 -0.0742
13869TIP3   OH263097   1.687   6.554   4.685 -0.1434 -0.1545  0.1850
13869TIP3    H163098   1.770   6.600   4.672  0.4786 -1.2331  0.2647
13869TIP3    H263099   1.691   6.522   4.775 -0.8637  0.2099  0.3462
13870TIP3   OH263100   4.974   4.407   1.363 -0.0593 -0.8436 -0.3625
13870TIP3    H163101   4.987   4.486   1.311 -3.0074 -0.2132 -0.2604
13870TIP3    H263102   5.024   4.422   1.443 -0.1310  0.6924 -0.5888
13871TIP3   OH263103   1.000   1.399  13.910 -0.6303  0.2839 -0.2885
13871TIP3    H163104   0.953   1.472  13.950 -0.1652 -0.6194  1.9538
13871TIP3    H263105   1.091   1.428  13.907 -0.6263  0.2526 -0.4708
13872TIP3   OH263106   3.365   0.061   5.414  0.5566  0.0824 -1.1359
13872TIP3    H163107   3.442   0.035   5.362  1.2309  1.5532 -0.9043
13872TIP3    H263108   3.387   0.036   5.504  1.4294  1.8842 -0.8297
13873TIP3   OH263109   2.090   5.465   0.935  0.6979  0.4422  0.2166
13873TIP3    H163110   2.051   5.393   0.986 -1.0649  0.8757 -0.4874
13873TIP3    H263111   2.183   5.442   0.929  0.0309 -2.1722 -0.6635
13874TIP3   OH263112   2.874   0.887   4.074 -0.0231 -0.1462  0.2532
13874TIP3    H163113   2.813   0.953   4.041 -0.1071 -0.9533 -1.2663
13874TIP3    H263114   2.818   0.824   4.120 -0.1960 -0.2847 -0.1456
13875TIP3   OH263115   3.622   6.078  13.403 -0.1302  0.0036 -0.4929
13875TIP3    H163116   3.713   6.109  13.411 -0.5872  1.6379 -1.3993
13875TIP3    H263117   3.630   5.991  13.365  1.0855  0.0859 -0.4455
13876TIP3   OH263118   6.501   3.389  12.548  0.3612  0.0741  0.3182
13876TIP3    H163119   6.441   3.423  12.482  0.1317 -0.2628  0.3469
13876TIP3    H263120   6.492   3.449  12.622 -1.0108 -0.7493  0.8667
13877TIP3   OH263121   1.174   3.781   5.133 -0.5309 -0.1716 -0.0297
13877TIP3    H163122   1.200   3.718   5.066 -1.2133 -1.0118  0.4928
13877TIP3    H263123   1.079   3.788   5.126 -0.4894  0.5950  0.0935
13878TIP3   OH263124   4.444   2.261  12.342 -0.5472 -0.8485 -0.1037
13878TIP3    H163125   4.382   2.332  12.361  0.3996  0.2247 -0.9596
13878TIP3    H263126   4.414   2.226  12.258 -0.4938 -0.8870 -0.1065
13879TIP3   OH263127   2.279   0.033  14.519 -0.9051  0.0049 -0.4110
13879TIP3    H163128   2.212   0.099  14.540 -0.6396  0.5605 -1.3209
13879TIP3    H263129   2.331   0.072  14.449  2.4467  0.9771  2.4477
13880TIP3   OH263130   1.444   3.251  11.295  0.0804 -0.8635  0.2231
13880TIP3    H163131   1.460   3.161  11.324  0.0266 -0.7996  0.4518
13880TIP3    H263132   1.500   3.304  11.350 -0.4020 -0.6985  0.5555
13881TIP3   OH263133   2.521   1.779   1.231 -0.5251 -0.4222 -0.7907
13881TIP3    H163134   2.450   1.819   1.181 -1.6638 -2.2850 -0.6963
13881TIP3    H263135   2.477   1.727   1.299  0.9648  0.7436  1.1352
13882TIP3   OH263136   1.566   4.466  12.138 -0.5504 -0.2624 -0.6076
13882TIP3    H163137   1.481   4.438  12.104  0.6600 -2.4170 -1.9901
13882TIP3    H263138   1.613   4.499  12.061  0.4737 -0.7000 -0.1911
13883TIP3   OH263139   6.287   1.998  15.702  0.2731  0.3151 -0.1726
13883TIP3    H163140   6.292   2.091  15.725  0.3614  0.1439  0.5083
13883TIP3    H263141   6.198   1.986  15.670  0.9144  1.0928 -2.3041
13884TIP3   OH263142   4.990   3.899  14.494 -0.2553 -0.0513 -0.2023
13884TIP3    H163143   4.923   3.952  14.537 -0.3316  0.9232 -1.5021
13884TIP3    H263144   4.941   3.848  14.429  0.3184  1.0729 -1.5396
13885TIP3   OH263145   2.510   3.151   4.218 -0.3396  0.1403 -0.6668
13885TIP3    H163146   2.552   3.137   4.133 -1.3960  1.1480 -1.3788
13885TIP3    H263147   2.442   3.083   4.222 -1.7313  1.4198 -1.6255
13886TIP3   OH263148   0.877   6.264  12.955  0.2896 -0.0241  0.4509
13886TIP3    H163149   0.898   6.192  12.896  1.3747  0.3721  0.3449
13886TIP3    H263150   0.896   6.343  12.903 -0.6429  0.3361  0.6501
13887TIP3   OH263151   5.842   5.440   5.123 -0.1003 -0.4523  0.1289
13887TIP3    H163152   5.903   5.412   5.191  0.7896 -0.4944 -0.6826
13887TIP3    H263153   5.880   5.406   5.041 -1.3652 -0.7471 -0.3438
13888TIP3   OH263154   5.954   2.423   3.462  0.2388 -0.1060 -0.3865
13888TIP3    H163155   5.968   2.334   3.431  0.3784  0.0246 -0.6959
13888TIP3    H263156   6.021   2.475   3.418 -0.1124  0.2237 -0.5314
13889TIP3   OH263157   5.880   6.123   1.953 -0.0219 -0.9184  0.8095
13889TIP3    H163158   5.836   6.124   2.038 -1.6406 -2.0682  0.0074
13889TIP3    H263159   5.940   6.197   1.956 -0.5322 -0.5677  2.7188
13890TIP3   OH263160   3.114   2.796   0.229  0.1282 -0.5288 -0.2124
13890TIP3    H163161   3.096   2.707   0.199  0.3021 -0.4840 -0.4460
13890TIP3    H263162   3.200   2.791   0.271 -0.2940 -0.6803  0.6520
13891TIP3   OH263163   6.245   2.659  15.613 -0.3216  0.5497 -0.0670
13891TIP3    H163164   6.153   2.633  15.622 -0.5024  0.4614 -1.9274
13891TIP3    H263165   6.281   2.650  15.701 -2.0170  0.2733  0.6208
13892TIP3   OH263166   6.216   1.743  14.004  0.4085  0.0887  0.0712
13892TIP3    H163167   6.234   1.653  14.032 -0.6810 -0.4444 -0.8898
13892TIP3    H263168   6.174   1.783  14.079  2.2197  0.2403  1.0197
13893TIP3   OH263169   3.525   3.799  10.913 -0.4145  0.0999  0.1751
13893TIP3    H163170   3.460   3.742  10.871 -0.0552 -1.3361  1.5193
13893TIP3    H263171   3.579   3.830  10.841 -0.5821 -1.3254 -0.5895
13894TIP3   OH263172   6.508   6.731  14.105  0.1162  0.0969 -0.1245
13894TIP3    H163173   6.484   6.824  14.111 -1.6355 -0.1820 -2.0902
13894TIP3    H263174   6.602   6.731  14.087  0.3054  1.4595  0.8106
13895TIP3   OH263175   6.592   2.797   5.021  0.6427 -0.3509  0.5692
13895TIP3    H163176   6.625   2.802   4.931 -1.8226 -0.3831 -0.3661
13895TIP3    H263177   6.551   2.882   5.036 -0.7357 -1.0712  0.9440
13896TIP3   OH263178   0.463   5.103  14.703 -0.3220 -0.5150  0.2142
13896TIP3    H163179   0.384   5.156  14.714 -0.5422 -0.4097 -1.6153
13896TIP3    H263180   0.431   5.017  14.676  0.0026 -1.8295  3.7380
13897TIP3   OH263181   2.786   1.617   1.964  0.0264 -0.0222  0.2220
13897TIP3    H163182   2.738   1.643   2.043 -0.7401 -1.4603  0.2492
13897TIP3    H263183   2.841   1.544   1.993  1.3168  0.7923 -0.1075
13898TIP3   OH263184   4.095   5.338  13.419  0.7750  0.4508  0.3245
13898TIP3    H163185   4.166   5.386  13.461  0.0136 -0.1787  2.3565
13898TIP3    H263186   4.042   5.405  13.376  1.9317  1.0298 -0.2262
13899TIP3   OH263187   1.116   5.871  14.024 -0.2028 -0.1114  0.5555
13899TIP3    H163188   1.172   5.905  13.954  0.2941 -3.4327 -0.7464
13899TIP3    H263189   1.049   5.939  14.036  2.2601  2.5341 -0.0029
13900TIP3   OH263190   4.180   1.725   5.754  0.0757 -0.1092  0.3723
13900TIP3    H163191   4.159   1.671   5.677  1.6393  0.4598 -0.4841
13900TIP3    H263192   4.190   1.814   5.718 -0.9067  0.4783  1.5211
13901TIP3   OH263193   2.849   6.286  15.578 -0.1271  0.6007 -0.0875
13901TIP3    H163194   2.855   6.378  15.602  1.1530 -0.0481  2.2970
13901TIP3    H263195   2.840   6.286  15.483 -1.5427  3.2118  0.0017
13902TIP3   OH263196   1.701   6.619  14.402 -0.2669  0.1746 -0.0483
13902TIP3    H163197   1.761   6.585  14.337 -1.6587 -1.7847 -0.3382
13902TIP3    H263198   1.615   6.616  14.360 -1.0634 -0.3668  1.5697
13903TIP3   OH263199   6.705   3.701  11.696  0.0774 -0.2181 -0.6372
13903TIP3    H163200   6.745   3.755  11.764  2.3450 -1.8254 -0.6393
13903TIP3    H263201   6.634   3.655  11.741  0.7126 -0.2636  0.3436
13904TIP3   OH263202   2.428   1.361   4.608 -0.3230 -0.1590 -0.2281
13904TIP3    H163203   2.382   1.358   4.692  2.2392  0.5603  1.2583
13904TIP3    H263204   2.411   1.450   4.576 -0.4197 -0.0774  0.0424
13905TIP3   OH263205   2.909   2.259  13.265  0.1768 -0.0089 -0.0122
13905TIP3    H163206   2.958   2.238  13.344  1.3531  1.7856 -0.2172
13905TIP3    H263207   2.975   2.262  13.196 -0.2582  1.8915 -0.3980
13906TIP3   OH263208   0.253   4.089  10.459  0.3989 -0.0603  0.2293
13906TIP3    H163209   0.201   4.142  10.519 -1.3785 -4.1364  2.4545
13906TIP3    H263210   0.192   4.063  10.390  1.0173 -0.0464 -0.3391
13907TIP3   OH263211   2.091   2.475   1.341  0.4402 -0.2333  0.3530
13907TIP3    H163212   2.077   2.479   1.435  3.3129  1.6914  0.7470
13907TIP3    H263213   2.026   2.535   1.304  1.2387  1.2857  1.3691
13908TIP3   OH263214   6.013   5.627   1.903 -0.0059  0.5759 -0.1007
13908TIP3    H163215   5.918   5.613   1.900  0.0527  0.2047 -0.1838
13908TIP3    H263216   6.023   5.721   1.893 -0.3968  0.6829  0.4536
13909TIP3   OH263217   1.706   2.914  17.044 -0.2515  0.1107 -0.3946
13909TIP3    H163218   1.746   3.001  17.052  0.5366 -0.2397 -0.4842
13909TIP3    H263219   1.679   2.908  16.952  1.2907 -0.4151 -0.8325
13910TIP3   OH263220   5.744   4.702   5.810 -0.2243  0.3145 -0.1542
13910TIP3    H163221   5.655   4.669   5.821 -0.3963  1.1408  1.0504
13910TIP3    H263222   5.759   4.757   5.887  1.5265 -0.2324 -0.0858
13911TIP3   OH263223   6.383   4.801  14.020 -0.1398 -0.0230  0.4045
13911TIP3    H163224   6.421   4.748  13.950  0.6166  0.6272  0.3154
13911TIP3    H263225   6.314   4.852  13.977 -0.0611 -0.0438  0.2528
13912TIP3   OH263226   2.517   1.340   2.995  0.0529  0.1850 -0.3288
13912TIP3    H163227   2.484   1.407   3.054  0.7034  1.0989 -0.9987
13912TIP3    H263228   2.559   1.388   2.923  1.3948 -0.9210 -0.3232
13913TIP3   OH263229   3.348   0.705  12.211 -0.3019 -0.0407 -0.1062
13913TIP3    H163230   3.363   0.738  12.122 -1.9106 -1.0420 -0.7770
13913TIP3    H263231   3.333   0.784  12.263  1.4132  0.6088 -0.5476
13914TIP3   OH263232   6.648   5.685   4.037  0.0413 -0.0534 -0.4784
13914TIP3    H163233   6.598   5.704   3.958 -1.9491  2.1673  1.2140
13914TIP3    H263234   6.591   5.715   4.108  3.4838  1.9103  1.5692
13915TIP3   OH263235   1.034   0.179   0.060 -0.1915  0.1827 -0.0915
13915TIP3    H163236   0.955   0.158   0.109 -0.6999  0.5437 -0.7390
13915TIP3    H263237   1.079   0.095   0.049 -0.0058  0.1253  1.0985
13916TIP3   OH263238   6.212   0.369  14.889 -0.5325  0.2199  0.3765
13916TIP3    H163239   6.261   0.338  14.812 -1.3735 -1.4073  0.4600
13916TIP3    H263240   6.148   0.430  14.853 -1.8554 -1.6068 -0.4300
13917TIP3   OH263241   5.205   3.695   1.757 -0.0188  0.0246 -0.3365
13917TIP3    H163242   5.179   3.675   1.667 -0.4296 -0.3330 -0.1395
13917TIP3    H263243   5.273   3.763   1.748  0.1926 -0.2640 -0.9267
13918TIP3   OH263244   1.328   2.916   4.279 -0.4135 -0.4147  0.4205
13918TIP3    H163245   1.356   2.984   4.341  0.3218  0.5889 -0.9787
13918TIP3    H263246   1.234   2.931   4.268 -0.1565  0.7661 -0.3094
13919TIP3   OH263247   3.266   0.345  13.537 -0.2828  0.6650 -0.4985
13919TIP3    H163248   3.224   0.300  13.463  0.7074  2.5415 -2.2603
13919TIP3    H263249   3.280   0.276  13.602 -0.5552 -1.1974 -2.3411
13920TIP3   OH263250   3.094   1.783  16.717  0.2340  0.1425  0.3007
13920TIP3    H163251   3.069   1.748  16.632 -0.0203 -1.3277  0.9546
13920TIP3    H263252   3.147   1.860  16.697 -0.9290  0.5688 -1.1518
13921TIP3   OH263253   2.601   5.702  11.448 -0.3042 -0.1255  0.0407
13921TIP3    H163254   2.676   5.691  11.506 -0.6220  0.6304  0.6080
13921TIP3    H263255   2.533   5.646  11.486  0.2753 -1.5718 -1.0320
13922TIP3   OH263256   2.878   4.874  12.047 -0.1921  0.7535  0.0378
13922TIP3    H163257   2.892   4.900  11.956 -1.5768  1.0357 -0.1052
13922TIP3    H263258   2.966   4.875  12.086  0.4015  0.6792 -1.2750
13923TIP3   OH263259   0.052   3.784  16.390  0.8155  0.0784 -0.0887
13923TIP3    H163260   0.071   3.755  16.479 -2.5456 -1.9707  0.0176
13923TIP3    H263261   0.002   3.865  16.401  1.1558  0.3033 -0.1675
13924TIP3   OH263262   5.136   0.515  17.164 -0.4454  0.3143 -0.0355
13924TIP3    H163263   5.071   0.462  17.118  0.0637 -0.3482 -0.0030
13924TIP3    H263264   5.134   0.482  17.254  1.5995 -1.3504 -0.5518
13925TIP3   OH263265   3.545   4.210   4.009 -0.1843 -0.2170  0.0977
13925TIP3    H163266   3.527   4.303   3.998  0.5275  0.1879  2.0537
13925TIP3    H263267   3.495   4.167   3.940 -0.3607  1.6251 -0.9458
13926TIP3   OH263268   2.374   2.631   1.133 -0.0548  0.3717 -0.4203
13926TIP3    H163269   2.417   2.549   1.160 -0.3078  1.0533  2.1715
13926TIP3    H263270   2.447   2.693   1.123 -0.0972  0.5577  0.3795
13927TIP3   OH263271   5.450   4.286   0.021 -0.1735  0.5890 -0.7917
13927TIP3    H163272   5.368   4.313  -0.019 -0.8195  0.4488  0.4301
13927TIP3    H263273   5.460   4.194  -0.004 -0.8959  0.3210 -0.1039
13928TIP3   OH263274   4.752   4.130  13.461 -0.2933 -0.2231 -0.7067
13928TIP3    H163275   4.692   4.062  13.429  0.7678 -0.9639 -1.1602
13928TIP3    H263276   4.699   4.181  13.523 -1.8765  0.1966 -2.3691
13929TIP3   OH263277   1.994   0.617   1.223 -0.0661  0.1406  0.1247
13929TIP3    H163278   1.948   0.614   1.307  1.7477  0.4734  1.1564
13929TIP3    H263279   1.939   0.671   1.167 -1.2181  0.0413  1.1501
13930TIP3   OH263280   2.839   0.211  11.456 -0.0642 -0.3910 -0.4514
13930TIP3    H163281   2.912   0.159  11.490  0.7137  0.8972 -0.1409
13930TIP3    H263282   2.811   0.163  11.378  1.2211 -0.8186 -0.6736
13931TIP3   OH263283   3.406   6.149   3.691  0.3303  0.6401 -0.0348
13931TIP3    H163284   3.440   6.216   3.750  0.9018 -0.0427  0.4144
13931TIP3    H263285   3.475   6.137   3.625  0.0142  0.8623 -0.4055
13932TIP3   OH263286   6.258   3.266   4.389 -0.3130  0.2761 -0.2479
13932TIP3    H163287   6.218   3.222   4.465 -3.0052 -0.3151 -1.9494
13932TIP3    H263288   6.273   3.195   4.326  0.1318  1.0609 -1.0354
13933TIP3   OH263289   3.494   4.408   5.714  0.2397 -0.1922 -0.2444
13933TIP3    H163290   3.488   4.339   5.780 -1.5222 -0.4006 -0.6024
13933TIP3    H263291   3.556   4.374   5.649 -0.2866 -1.2506 -0.1992
13934TIP3   OH263292   5.364   2.923   0.637  0.8395  0.1207 -0.0113
13934TIP3    H163293   5.426   2.891   0.572 -1.7393 -1.2973 -1.9001
13934TIP3    H263294   5.299   2.972   0.586  0.1672  1.1982  1.8237
13935TIP3   OH263295   2.456   3.389  13.096  0.1729 -0.0086 -0.2840
13935TIP3    H163296   2.381   3.415  13.150 -0.0891  2.6601 -1.8839
13935TIP3    H263297   2.419   3.328  13.032 -0.3907  0.3747 -0.3250
13936TIP3   OH263298   4.810   5.226   5.669  0.1090  0.2385 -0.0058
13936TIP3    H163299   4.835   5.229   5.761  2.2553 -0.7646 -0.5213
13936TIP3    H263300   4.891   5.246   5.621 -1.2258  1.8857 -1.6641
13937TIP3   OH263301   1.096   4.968  15.860  0.0089  0.3252 -0.8624
13937TIP3    H163302   1.132   5.052  15.888  0.1796 -0.2448  0.6565
13937TIP3    H263303   1.139   4.951  15.776  2.7116  0.0614  0.4998
13938TIP3   OH263304   0.602   2.488   5.570  0.1067  0.1966  0.4325
13938TIP3    H163305   0.635   2.492   5.659  1.8831  1.0527 -0.2454
13938TIP3    H263306   0.639   2.565   5.527 -0.6744 -0.2427 -1.0620
13939TIP3   OH263307   0.926   3.323  14.264 -0.0049  0.6771 -0.8826
13939TIP3    H163308   0.872   3.402  14.265  0.6983  1.1842 -1.9013
13939TIP3    H263309   0.952   3.313  14.173 -1.7147 -1.8865 -1.1243
13940TIP3   OH263310   5.983   6.323  15.498  0.1531  0.3532 -0.1107
13940TIP3    H163311   5.892   6.320  15.469  0.1993  1.5684 -0.3947
13940TIP3    H263312   5.989   6.254  15.564 -0.7723 -0.2537 -0.6500
13941TIP3   OH263313   2.063   5.560   1.585 -0.0506  0.0139 -0.0857
13941TIP3    H163314   1.973   5.541   1.612  0.1203 -0.3196  0.2571
13941TIP3    H263315   2.074   5.653   1.602 -0.6759  0.2907 -1.1220
13942TIP3   OH263316   2.603   5.020  16.770  0.3708  0.2320 -0.0601
13942TIP3    H163317   2.537   5.088  16.785 -2.1756 -2.1004 -0.2618
13942TIP3    H263318   2.610   4.975  16.855 -0.1853 -1.1284 -0.7257
13943TIP3   OH263319   0.877   2.122   2.055 -0.4638  0.4867  0.4699
13943TIP3    H163320   0.877   2.217   2.051 -0.2216  0.4361 -1.1917
13943TIP3    H263321   0.849   2.094   1.967 -1.0799 -0.9597  1.1084
13944TIP3   OH263322   6.767   3.719  16.727 -0.5589 -0.1797  0.6096
13944TIP3    H163323   6.810   3.644  16.685  1.8339  0.6691  1.4202
13944TIP3    H263324   6.674   3.698  16.725 -0.2497 -1.5769 -2.3096
13945TIP3   OH263325   0.905   5.938   1.999  0.6458  0.5413 -0.2354
13945TIP3    H163326   0.821   5.932   2.044  0.5905 -1.2191 -0.5336
13945TIP3    H263327   0.961   5.985   2.060  0.8132 -2.4869  2.0785
13946TIP3   OH263328   0.677   4.475  15.567  0.0652 -0.1805 -0.0860
13946TIP3    H163329   0.637   4.508  15.648 -1.0916 -0.0470 -0.7003
13946TIP3    H263330   0.609   4.487  15.501  0.8755 -0.6443 -1.0003
13947TIP3   OH263331   0.614   4.405   5.483  0.4130 -0.1545 -0.3723
13947TIP3    H163332   0.660   4.322   5.470 -0.2332 -0.4242 -1.0197
13947TIP3    H263333   0.674   4.458   5.535  0.1634 -1.6249  1.4782
13948TIP3   OH263334   6.454   3.410  15.172  0.3756  0.5012  0.0677
13948TIP3    H163335   6.502   3.394  15.253  1.6519  0.9328 -0.5792
13948TIP3    H263336   6.444   3.324  15.133  1.5395  0.5062 -0.2766
13949TIP3   OH263337   2.417   4.458  15.467 -0.4548  0.0089  0.3883
13949TIP3    H163338   2.383   4.378  15.428 -0.2253 -0.5871  1.3865
13949TIP3    H263339   2.395   4.450  15.560  0.4064  0.6685  0.6538
13950TIP3   OH263340   4.329   2.380  16.845  0.0298 -0.0065  0.0587
13950TIP3    H163341   4.396   2.448  16.850 -0.2843  0.2637  0.7236
13950TIP3    H263342   4.250   2.422  16.879 -0.1161 -0.7709  0.6746
13951TIP3   OH263343   5.950   5.752   5.240 -0.4432 -0.2957 -0.5291
13951TIP3    H163344   5.904   5.817   5.187  1.3329  1.6686  0.2466
13951TIP3    H263345   6.012   5.711   5.179 -2.0196 -1.7587 -1.1743
13952TIP3   OH263346   0.509   5.858  15.535 -0.0784 -0.3497 -0.4181
13952TIP3    H163347   0.547   5.908  15.607 -0.9460 -1.2739  0.7149
13952TIP3    H263348   0.468   5.923  15.479  0.0417  0.3298  0.2766
13953TIP3   OH263349   3.655   4.148   1.284  0.5126  0.0653  0.1707
13953TIP3    H163350   3.646   4.185   1.196 -0.8457  0.2165  0.3687
13953TIP3    H263351   3.566   4.121   1.308  1.1271 -1.3440  0.9007
13954TIP3   OH263352   0.547   6.407  12.584  0.3006  0.0532  0.0948
13954TIP3    H163353   0.593   6.485  12.613  0.0328  0.0733  0.4748
13954TIP3    H263354   0.615   6.352  12.544  0.5124  0.4124 -0.0361
13955TIP3   OH263355   4.301   6.436   5.338 -0.4673 -0.1863 -0.6823
13955TIP3    H163356   4.207   6.443   5.355  0.1434  0.0493  2.9018
13955TIP3    H263357   4.338   6.405   5.420  2.8669  1.8244 -1.3386
13956TIP3   OH263358   1.914   3.623  12.777 -1.1721 -0.5957 -0.2642
13956TIP3    H163359   1.953   3.542  12.811 -0.7258 -0.4673 -0.4602
13956TIP3    H263360   1.911   3.610  12.682  0.2990  0.2067 -0.4464
13957TIP3   OH263361   5.044   4.606   2.802  0.4668 -0.0548 -0.4756
13957TIP3    H163362   5.051   4.596   2.707  1.4617  0.2878 -0.4421
13957TIP3    H263363   5.133   4.597   2.834 -0.1537 -2.4078  0.6610
13958TIP3   OH263364   1.346   2.951   4.719  0.0027  0.0122 -0.4308
13958TIP3    H163365   1.277   2.991   4.666  0.5623  2.2307  0.4785
13958TIP3    H263366   1.426   2.997   4.693  0.6150 -0.3133  0.8355
13959TIP3   OH263367   6.109   5.866  12.812 -0.5523  0.2738 -0.5820
13959TIP3    H163368   6.029   5.817  12.831 -0.8684  0.8402 -0.4440
13959TIP3    H263369   6.180   5.802  12.824 -1.1593 -0.9892 -3.4987
13960TIP3   OH263370   6.236   1.929   5.898 -0.0875 -0.1443 -0.4055
13960TIP3    H163371   6.320   1.902   5.935  0.1569 -1.0312 -1.5765
13960TIP3    H263372   6.237   2.025   5.904  0.2804 -0.2277  1.1150
13961TIP3   OH263373   2.943   2.448  16.494 -0.1291 -0.0444  0.1367
13961TIP3    H163374   2.942   2.539  16.464  1.4975  0.0259  0.2245
13961TIP3    H263375   2.887   2.402  16.433 -0.9496  1.0206  0.0733
13962TIP3   OH263376   2.787   3.888   6.349  0.1271  0.3860  0.5529
13962TIP3    H163377   2.731   3.833   6.294 -0.2133  0.5457  0.7373
13962TIP3    H263378   2.736   3.969   6.361 -0.0873  0.0812  1.6782
13963TIP3   OH263379   4.923   2.854  13.987  0.2443  0.0565  0.0423
13963TIP3    H163380   4.885   2.842  13.900  0.8109  0.6642 -0.2941
13963TIP3    H263381   5.013   2.822  13.979  0.3011  0.1165  0.4072
13964TIP3   OH263382   1.398   0.285  14.342 -0.0729  0.0832 -0.0510
13964TIP3    H163383   1.474   0.243  14.301  0.5577  2.4051 -1.3987
13964TIP3    H263384   1.329   0.220  14.338  0.8767 -0.8468 -1.9800
13965TIP3   OH263385   1.694   2.418  12.215 -0.0411 -1.1149  0.4489
13965TIP3    H163386   1.784   2.429  12.185  0.0555 -1.7430  0.4982
13965TIP3    H263387   1.669   2.504  12.247 -0.3237 -0.3031 -1.8660
13966TIP3   OH263388   4.891   3.105   2.976  0.0648  0.2448 -0.1679
13966TIP3    H163389   4.939   3.119   3.058  0.2544  1.9497 -0.5412
13966TIP3    H263390   4.958   3.105   2.908 -0.3663  1.9489 -0.6202
13967TIP3   OH263391   5.722   3.124   4.783 -0.2249  0.1874 -0.1150
13967TIP3    H163392   5.658   3.150   4.849  0.3777  1.5652 -0.0681
13967TIP3    H263393   5.803   3.168   4.808 -0.5517  2.6142 -3.0017
13968TIP3   OH263394   5.992   2.455   5.787 -0.3706 -0.1817 -0.0020
13968TIP3    H163395   6.077   2.497   5.791 -0.6325  0.3433  0.1069
13968TIP3    H263396   5.959   2.456   5.877 -1.1717  1.0491 -0.3039
13969TIP3   OH263397   0.649   4.183  16.398 -0.1962  0.5457  0.4400
13969TIP3    H163398   0.659   4.278  16.397  1.4515  0.3762 -0.3082
13969TIP3    H263399   0.647   4.159  16.490 -1.4355  1.3735  0.6433
13970TIP3   OH263400   0.170   5.959  17.251  0.3079 -0.0447 -0.3268
13970TIP3    H163401   0.145   5.875  17.288 -0.4084 -0.0813 -0.8709
13970TIP3    H263402   0.167   5.945  17.156  2.1240  0.0361 -0.4096
13971TIP3   OH263403   0.399   5.844  12.238 -0.1060 -0.2749 -0.8004
13971TIP3    H163404   0.304   5.851  12.247  0.3836  2.7390  3.2425
13971TIP3    H263405   0.424   5.920  12.185  0.0274 -1.4609 -2.4786
13972TIP3   OH263406   4.583   5.696  12.233 -0.0922  0.3137  0.2870
13972TIP3    H163407   4.608   5.777  12.278  2.1288 -0.7346  1.0325
13972TIP3    H263408   4.612   5.709  12.143 -0.7313  0.7873  0.1532
13973TIP3   OH263409   0.216   3.390  16.873 -0.6339  0.1964 -0.1071
13973TIP3    H163410   0.145   3.365  16.932 -0.0468  0.8406  0.8957
13973TIP3    H263411   0.208   3.485  16.865 -0.7582  0.1006 -1.1285
13974TIP3   OH263412   1.626   1.293   4.171  0.1907  0.1117  0.1961
13974TIP3    H163413   1.671   1.211   4.149  0.5365  0.4427 -0.3565
13974TIP3    H263414   1.628   1.296   4.267 -0.4491 -0.8683  0.2504
13975TIP3   OH263415   6.487   3.022  14.957 -0.4077 -0.3540  0.2171
13975TIP3    H163416   6.450   3.090  14.901  0.8948 -1.3538 -1.9344
13975TIP3    H263417   6.581   3.041  14.959 -0.3268 -0.8126  1.4222
13976TIP3   OH263418   1.224   2.405   5.057  0.0601  0.2690  0.2635
13976TIP3    H163419   1.184   2.371   4.977 -2.2244  3.0419  0.1582
13976TIP3    H263420   1.316   2.415   5.036 -0.7680  2.3196 -2.5143
13977TIP3   OH263421   5.094   4.762   0.631 -0.4558  0.0308  0.1541
13977TIP3    H163422   5.063   4.733   0.545 -0.3705  0.1041  0.0986
13977TIP3    H263423   5.149   4.690   0.662 -1.2415 -0.4057  0.5589
13978TIP3   OH263424   3.859   6.164  12.488  0.0158  0.2721  0.1351
13978TIP3    H163425   3.842   6.084  12.438  1.1692 -0.7906  1.4086
13978TIP3    H263426   3.819   6.147  12.574 -0.0328  1.2087  0.2971
13979TIP3   OH263427   2.787   3.946   4.948  0.2824  0.7098 -0.3684
13979TIP3    H163428   2.720   3.944   4.880 -0.9662  0.9600  0.8180
13979TIP3    H263429   2.819   4.036   4.948 -0.0467  0.8292 -0.3291
13980TIP3   OH263430   2.445   5.505   3.261  0.2716 -0.1530  0.0687
13980TIP3    H163431   2.358   5.464   3.264  0.0923  0.1490 -0.7822
13980TIP3    H263432   2.490   5.461   3.190  0.7020 -0.0797  0.2961
13981TIP3   OH263433   1.628   3.861  15.859  0.1930 -0.2088  0.2466
13981TIP3    H163434   1.618   3.940  15.807 -2.4142 -1.0167 -0.5405
13981TIP3    H263435   1.714   3.870  15.901  0.4614  2.4233 -0.8186
13982TIP3   OH263436   6.438   0.836  13.827  0.2779 -0.2499 -0.3254
13982TIP3    H163437   6.379   0.870  13.895  0.7044 -1.1887  0.5205
13982TIP3    H263438   6.485   0.913  13.796  0.5355  0.0913  0.8892
13983TIP3   OH263439   4.947   0.553  14.306 -0.1174  0.1052 -0.0563
13983TIP3    H163440   4.883   0.619  14.332 -0.2402 -0.8846  2.3863
13983TIP3    H263441   4.904   0.504  14.236 -2.4386 -1.0878  2.1131
13984TIP3   OH263442   1.265   0.976  17.195 -0.0972 -0.3368  0.7021
13984TIP3    H163443   1.171   0.987  17.211 -0.4995 -0.4721 -1.3965
13984TIP3    H263444   1.276   0.882  17.177  0.2264 -0.1148 -0.3000
13985TIP3   OH263445   2.407   2.612  10.715 -0.4536 -0.0750 -0.6174
13985TIP3    H163446   2.319   2.619  10.677 -0.3336 -0.5511 -0.9896
13985TIP3    H263447   2.405   2.532  10.767 -0.0510 -0.4320 -1.1432
13986TIP3   OH263448   1.510   3.459  14.452  0.3390 -0.2427 -0.5198
13986TIP3    H163449   1.523   3.432  14.361 -2.0274  1.0982 -1.2886
13986TIP3    H263450   1.511   3.555  14.449 -0.6441 -0.1818  0.7251
13987TIP3   OH263451   1.560   1.850  13.668 -0.0183 -0.4244 -0.1383
13987TIP3    H163452   1.653   1.863  13.684 -0.0041 -0.4456 -0.2016
13987TIP3    H263453   1.550   1.858  13.573 -0.3369  1.1622  0.0167
13988TIP3   OH263454   5.447   4.985   0.962  0.4668 -0.5787 -0.2043
13988TIP3    H163455   5.414   4.927   0.893  1.7546 -0.1213 -1.2200
13988TIP3    H263456   5.368   5.023   1.001 -0.3684 -2.4361 -0.0164
13989TIP3   OH263457   3.799   4.908  12.229 -0.4860 -0.2601 -0.4471
13989TIP3    H163458   3.882   4.951  12.207 -0.7687  0.4632 -0.0953
13989TIP3    H263459   3.745   4.918  12.151 -0.2212 -0.7762 -0.6960
13990TIP3   OH263460   4.556   2.607   3.253 -0.1701  0.0756 -0.4227
13990TIP3    H163461   4.500   2.566   3.319 -1.8404  1.4327 -0.9564
13990TIP3    H263462   4.636   2.630   3.300  0.1246 -2.2674  0.2617
13991TIP3   OH263463   5.474   0.634  12.315 -0.6409 -0.0127  0.0678
13991TIP3    H163464   5.446   0.545  12.334  0.9594 -0.2253  1.5505
13991TIP3    H263465   5.393   0.685  12.312 -1.5381 -1.4415 -0.4436
13992TIP3   OH263466   3.432   0.754  17.183  0.2420 -0.4812 -0.0508
13992TIP3    H163467   3.434   0.689  17.253 -0.8641 -0.6681 -0.1824
13992TIP3    H263468   3.457   0.707  17.104 -1.9778 -1.1068 -0.4098
13993TIP3   OH263469   0.584   6.000   1.713 -0.5275  0.0260 -1.0146
13993TIP3    H163470   0.603   5.934   1.779 -0.3015  0.7631 -0.3374
13993TIP3    H263471   0.495   6.028   1.732  0.6793  2.5987  1.0415
13994TIP3   OH263472   6.016   0.086   1.385  0.3887 -0.4284  0.0994
13994TIP3    H163473   6.057   0.143   1.320 -0.7390  1.3127  0.8824
13994TIP3    H263474   6.056   0.110   1.468 -0.2930 -0.5685  0.4786
13995TIP3   OH263475   2.931   3.423  16.694 -0.2555  0.1610 -0.3260
13995TIP3    H163476   2.868   3.468  16.637  0.1770 -0.1270 -1.0456
13995TIP3    H263477   2.919   3.463  16.780 -1.1791  0.3489 -0.5343
13996TIP3   OH263478   2.096   4.232  11.386 -0.4975 -0.6376  0.3617
13996TIP3    H163479   2.111   4.178  11.463  0.2957  2.4519  2.4894
13996TIP3    H263480   2.023   4.289  11.411 -1.4857 -0.8698 -1.9041
13997TIP3   OH263481   2.444   6.286  13.768 -0.5784  0.2788 -0.1548
13997TIP3    H163482   2.396   6.204  13.760 -0.9407  0.5637 -0.9697
13997TIP3    H263483   2.404   6.331  13.842 -1.3323  0.3484 -0.5992
13998TIP3   OH263484   3.614   2.302  12.608  0.5500  0.6246 -0.4188
13998TIP3    H163485   3.641   2.394  12.603  0.8061  0.6177  0.7062
13998TIP3    H263486   3.695   2.253  12.593  1.0172  0.6019  1.9836
13999TIP3   OH263487   2.245   2.215   1.849  0.0752 -0.0734 -0.4289
13999TIP3    H163488   2.320   2.240   1.903 -0.6037 -1.2804  1.0915
13999TIP3    H263489   2.282   2.199   1.762  1.5288 -0.4300  0.2511
14000TIP3   OH263490   0.350   1.948   0.424 -0.2603 -0.3931  0.0186
14000TIP3    H163491   0.264   1.990   0.416 -0.4828 -0.9785 -0.7832
14000TIP3    H263492   0.330   1.854   0.421  0.4805 -0.5243 -1.0264
14001TIP3   OH263493   4.999   2.205  12.733  0.4634  0.0790 -0.2497
14001TIP3    H163494   4.906   2.189  12.718  0.2190  0.3458  0.9523
14001TIP3    H263495   5.007   2.215  12.828  1.7935 -0.4152 -0.2983
14002TIP3   OH263496   4.374   3.194  13.498  0.3079  0.1667 -0.1329
14002TIP3    H163497   4.434   3.129  13.463  0.3942  1.0064 -1.5541
14002TIP3    H263498   4.430   3.266  13.527 -0.0060  0.9518 -1.4660
14003TIP3   OH263499   1.035   3.878   0.271 -0.0042 -0.1537 -0.2642
14003TIP3    H163500   1.126   3.858   0.292  0.0951  1.5455  1.0147
14003TIP3    H263501   0.995   3.793   0.252  1.4706 -1.0722  0.6520
14004TIP3   OH263502   3.301   2.054   3.425  0.1895  0.5566  0.0225
14004TIP3    H163503   3.339   2.091   3.505  0.6653  2.1765 -0.9255
14004TIP3    H263504   3.370   1.999   3.389  0.1341  0.1756  0.5038
14005TIP3   OH263505   1.967   6.646  13.367 -0.4168  0.9409 -0.7894
14005TIP3    H163506   2.006   6.563  13.396 -0.7800  0.2448 -2.2627
14005TIP3    H263507   1.956   6.696  13.448  1.3278  0.2155 -0.0666
14006TIP3   OH263508   3.122   4.620  14.626 -0.0353  0.0912  0.1075
14006TIP3    H163509   3.120   4.561  14.701  1.3216  0.2826  0.3164
14006TIP3    H263510   3.155   4.703  14.662  0.9200  0.0942 -0.7430
14007TIP3   OH263511   3.195   4.314   4.282  0.1950  0.3409 -0.1975
14007TIP3    H163512   3.115   4.314   4.230  0.6727  0.9502 -0.9488
14007TIP3    H263513   3.248   4.243   4.246 -0.4538 -0.7974  1.0304
14008TIP3   OH263514   6.036   6.603  11.148  0.1774 -0.2034  0.2028
14008TIP3    H163515   6.065   6.532  11.090 -0.9631 -0.6249  0.1271
14008TIP3    H263516   6.092   6.596  11.225 -0.9689 -2.2400  0.9032
14009TIP3   OH263517   3.414   3.915   4.291 -0.4315  0.3358  0.0721
14009TIP3    H163518   3.438   4.007   4.293  2.4743 -0.3753  0.5635
14009TIP3    H263519   3.410   3.894   4.197 -2.7908  1.3214 -0.0840
14010TIP3   OH263520   3.884   4.910   4.392  0.2060  0.0186  0.6321
14010TIP3    H163521   3.859   4.953   4.473 -2.5907 -1.1152  0.4216
14010TIP3    H263522   3.921   4.826   4.419  3.8771  1.6482  0.9382
14011TIP3   OH263523   2.304   3.215   0.280  0.1775 -0.1829  0.3748
14011TIP3    H163524   2.263   3.270   0.347 -0.3612 -0.3377  0.1776
14011TIP3    H263525   2.362   3.156   0.328 -0.7996 -0.8216  0.7815
14012TIP3   OH263526   0.960   6.261  13.642 -0.3240 -0.3292 -0.3322
14012TIP3    H163527   0.918   6.338  13.679 -0.6484  0.0854 -1.5251
14012TIP3    H263528   1.021   6.232  13.709 -0.3637  0.8404  0.2201
14013TIP3   OH263529   0.564   2.630  15.149  0.1494 -0.4997 -0.6254
14013TIP3    H163530   0.524   2.549  15.120  1.9595 -1.2483 -1.1358
14013TIP3    H263531   0.625   2.603  15.218 -0.3498  0.6224  0.2808
14014TIP3   OH263532   3.763   4.622   5.881  0.0902  0.3249  0.0032
14014TIP3    H163533   3.838   4.577   5.920  0.4575  1.2187  0.3357
14014TIP3    H263534   3.687   4.587   5.926  0.4564  0.7891  0.9845
14015TIP3   OH263535   1.690   5.726   0.370 -0.4003  0.2081 -0.3344
14015TIP3    H163536   1.639   5.683   0.439  1.5909 -0.2539  0.8729
14015TIP3    H263537   1.651   5.693   0.288 -0.6285 -1.8348  0.5699
14016TIP3   OH263538   6.780   2.727   3.892  0.0862 -0.0393 -0.2163
14016TIP3    H163539   6.844   2.670   3.850 -0.3841 -0.9888  0.3326
14016TIP3    H263540   6.814   2.815   3.879  0.3972 -0.3854 -1.7930
14017TIP3   OH263541   1.965   1.105  17.007 -0.6008 -0.1611 -0.0582
14017TIP3    H163542   1.979   1.067  17.093  0.4430 -0.9725 -0.5844
14017TIP3    H263543   1.887   1.159  17.017  0.6918  1.4025  1.9341
14018TIP3   OH263544   6.427   3.965  11.183  0.2509 -0.6518  0.3375
14018TIP3    H163545   6.443   3.970  11.089 -1.7252 -1.2471 -0.0500
14018TIP3    H263546   6.499   4.014  11.223 -0.4600  2.1050 -1.6352
14019TIP3   OH263547   2.066   1.687   4.960  0.3050  0.0882  0.1940
14019TIP3    H163548   2.095   1.697   5.051  2.8058 -0.3950 -0.4991
14019TIP3    H263549   1.983   1.641   4.966  0.1500  0.5772  2.2600
14020TIP3   OH263550   2.801   2.236  11.417 -0.4664  0.1164 -0.1029
14020TIP3    H163551   2.726   2.269  11.467  1.9664  1.5808  2.7138
14020TIP3    H263552   2.798   2.141  11.429 -1.2061  0.2708  1.0011
14021TIP3   OH263553   0.831   4.431  16.721 -0.3732  0.5368  0.4544
14021TIP3    H163554   0.923   4.448  16.743  0.0034 -1.5588  0.5341
14021TIP3    H263555   0.785   4.434  16.805 -0.2836  0.9439  0.4914
14022TIP3   OH263556   5.617   2.143  12.302 -0.1895  0.1245 -0.7098
14022TIP3    H163557   5.575   2.066  12.342 -0.4513  0.3037 -0.6405
14022TIP3    H263558   5.585   2.217  12.354  0.2732  0.2521 -0.6101
14023TIP3   OH263559   1.146   5.876  16.088 -0.3970  0.0032  0.0916
14023TIP3    H163560   1.210   5.874  16.159 -0.7700  0.3838  0.4384
14023TIP3    H263561   1.106   5.789  16.088 -1.2049  0.3650  1.0876
14024TIP3   OH263562   4.962   3.409   2.884  0.0226 -0.2744  0.2045
14024TIP3    H163563   5.012   3.467   2.826 -1.9616  1.0619 -0.2303
14024TIP3    H263564   4.936   3.336   2.829  0.4501 -0.3604  0.1170
14025TIP3   OH263565   5.210   5.139   4.282 -0.3524  0.0968 -0.1309
14025TIP3    H163566   5.171   5.069   4.334  0.7332  0.2517  0.9227
14025TIP3    H263567   5.268   5.094   4.221 -0.4120  0.0101 -0.1227
14026TIP3   OH263568   1.397   2.774  13.987 -0.1901  0.1615 -0.1602
14026TIP3    H163569   1.371   2.855  13.945 -2.4628  1.0312  2.7529
14026TIP3    H263570   1.370   2.705  13.926 -0.2029  1.4886 -1.6788
14027TIP3   OH263571   4.990   5.455  14.782  0.7916  0.1203 -0.0451
14027TIP3    H163572   4.919   5.493  14.834  2.3219  0.8519  1.5809
14027TIP3    H263573   5.003   5.516  14.710  1.6109  1.4276  1.2009
14028TIP3   OH263574   3.494   1.177   6.001  0.1397  0.1391  0.3815
14028TIP3    H163575   3.581   1.201   6.031  0.5029 -1.2766  0.5139
14028TIP3    H263576   3.507   1.153   5.909  0.0930 -1.1139  0.6980
14029TIP3   OH263577   2.064   4.851   0.129  0.3805  0.4602  0.2434
14029TIP3    H163578   2.132   4.895   0.078  0.1846  1.1756  0.5923
14029TIP3    H263579   2.063   4.897   0.213 -1.3915  1.2788 -0.1978
14030TIP3   OH263580   0.481   3.393   2.858  0.6609 -0.5336  0.0275
14030TIP3    H163581   0.531   3.469   2.828 -0.9282  0.4665 -0.1544
14030TIP3    H263582   0.415   3.379   2.790 -0.6734 -0.5011  1.2797
14031TIP3   OH263583   0.828   6.557  11.903  0.8931  0.0636  0.5416
14031TIP3    H163584   0.791   6.628  11.955 -0.7669 -0.5932  0.2854
14031TIP3    H263585   0.884   6.509  11.963  0.8318  0.6975  1.1028
14032TIP3   OH263586   1.351   0.362   0.667  0.1839  0.2744 -0.0693
14032TIP3    H163587   1.308   0.400   0.743  2.4675 -2.0163  2.4844
14032TIP3    H263588   1.414   0.428   0.639  1.5478 -0.0949  2.0432
14033TIP3   OH263589   2.203   3.992  15.982 -0.2160  0.0167 -0.6493
14033TIP3    H163590   2.180   3.931  16.052 -1.5446  1.0602 -0.1551
14033TIP3    H263591   2.134   4.059  15.985  1.6420  1.9965 -0.6387
14034TIP3   OH263592   1.916   3.225   6.468 -0.2078 -0.1516 -0.3373
14034TIP3    H163593   1.858   3.150   6.451 -0.2776 -0.5271  1.4578
14034TIP3    H263594   1.990   3.188   6.516  0.7599  0.6027 -1.2190
14035TIP3   OH263595   4.288   0.282   1.170 -0.0332  0.0601 -0.2830
14035TIP3    H163596   4.229   0.234   1.229  0.1124  1.2160  0.8319
14035TIP3    H263597   4.371   0.235   1.177  0.6632  1.5903  2.3324
14036TIP3   OH263598   3.414   3.025   4.550 -0.2960 -0.0097  0.6049
14036TIP3    H163599   3.406   3.078   4.471  0.1604  0.1627  0.6747
14036TIP3    H263600   3.324   3.013   4.580 -0.5053 -0.3918 -0.1492
14037TIP3   OH263601   6.508   1.080  13.156  0.0912  0.2103  1.1006
14037TIP3    H163602   6.491   1.138  13.082 -0.6770 -0.9671  0.3331
14037TIP3    H263603   6.523   1.139  13.230  1.4267  1.4233 -0.0878
14038TIP3   OH263604   2.136   0.359   5.813  1.0956  0.1653 -0.1321
14038TIP3    H163605   2.052   0.330   5.850  0.2465  0.9102 -1.4149
14038TIP3    H263606   2.202   0.306   5.857  0.0347  0.3591  1.7107
14039TIP3   OH263607   1.875   3.855  16.802  0.3186 -0.0278 -0.3589
14039TIP3    H163608   1.929   3.901  16.866 -0.8924 -0.0359  0.6938
14039TIP3    H263609   1.924   3.776  16.781  0.9393  0.1969  0.2175
14040TIP3   OH263610   1.025   6.104  11.607  0.2079  0.6183 -0.6236
14040TIP3    H163611   0.939   6.073  11.579 -0.0582  0.9685 -0.2126
14040TIP3    H263612   1.007   6.151  11.689  1.3449 -2.7503  1.6193
14041TIP3   OH263613   4.924   6.470  14.746 -0.3016  0.6366 -0.5860
14041TIP3    H163614   5.005   6.457  14.796 -0.6816 -0.5330 -0.2653
14041TIP3    H263615   4.892   6.381  14.728 -1.4907  1.0837 -0.7437
14042TIP3   OH263616   4.562   0.422   2.668  0.2673  1.0011 -0.5445
14042TIP3    H163617   4.498   0.449   2.734  0.4212  2.0062 -0.7977
14042TIP3    H263618   4.645   0.456   2.700  0.3598  1.3823 -1.1925
14043TIP3   OH263619   4.692   2.189  14.397  0.4542 -0.0742 -0.0806
14043TIP3    H163620   4.768   2.208  14.342  1.0622 -0.0541  0.7607
14043TIP3    H263621   4.690   2.094  14.405  1.6081  0.0114  1.5700
14044TIP3   OH263622   0.660   3.988   4.748 -0.1758  0.3531  0.5765
14044TIP3    H163623   0.674   4.014   4.658  0.8850  3.0636  1.5057
14044TIP3    H263624   0.747   3.976   4.785 -0.5678 -4.2039  0.3491
14045TIP3   OH263625   2.327   1.192  12.072  0.2956  0.1078 -0.0750
14045TIP3    H163626   2.372   1.228  12.149  0.2435 -0.0927  0.0489
14045TIP3    H263627   2.286   1.112  12.104 -2.8620  1.9203  0.6453
14046TIP3   OH263628   0.381   0.073   3.247  0.0433 -0.1416  0.2408
14046TIP3    H163629   0.414   0.161   3.231  1.6759 -0.2884  2.5287
14046TIP3    H263630   0.413   0.022   3.172  1.4881  0.6273  0.3019
14047TIP3   OH263631   2.945   0.214  11.782 -0.0004  0.2980  0.3970
14047TIP3    H163632   2.980   0.267  11.710  0.0189 -2.4422 -1.6489
14047TIP3    H263633   2.945   0.125  11.749 -2.0644 -0.7402  3.0241
14048TIP3   OH263634   6.799   0.566   1.269 -0.1508 -0.3357  0.1474
14048TIP3    H163635   6.735   0.559   1.340  1.7701  1.7525  2.1389
14048TIP3    H263636   6.761   0.629   1.208  0.1828  1.2434  1.5483
14049TIP3   OH263637   6.477   0.189  16.645 -0.7364 -0.0886  0.1363
14049TIP3    H163638   6.543   0.128  16.677 -1.0609 -0.6033 -0.1815
14049TIP3    H263639   6.403   0.134  16.619 -1.1009  0.4477  0.0266
14050TIP3   OH263640   4.155   1.752   5.027  1.0387 -0.3746  0.0766
14050TIP3    H163641   4.102   1.683   4.987  0.7824 -0.2170  0.1406
14050TIP3    H263642   4.106   1.833   5.009  2.1444 -0.0114 -1.3888
14051TIP3   OH263643   6.746   5.817  11.834  0.3934  0.9958 -0.2035
14051TIP3    H163644   6.667   5.864  11.859 -2.0611 -3.9516  1.8731
14051TIP3    H263645   6.744   5.815  11.738 -2.0057  0.8995 -0.1672
14052TIP3   OH263646   0.964   1.213   3.700  0.2970 -0.9018  0.4881
14052TIP3    H163647   0.890   1.153   3.710  0.3724 -1.5698 -2.6781
14052TIP3    H263648   1.021   1.192   3.774 -1.3546 -2.2648  1.4190
14053TIP3   OH263649   4.642   4.747   0.351  0.7312 -0.3236 -0.2292
14053TIP3    H163650   4.599   4.782   0.428  1.2748 -0.4580  0.1383
14053TIP3    H263651   4.595   4.785   0.277  0.5494  0.2242  0.1683
14054TIP3   OH263652   0.246   2.595  15.879 -0.0609 -0.3102  0.0234
14054TIP3    H163653   0.326   2.566  15.923  0.7957  0.7332 -0.8056
14054TIP3    H263654   0.215   2.668  15.932 -0.4582 -0.7036  0.3347
14055TIP3   OH263655   1.921   4.774   3.395 -0.3816  0.4516  0.0526
14055TIP3    H163656   1.954   4.859   3.366  1.3713 -0.4118 -0.5634
14055TIP3    H263657   1.961   4.711   3.336 -1.3612 -0.8457  0.7383
14056TIP3   OH263658   4.967   2.543  15.350  0.2975 -0.7485  0.3303
14056TIP3    H163659   4.965   2.454  15.385  1.1741 -1.0463 -0.3693
14056TIP3    H263660   4.923   2.596  15.417  0.6045 -1.5536  1.1801
14057TIP3   OH263661   4.363   3.147  12.134 -0.1835  0.1166  0.1375
14057TIP3    H163662   4.325   3.205  12.199  0.8417  1.2553 -0.2674
14057TIP3    H263663   4.332   3.181  12.050 -1.6492 -1.4494 -0.0137
14058TIP3   OH263664   0.245   3.906  10.826 -0.6539 -0.5343 -0.2291
14058TIP3    H163665   0.215   3.989  10.861  0.6640  0.3033 -1.0565
14058TIP3    H263666   0.201   3.840  10.880  0.2425  0.7104  2.1129
14059TIP3   OH263667   4.330   6.330   3.912  0.6979 -0.9781  0.0998
14059TIP3    H163668   4.322   6.347   3.818 -0.2376 -0.4200  0.2743
14059TIP3    H263669   4.425   6.334   3.929  0.8896 -1.3727 -0.8669
14060TIP3   OH263670   2.208   2.332  12.791 -0.4764 -0.8778 -0.9132
14060TIP3    H163671   2.296   2.364  12.810 -0.8758 -0.1064 -0.3268
14060TIP3    H263672   2.157   2.411  12.772 -1.0455 -1.3189 -1.2408
14061TIP3   OH263673   4.959   5.092   3.731  0.3456 -0.3104 -0.2215
14061TIP3    H163674   4.919   5.093   3.644  3.1703 -2.1450 -1.6193
14061TIP3    H263675   4.976   5.184   3.751 -1.9632  0.2782 -0.7835
14062TIP3   OH263676   2.540   0.283   6.072  0.2339 -0.0911 -0.0248
14062TIP3    H163677   2.503   0.317   6.153 -0.6015  0.5109 -0.6612
14062TIP3    H263678   2.559   0.191   6.092 -1.0508 -0.2583  0.4906
14063TIP3   OH263679   0.692   2.256  14.624  1.0144  0.4397 -0.3127
14063TIP3    H163680   0.770   2.312  14.616  1.7778 -0.4019  1.0058
14063TIP3    H263681   0.675   2.252  14.719 -0.3414  0.2052 -0.5576
14064TIP3   OH263682   5.955   3.282  11.769 -0.0130  0.4557  0.3232
14064TIP3    H163683   5.913   3.308  11.687 -0.5279 -0.3490  0.3216
14064TIP3    H263684   5.961   3.186  11.763 -0.4567  0.3551  1.4005
14065TIP3   OH263685   1.591   5.121  17.179  0.4533 -0.1715 -0.4442
14065TIP3    H163686   1.616   5.154  17.265  2.4710 -0.1894 -0.9983
14065TIP3    H263687   1.499   5.096  17.189  0.3324  0.8688  1.3826
14066TIP3   OH263688   3.763   5.673   3.654 -0.1843  0.1067  0.2952
14066TIP3    H163689   3.846   5.699   3.695 -0.0682  0.7940 -0.3725
14066TIP3    H263690   3.768   5.577   3.650  0.2612  0.0968  0.9178
14067TIP3   OH263691   0.828   5.870  12.711  0.4972 -0.2310 -0.0637
14067TIP3    H163692   0.815   5.780  12.742 -0.0711 -0.4598 -0.9358
14067TIP3    H263693   0.741   5.910  12.718  1.2764  1.0950  2.8713
14068TIP3   OH263694   0.488   0.387  16.271 -0.5579 -0.4256  0.4516
14068TIP3    H163695   0.499   0.444  16.347  3.5165 -1.6330  0.8634
14068TIP3    H263696   0.476   0.299  16.308 -3.2589 -0.4302 -0.2692
14069TIP3   OH263697   2.574   4.834   1.447 -0.1076 -0.3995 -0.3729
14069TIP3    H163698   2.490   4.819   1.491 -0.8938 -0.0940 -1.7503
14069TIP3    H263699   2.638   4.840   1.518 -1.5090  1.0539  0.7768
14070TIP3   OH263700   3.647   2.240   2.271 -0.2280 -0.2941  0.3119
14070TIP3    H163701   3.585   2.300   2.229 -2.4940 -1.8954  1.2518
14070TIP3    H263702   3.681   2.187   2.199 -2.6996 -1.7834  0.1823
14071TIP3   OH263703   1.197   2.072   3.435  0.2447 -0.1611  0.2730
14071TIP3    H163704   1.183   2.118   3.517  1.2619  0.0382  0.3424
14071TIP3    H263705   1.272   2.015   3.452  0.1888 -0.4381 -0.3822
14072TIP3   OH263706   6.255   5.604   2.511  0.2585  0.2970 -0.0058
14072TIP3    H163707   6.269   5.510   2.515  1.8235  0.5669  1.6327
14072TIP3    H263708   6.269   5.627   2.418  2.5242 -0.7089  0.0621
14073TIP3   OH263709   5.954   3.315   5.572 -0.4798 -0.1748  0.0894
14073TIP3    H163710   5.896   3.374   5.620 -1.2451  1.0945 -2.3133
14073TIP3    H263711   5.896   3.253   5.528  0.1634 -0.7761  0.0601
14074TIP3   OH263712   2.667   2.297  15.875 -0.1416  0.2486 -0.0201
14074TIP3    H163713   2.687   2.317  15.784  1.0342 -0.2947  0.1101
14074TIP3    H263714   2.739   2.336  15.924 -2.8484  4.2502  1.0696
14075TIP3   OH263715   0.151   5.315  13.888  0.3896 -0.6477 -0.1984
14075TIP3    H163716   0.140   5.221  13.903 -1.0808 -0.5138 -0.3057
14075TIP3    H263717   0.239   5.335  13.918  0.1620 -1.7877  1.2503
14076TIP3   OH263718   4.914   3.314   4.771 -0.0144  0.0390  0.3740
14076TIP3    H163719   4.821   3.292   4.775 -0.1464  0.5347  0.1429
14076TIP3    H263720   4.954   3.260   4.838 -0.0978 -1.9574 -1.1572
14077TIP3   OH263721   3.597   6.211  14.827 -0.3703 -0.3331 -0.4025
14077TIP3    H163722   3.667   6.256  14.779  0.4763  0.2372  1.3179
14077TIP3    H263723   3.535   6.281  14.849 -1.0193 -0.6818 -1.1043
14078TIP3   OH263724   6.780   2.444   3.100 -0.3918  0.1795  0.4533
14078TIP3    H163725   6.874   2.457   3.092  0.0108 -2.3034  0.8579
14078TIP3    H263726   6.743   2.502   3.033  1.5246 -0.1650 -0.9673
14079TIP3   OH263727   5.156   3.032  11.554  0.6994  0.0364  0.3867
14079TIP3    H163728   5.087   3.074  11.606  0.4533  2.0970 -1.5420
14079TIP3    H263729   5.232   3.030  11.613  0.0518  1.1119  1.2850
14080TIP3   OH263730   3.749   6.039  13.721  0.4727  0.1054  0.0270
14080TIP3    H163731   3.671   6.065  13.671  1.3015  0.0790 -1.3080
14080TIP3    H263732   3.744   5.943  13.725 -1.1214  0.2524  2.5431
14081TIP3   OH263733   0.780   1.264   0.038  0.2182 -0.5993 -0.1676
14081TIP3    H163734   0.842   1.219   0.094  0.8348 -0.2028 -0.5211
14081TIP3    H263735   0.793   1.357   0.058 -1.5551 -0.5860  1.0997
14082TIP3   OH263736   5.647   0.785   4.793 -1.2458 -0.1651 -0.2501
14082TIP3    H163737   5.574   0.758   4.738  1.0955  0.2947 -3.7905
14082TIP3    H263738   5.643   0.881   4.795 -1.0396 -0.1585 -0.0253
14083TIP3   OH263739   2.720   3.211  11.791 -0.0403  0.2917 -0.9229
14083TIP3    H163740   2.692   3.273  11.724 -1.4984 -0.4333 -0.9946
14083TIP3    H263741   2.642   3.195  11.843  0.4571 -1.0590 -0.5680
14084TIP3   OH263742   2.785   0.612  15.516  0.0540  0.6629 -0.3048
14084TIP3    H163743   2.697   0.584  15.492 -1.2479  0.0263  4.7769
14084TIP3    H263744   2.776   0.703  15.542  1.0067  0.7577 -0.2913
14085TIP3   OH263745   0.697   1.198   4.019 -0.6339 -0.2870 -0.3852
14085TIP3    H163746   0.757   1.124   4.022  1.6191  1.5215  0.9829
14085TIP3    H263747   0.641   1.187   4.096  0.0956 -0.2808  0.1581
14086TIP3   OH263748   1.169   6.646  12.935 -0.3189 -0.3106 -0.3699
14086TIP3    H163749   1.227   6.572  12.949 -1.0177 -1.1941 -1.9620
14086TIP3    H263750   1.180   6.668  12.842 -1.2060  0.6419 -0.2637
14087TIP3   OH263751   3.020   2.167   4.133  0.2429 -0.4656  0.0081
14087TIP3    H163752   3.100   2.133   4.174 -0.0803 -0.5080  0.6049
14087TIP3    H263753   2.963   2.091   4.127  0.5230 -0.6040 -1.1149
14088TIP3   OH263754   6.720   6.584  16.738 -0.2242 -0.0297 -0.5254
14088TIP3    H163755   6.628   6.581  16.711  0.5010 -0.4297 -3.1378
14088TIP3    H263756   6.729   6.514  16.802 -1.3778 -1.0399 -1.4453
14089TIP3   OH263757   6.626   2.866   4.304  0.1061 -0.1252 -0.0494
14089TIP3    H163758   6.551   2.807   4.305  0.3045 -0.3775  1.1418
14089TIP3    H263759   6.632   2.897   4.214 -2.3600  1.1051  0.1749
14090TIP3   OH263760   1.376   5.615  17.133 -0.1065  0.2154 -0.2471
14090TIP3    H163761   1.408   5.582  17.049 -0.7152  0.7987 -0.7171
14090TIP3    H263762   1.444   5.592  17.196  0.6816  0.3980 -1.0190
14091TIP3   OH263763   6.436   2.421   1.469 -0.7621  0.0604  0.2123
14091TIP3    H163764   6.443   2.492   1.406 -0.7209  1.2471  1.5402
14091TIP3    H263765   6.402   2.347   1.419 -1.4353  1.2059 -1.0259
14092TIP3   OH263766   0.742   0.994  14.132  0.0935  0.1080 -0.0905
14092TIP3    H163767   0.657   1.034  14.153  0.9177  1.3754  0.9082
14092TIP3    H263768   0.807   1.058  14.162  1.4146 -1.0875 -0.3445
14093TIP3   OH263769   2.635   1.343   1.237  0.0110  0.3075  0.0720
14093TIP3    H163770   2.695   1.345   1.312  0.1687 -1.0356  0.0043
14093TIP3    H263771   2.615   1.250   1.225  0.5785  0.4265 -2.0109
14094TIP3   OH263772   5.435   3.507  12.886 -0.0762 -0.4908  0.0179
14094TIP3    H163773   5.414   3.591  12.927 -0.4536  0.0480 -1.2505
14094TIP3    H263774   5.523   3.518  12.852  0.2652 -0.9643  0.7234
14095TIP3   OH263775   3.347   5.701  11.630  0.0093 -0.0400 -1.0416
14095TIP3    H163776   3.365   5.787  11.591  1.2082  0.7896  1.2444
14095TIP3    H263777   3.417   5.644  11.597  1.8499  1.0069  0.9232
14096TIP3   OH263778   3.225   1.370  16.942  0.1243 -0.0629 -0.4937
14096TIP3    H163779   3.214   1.417  16.860  1.2878  0.1016 -0.5658
14096TIP3    H263780   3.289   1.301  16.922 -0.0407 -0.3976  0.1167
14097TIP3   OH263781   2.522   6.666   4.464  0.5175  0.6255 -0.0780
14097TIP3    H163782   2.531   6.639   4.555  1.7962 -1.9041 -0.8955
14097TIP3    H263783   2.429   6.658   4.445  0.2088  1.3939  1.0440
14098TIP3   OH263784   1.271   3.860   0.696 -0.0321  0.2155  0.5163
14098TIP3    H163785   1.316   3.936   0.659  0.0206  0.2067  0.5638
14098TIP3    H263786   1.269   3.877   0.790 -0.4092  0.3692  0.4813
14099TIP3   OH263787   6.384   6.120  12.053 -0.2273  0.1857  0.0435
14099TIP3    H163788   6.386   6.057  12.125  2.2891 -0.2120 -0.3249
14099TIP3    H263789   6.328   6.191  12.085  0.1476 -0.3876  2.0577
14100TIP3   OH263790   6.000   2.021   0.651  0.4348 -0.1016 -0.1796
14100TIP3    H163791   5.939   2.068   0.707  0.0875  0.8332 -1.3265
14100TIP3    H263792   6.061   1.979   0.712  1.5436  2.8848  0.8152
14101TIP3   OH263793   5.277   2.429  12.379  0.4749 -0.3072  0.2475
14101TIP3    H163794   5.218   2.481  12.433  0.5715  0.5538 -0.4616
14101TIP3    H263795   5.243   2.438  12.290  1.1908 -0.4697 -0.0529
14102TIP3   OH263796   4.770   6.818   5.423 -0.2856  0.4511  0.0878
14102TIP3    H163797   4.702   6.846   5.362 -1.7591  0.0933  1.5406
14102TIP3    H263798   4.791   6.729   5.395  0.8259  1.1560 -1.4147
14103TIP3   OH263799   0.989   6.576   3.985 -0.0316  0.7713 -0.0755
14103TIP3    H163800   0.983   6.497   3.932  0.4691  0.0193  0.9891
14103TIP3    H263801   0.899   6.609   3.989  0.0648  1.4413 -2.2738
14104TIP3   OH263802   1.954   5.494  11.017  0.2817  0.3089 -0.1619
14104TIP3    H163803   1.970   5.588  11.023  0.4827  0.2824 -0.2733
14104TIP3    H263804   2.023   5.455  11.071  0.0069  0.2420  0.1410
14105TIP3   OH263805   1.792   0.820   0.038  0.2372  0.0723  0.0779
14105TIP3    H163806   1.829   0.734   0.059 -1.8415 -1.3826 -1.9750
14105TIP3    H263807   1.698   0.810   0.051 -0.0417  1.9710 -0.3807
14106TIP3   OH263808   3.615   2.605  14.588  0.4237 -0.3258 -0.3249
14106TIP3    H163809   3.543   2.624  14.649  0.7993 -0.8685  0.2862
14106TIP3    H263810   3.645   2.691  14.559  0.0122 -0.0770 -0.0135
14107TIP3   OH263811   4.534   4.912   5.058  0.2075 -0.0111  0.9400
14107TIP3    H163812   4.526   4.837   5.117  1.1331 -1.8010 -1.1791
14107TIP3    H263813   4.628   4.926   5.049  0.0854 -0.2040 -0.6953
14108TIP3   OH263814   0.404   3.898  10.575 -0.3347 -0.7107  0.6028
14108TIP3    H163815   0.341   3.938  10.515  1.1117 -0.4283 -0.7626
14108TIP3    H263816   0.361   3.901  10.660 -2.1469 -0.4949 -0.2912
14109TIP3   OH263817   3.226   2.410  14.141  0.6970 -0.1584  0.2464
14109TIP3    H163818   3.296   2.384  14.201  2.0149  1.0907 -0.7287
14109TIP3    H263819   3.225   2.505  14.145 -0.1829 -0.1264 -0.6224
14110TIP3   OH263820   2.685   0.619   0.161  0.0680 -0.6167 -0.9470
14110TIP3    H163821   2.754   0.552   0.164 -1.1274 -1.8029  0.3420
14110TIP3    H263822   2.627   0.590   0.091 -1.5658 -2.0634  0.9600
14111TIP3   OH263823   2.224   3.851   5.107 -0.0790 -0.4908 -0.5389
14111TIP3    H163824   2.133   3.874   5.125 -0.3101 -1.4262 -0.5321
14111TIP3    H263825   2.265   3.935   5.082 -1.2962 -0.3277 -2.0685
14112TIP3   OH263826   6.374   4.373   2.038 -0.1290 -0.2727 -0.0909
14112TIP3    H163827   6.394   4.353   2.129  1.5023  1.7433  0.0316
14112TIP3    H263828   6.373   4.468   2.034  0.2478 -0.3363 -2.2654
14113TIP3   OH263829   6.214   6.236   1.338 -0.1481 -0.2468  0.0899
14113TIP3    H163830   6.234   6.169   1.273 -1.7083  2.3178 -3.2066
14113TIP3    H263831   6.266   6.312   1.311 -0.1388  0.6116  2.3962
14114TIP3   OH263832   2.289   2.824   5.024 -0.4552 -0.1131  0.2488
14114TIP3    H163833   2.328   2.771   4.954 -0.6967  0.4721 -0.3385
14114TIP3    H263834   2.313   2.779   5.105 -0.3941 -0.9413 -0.2293
14115TIP3   OH263835   5.046   5.107   4.819 -0.2261  0.0175  0.0349
14115TIP3    H163836   5.040   5.087   4.726  0.2019 -0.5383  0.1256
14115TIP3    H263837   5.050   5.203   4.823 -3.4396  0.2440 -0.3534
14116TIP3   OH263838   6.072   1.220  16.597  0.5451  0.8693 -0.0115
14116TIP3    H163839   6.075   1.152  16.664  0.3173  0.7714 -0.1028
14116TIP3    H263840   5.984   1.216  16.561  0.5321  1.2084 -0.0235
14117TIP3   OH263841   1.449   0.319   5.386 -0.1073  0.5614 -0.6962
14117TIP3    H163842   1.421   0.231   5.410 -3.3593  1.9872  1.1124
14117TIP3    H263843   1.387   0.347   5.319  1.0029  1.4189 -1.3763
14118TIP3   OH263844   5.893   6.568  13.081 -0.3237  0.0709  0.0012
14118TIP3    H163845   5.949   6.639  13.049  1.1141 -0.7682  0.5729
14118TIP3    H263846   5.860   6.599  13.165 -1.1513  0.7872 -0.5830
14119TIP3   OH263847   2.421   4.042   4.995  0.1549 -0.1954  0.1765
14119TIP3    H163848   2.395   3.960   4.952  1.9168 -0.5879 -0.1497
14119TIP3    H263849   2.462   4.094   4.926 -0.4136  0.7353  0.5250
14120TIP3   OH263850   2.848   5.089   2.663  0.5698  0.1885 -0.0540
14120TIP3    H163851   2.900   5.009   2.652  0.9606  0.2007  1.5809
14120TIP3    H263852   2.777   5.081   2.599 -0.1509 -2.0928  1.0085
14121TIP3   OH263853   4.789   4.522   3.810  0.8009  0.0001 -0.1128
14121TIP3    H163854   4.730   4.451   3.835  1.0040 -0.2689 -0.4095
14121TIP3    H263855   4.875   4.482   3.804  1.1190  0.5100  0.8953
14122TIP3   OH263856   3.864   6.293  10.946  0.1249 -0.3435 -0.1573
14122TIP3    H163857   3.865   6.205  10.910  0.2030 -1.0376  1.4945
14122TIP3    H263858   3.780   6.329  10.918 -0.4454 -1.3848  0.1902
14123TIP3   OH263859   6.399   3.597  12.718  0.1599  0.3892  0.0073
14123TIP3    H163860   6.458   3.597  12.794 -0.2329 -3.2228  0.3857
14123TIP3    H263861   6.311   3.600  12.755 -0.0411 -1.7399 -0.2711
14124TIP3   OH263862   2.304   2.519   0.827 -0.1262  0.8113  0.2121
14124TIP3    H163863   2.321   2.426   0.843 -0.5585  0.2079 -2.5854
14124TIP3    H263864   2.241   2.544   0.894  0.7793 -0.6495  1.6424
14125TIP3   OH263865   6.256   3.797  12.909  0.5379  0.1682  0.4462
14125TIP3    H163866   6.216   3.715  12.938  0.8271 -1.0874 -2.5466
14125TIP3    H263867   6.307   3.827  12.985 -1.0751 -1.3937  2.2093
14126TIP3   OH263868   4.968   3.400   3.160  0.1586 -0.1734  0.6418
14126TIP3    H163869   4.945   3.391   3.068 -0.0804 -1.1271  0.7923
14126TIP3    H263870   5.034   3.469   3.162  0.8641 -0.8160 -0.3571
14127TIP3   OH263871   1.526   0.758   4.619  0.0219  1.1456 -0.4397
14127TIP3    H163872   1.616   0.779   4.645 -0.1322  0.8542  0.3371
14127TIP3    H263873   1.516   0.798   4.532  1.8365 -1.2431 -1.8060
14128TIP3   OH263874   3.936   3.299   0.831  0.4131  0.0232 -0.2448
14128TIP3    H163875   3.892   3.382   0.848 -1.1305 -1.0103  0.9573
14128TIP3    H263876   3.878   3.233   0.870  2.0148 -1.5431 -0.4771
14129TIP3   OH263877   3.122   4.870   1.631  0.1137 -0.0379  0.6041
14129TIP3    H163878   3.193   4.933   1.647  1.2216 -0.8958 -0.8481
14129TIP3    H263879   3.167   4.788   1.611 -1.3121 -0.9727  1.1428
14130TIP3   OH263880   4.255   6.382  16.201 -0.0563 -0.1103  0.0777
14130TIP3    H163881   4.202   6.408  16.277  1.1869 -3.3761  2.1652
14130TIP3    H263882   4.200   6.319  16.155  0.9656 -1.5816  0.8379
14131TIP3   OH263883   6.049   1.435  14.971  0.3165  0.1778  0.0022
14131TIP3    H163884   6.104   1.490  15.026  0.4958  1.1759 -1.1694
14131TIP3    H263885   6.031   1.488  14.893  0.3728 -1.3441 -1.0737
14132TIP3   OH263886   2.863   2.116   2.063  0.4930 -0.6190  0.1956
14132TIP3    H163887   2.888   2.040   2.011  0.7909  0.1181 -0.7482
14132TIP3    H263888   2.767   2.114   2.063  0.4718 -0.2136 -1.0192
14133TIP3   OH263889   0.892   2.354   5.347  0.5762  0.3389 -0.1049
14133TIP3    H163890   0.890   2.442   5.310  1.1930  0.1833 -0.5229
14133TIP3    H263891   0.971   2.315   5.310  0.5620 -0.2237  0.4567
14134TIP3   OH263892   6.508   5.952   4.970 -0.0745 -0.0059 -0.6446
14134TIP3    H163893   6.512   5.894   4.894 -0.1140 -0.5560 -0.2330
14134TIP3    H263894   6.507   6.040   4.933 -0.3005 -0.2746 -1.2854
14135TIP3   OH263895   4.131   4.280   3.358 -0.0617  0.0116 -0.3808
14135TIP3    H163896   4.113   4.189   3.333  0.0909 -0.2159  0.3378
14135TIP3    H263897   4.138   4.327   3.274 -3.4266 -0.0053 -0.7618
14136TIP3   OH263898   6.766   3.120   5.022  0.5723 -0.0418  0.0578
14136TIP3    H163899   6.796   3.188   5.082 -0.2244 -0.4411  0.9395
14136TIP3    H263900   6.814   3.042   5.048 -0.4892 -0.4500  0.8378
14137TIP3   OH263901   6.710   3.614   2.530  0.3028 -0.0639  0.5958
14137TIP3    H163902   6.620   3.619   2.563 -0.3335 -2.1636 -0.6948
14137TIP3    H263903   6.708   3.664   2.448  0.3658  0.0944  0.6914
14138TIP3   OH263904   0.601   3.521   2.492 -0.0138  0.4210  0.6126
14138TIP3    H163905   0.638   3.440   2.528  1.4529  1.2082  0.9250
14138TIP3    H263906   0.669   3.587   2.507 -1.1468  1.6921  0.2701
14139TIP3   OH263907   1.915   6.019   0.703  0.0785 -0.6411 -0.1287
14139TIP3    H163908   1.928   6.054   0.791  0.8496  0.8604 -0.8284
14139TIP3    H263909   1.846   5.953   0.714 -0.6643  0.3486  1.3809
14140TIP3   OH263910   4.055   1.369   3.938 -0.0498 -0.2712  0.4858
14140TIP3    H163911   3.997   1.295   3.957  0.9111 -0.7752  1.4648
14140TIP3    H263912   4.087   1.397   4.023 -0.6236  1.4770  0.1546
14141TIP3   OH263913   3.444   0.401   5.901 -0.2278 -0.2060 -0.3437
14141TIP3    H163914   3.397   0.322   5.931 -1.5721  0.2530 -1.2171
14141TIP3    H263915   3.535   0.373   5.893 -0.4589 -1.3006  0.7150
14142TIP3   OH263916   5.274   3.014  14.147  0.5073  0.0874 -0.1268
14142TIP3    H163917   5.278   3.109  14.136  1.8596  0.0931  0.2826
14142TIP3    H263918   5.264   3.001  14.242 -0.4067 -0.1701 -0.2511
14143TIP3   OH263919   3.033   6.581   6.413 -0.1953  0.2149 -0.6311
14143TIP3    H163920   2.985   6.504   6.381 -0.8495  0.4793 -0.2973
14143TIP3    H263921   3.003   6.653   6.358 -1.2153  0.6433  0.4481
14144TIP3   OH263922   0.267   5.085   1.497  0.1231 -0.0417  0.1238
14144TIP3    H163923   0.317   5.006   1.519  1.2653  0.2648 -1.2662
14144TIP3    H263924   0.322   5.157   1.528 -0.6743  0.2313  0.9155
14145TIP3   OH263925   3.754   0.890  14.683  0.4241  0.1289 -0.5326
14145TIP3    H163926   3.702   0.966  14.711  0.2113  0.0747 -0.7756
14145TIP3    H263927   3.831   0.928  14.640  0.0198  0.2086 -1.1937
14146TIP3   OH263928   5.397   3.295   4.385 -0.3872  0.3918  0.2482
14146TIP3    H163929   5.314   3.313   4.339 -0.0963  0.9398 -0.0689
14146TIP3    H263930   5.460   3.353   4.344  0.0855  0.2235  0.7309
14147TIP3   OH263931   1.938   1.412   0.705 -0.3502  0.3943  0.1076
14147TIP3    H163932   1.955   1.436   0.796  2.1456 -0.6794 -0.0174
14147TIP3    H263933   1.907   1.321   0.709  1.9210 -0.4315 -0.2236
14148TIP3   OH263934   4.878   5.824  13.870 -0.2095 -0.2517  0.3177
14148TIP3    H163935   4.889   5.885  13.797  0.1462 -0.8947 -0.1738
14148TIP3    H263936   4.783   5.813  13.878 -0.2124 -1.0982 -0.8220
14149TIP3   OH263937   2.737   0.316   0.267 -0.1840 -0.2113 -0.4015
14149TIP3    H163938   2.687   0.298   0.188 -1.1687 -0.7346  0.3210
14149TIP3    H263939   2.688   0.271   0.337  0.3859  0.6573  0.5727
14150TIP3   OH263940   1.412   2.777   2.775 -0.7274  0.1506 -0.5080
14150TIP3    H163941   1.487   2.732   2.813 -0.8928  0.7635  0.5616
14150TIP3    H263942   1.344   2.710   2.768 -0.5789 -0.0453 -0.0426
14151TIP3   OH263943   1.651   3.902   0.289 -0.1935  0.0805  0.1736
14151TIP3    H163944   1.567   3.900   0.335 -0.2848 -0.1697 -0.0085
14151TIP3    H263945   1.649   3.827   0.230  0.0350  0.2464 -0.0482
14152TIP3   OH263946   6.588   6.134  12.630 -0.8157  0.0786  0.3471
14152TIP3    H163947   6.682   6.137  12.644 -0.2411 -0.8455 -2.8858
14152TIP3    H263948   6.554   6.086  12.706  1.4375 -0.6580  0.9297
14153TIP3   OH263949   4.029   3.830   0.026 -0.6432  0.7875 -0.2470
14153TIP3    H163950   3.949   3.883   0.022  0.6207  2.6277 -2.0143
14153TIP3    H263951   4.054   3.818  -0.065  1.1600  0.3263  0.2976
14154TIP3   OH263952   1.408   2.308   3.465  0.5059  0.2608  0.4683
14154TIP3    H163953   1.409   2.225   3.513 -3.0786 -0.2064 -0.1289
14154TIP3    H263954   1.374   2.286   3.379  0.2332  2.2389  0.0384
14155TIP3   OH263955   5.445   6.134  14.339 -0.1857 -0.1971  0.5505
14155TIP3    H163956   5.423   6.116  14.430  1.3655 -0.8949  0.7991
14155TIP3    H263957   5.482   6.053  14.306 -0.3944  0.1608 -0.6062
14156TIP3   OH263958   5.000   5.917  11.311 -0.0188 -0.2623 -0.0394
14156TIP3    H163959   5.039   5.859  11.377 -0.7886  1.4568  2.0059
14156TIP3    H263960   5.074   5.946  11.258  0.5595 -2.0052 -0.2078
14157TIP3   OH263961   4.299   5.201  15.404  0.4334  0.1672  0.4190
14157TIP3    H163962   4.269   5.132  15.344 -1.2650  0.8055  0.5010
14157TIP3    H263963   4.308   5.157  15.488  1.4947 -0.4311  0.0052
14158TIP3   OH263964   2.992   1.415   2.602 -0.0714  0.4870  0.5123
14158TIP3    H163965   2.952   1.502   2.593  2.1131  1.3074 -2.0488
14158TIP3    H263966   3.061   1.414   2.536  0.7274 -2.7907  1.3212
14159TIP3   OH263967   3.022   1.385  16.369  0.0596  0.1211 -0.0291
14159TIP3    H163968   2.933   1.407  16.342 -0.3651  0.1072  1.3411
14159TIP3    H263969   3.074   1.461  16.343 -0.5277  0.5690  0.0867
14160TIP3   OH263970   5.321   1.438  12.389  0.3768 -0.0679  0.1655
14160TIP3    H163971   5.399   1.456  12.336  1.2459 -1.4840  0.9265
14160TIP3    H263972   5.353   1.435  12.479 -0.9776  1.6044  0.7248
14161TIP3   OH263973   4.660   5.217  12.100 -0.5619 -0.1339  1.0115
14161TIP3    H163974   4.745   5.261  12.103 -0.5883 -0.1129  1.5548
14161TIP3    H263975   4.599   5.281  12.137 -0.5742 -0.6783  1.9357
14162TIP3   OH263976   3.455   5.759  12.525 -0.1669 -0.1540  0.3211
14162TIP3    H163977   3.384   5.811  12.562 -1.1052 -0.5491 -0.8909
14162TIP3    H263978   3.442   5.672  12.563 -1.0911 -0.5438 -0.8662
14163TIP3   OH263979   3.253   4.504   3.384 -0.5757 -0.1852  0.2544
14163TIP3    H163980   3.233   4.544   3.299 -2.0390  1.1189  1.1795
14163TIP3    H263981   3.341   4.468   3.374  0.3174  2.2320 -1.0280
14164TIP3   OH263982   5.709   2.134  14.915  0.1675  0.9350 -0.5748
14164TIP3    H163983   5.619   2.108  14.934  0.0955  2.9008  2.0480
14164TIP3    H263984   5.763   2.077  14.969  0.2208  2.8485  1.4910
14165TIP3   OH263985   6.582   4.215   1.748 -0.5264 -0.7268 -0.3605
14165TIP3    H163986   6.587   4.136   1.802 -3.8288 -1.6770 -1.3478
14165TIP3    H263987   6.605   4.186   1.660 -2.4157 -0.7529 -0.8551
14166TIP3   OH263988   0.103   6.185   1.794 -0.2763 -0.0476 -0.3241
14166TIP3    H163989   0.079   6.231   1.713 -0.0611  1.1177  0.2569
14166TIP3    H263990   0.022   6.185   1.846 -0.7521 -1.8984 -1.0417
14167TIP3   OH263991   1.579   4.816  11.579 -0.0113 -0.0414  0.5701
14167TIP3    H163992   1.499   4.862  11.554 -0.2698 -0.9351 -0.2635
14167TIP3    H263993   1.549   4.729  11.607  0.7974 -0.9122 -1.2001
14168TIP3   OH263994   5.754   5.667   2.118  0.0300  0.0526 -0.6657
14168TIP3    H163995   5.728   5.706   2.035  1.4279  0.0060 -1.1380
14168TIP3    H263996   5.701   5.588   2.125 -2.6973  1.8878  0.2061
14169TIP3   OH263997   0.910   1.979   5.690  0.2402  0.0282 -0.0085
14169TIP3    H163998   0.837   1.980   5.751 -1.6466  0.3517 -2.1778
14169TIP3    H263999   0.917   1.888   5.662  0.6796 -0.0033  0.1980
14170TIP3   OH264000   5.742   1.015   0.062 -0.3584  0.7391 -0.0253
14170TIP3    H164001   5.755   1.101   0.102 -1.4114  0.5706  0.7293
14170TIP3    H264002   5.808   0.959   0.103  0.8220  1.3529 -1.0730
14171TIP3   OH264003   1.940   6.766   2.727  0.6805 -0.0411 -0.5541
14171TIP3    H164004   1.950   6.782   2.821 -0.1064 -2.2924 -0.0474
14171TIP3    H264005   1.846   6.766   2.712  0.8041  0.3482 -1.3512
14172TIP3   OH264006   1.533   3.120  13.759  0.2125  0.2067 -0.1086
14172TIP3    H164007   1.471   3.118  13.685  0.3634 -0.3006 -0.2200
14172TIP3    H264008   1.610   3.166  13.724 -0.8211  2.5640  0.5969
14173TIP3   OH264009   2.720   2.054   3.659  0.2899 -0.3966  0.1704
14173TIP3    H164010   2.796   2.102   3.628  0.9853 -1.1061  0.7700
14173TIP3    H264011   2.752   1.967   3.678 -0.6460 -0.6645  0.5637
14174TIP3   OH264012   6.061   0.039  10.903 -0.0005  0.6518 -0.0207
14174TIP3    H164013   6.001  -0.015  10.850 -0.0181  0.5525  0.0998
14174TIP3    H264014   6.003   0.086  10.964  0.0768  0.2819  0.3388
14175TIP3   OH264015   6.199   0.378   2.543 -0.8177 -0.0184 -0.1504
14175TIP3    H164016   6.157   0.416   2.619  0.3875  1.2925 -0.1203
14175TIP3    H264017   6.222   0.289   2.570  0.4014  0.7291  1.3435
14176TIP3   OH264018   5.795   1.334  16.295 -0.3891 -0.2312 -0.2034
14176TIP3    H164019   5.788   1.420  16.251 -2.4713 -0.4221 -0.2922
14176TIP3    H264020   5.781   1.353  16.387  0.6602 -0.2899 -0.0249
14177TIP3   OH264021   4.635   1.212  12.710  0.1272 -0.5372 -0.5967
14177TIP3    H164022   4.591   1.227  12.627  0.3910  0.4554 -0.5670
14177TIP3    H264023   4.681   1.129  12.699 -1.6609 -1.5464 -0.6629
14178TIP3   OH264024   2.716   4.375   4.339 -0.4453  0.3119 -0.2953
14178TIP3    H164025   2.705   4.434   4.413  0.1149 -0.0343  0.0676
14178TIP3    H264026   2.808   4.384   4.315 -0.5762  0.2771 -0.8253
14179TIP3   OH264027   2.145   2.073   0.597 -0.1505 -0.1818 -0.3645
14179TIP3    H164028   2.240   2.060   0.598 -0.2169 -0.7205  1.3697
14179TIP3    H264029   2.110   1.999   0.646 -1.4348  0.2695 -0.5849
14180TIP3   OH264030   5.098   6.308  16.924  0.3241  0.2203 -0.3691
14180TIP3    H164031   5.060   6.233  16.878  0.3393  1.2036 -2.0085
14180TIP3    H264032   5.168   6.270  16.977  1.1140 -0.7664 -2.0802
14181TIP3   OH264033   0.826   3.882  17.261 -0.3835  0.1919 -0.5520
14181TIP3    H164034   0.809   3.909  17.170 -0.2064 -1.1901 -1.0062
14181TIP3    H264035   0.915   3.913  17.279 -0.1298 -0.1839 -1.1188
14182TIP3   OH264036   4.488   3.291   1.951  0.0315 -0.4344  0.0896
14182TIP3    H164037   4.504   3.368   2.005  0.8058 -1.1942  0.9693
14182TIP3    H264038   4.523   3.218   2.003  0.6967 -1.1914 -1.4036
14183TIP3   OH264039   2.055   2.591   2.871  0.1875 -0.0993 -0.2125
14183TIP3    H164040   1.997   2.545   2.932  1.3241  0.2182  1.1290
14183TIP3    H264041   2.019   2.571   2.784 -1.7102 -0.1969  0.5698
14184TIP3   OH264042   0.219   1.566   3.668  0.4512 -0.5080 -0.3283
14184TIP3    H164043   0.158   1.589   3.738 -0.6180 -0.6397 -1.2072
14184TIP3    H264044   0.297   1.618   3.687 -0.6807  1.2295 -0.3380
14185TIP3   OH264045   1.192   0.691   5.143 -0.1262  0.2591 -0.0248
14185TIP3    H164046   1.256   0.759   5.125 -0.9741  0.7423 -1.3205
14185TIP3    H264047   1.127   0.700   5.073 -0.8867 -1.0948  0.4798
14186TIP3   OH264048   6.699   1.095  15.118 -0.0245 -0.2788  0.2484
14186TIP3    H164049   6.730   1.101  15.028 -1.3423  1.4824 -0.1255
14186TIP3    H264050   6.615   1.141  15.117 -0.1705 -0.4635  2.3209
14187TIP3   OH264051   5.892   0.760  11.537  0.3723  0.1683  0.5800
14187TIP3    H164052   5.869   0.779  11.446 -0.2089  1.8761  1.0651
14187TIP3    H264053   5.827   0.695  11.565 -0.2000  0.5406  0.1318
14188TIP3   OH264054   4.816   2.861  11.775 -0.5223  0.5256 -0.1248
14188TIP3    H164055   4.853   2.874  11.688 -0.4645 -1.1440 -0.3539
14188TIP3    H264056   4.876   2.800  11.818 -2.3237 -1.2306 -0.0622
14189TIP3   OH264057   6.781   1.798  15.789 -0.5835  0.3533 -0.8171
14189TIP3    H164058   6.714   1.866  15.783 -2.6068 -1.3909  0.8187
14189TIP3    H264059   6.837   1.812  15.713 -2.7540  1.9786 -2.1732
14190TIP3   OH264060   0.537   5.437   3.555 -0.2171  0.3030  0.2212
14190TIP3    H164061   0.612   5.495   3.541  1.2509 -1.6327 -0.1751
14190TIP3    H264062   0.518   5.444   3.649  2.0096 -0.9693  0.8163
14191TIP3   OH264063   0.809   3.917   0.473 -0.2419  0.0430 -0.6105
14191TIP3    H164064   0.814   3.936   0.379 -2.0534  0.0702 -0.7100
14191TIP3    H264065   0.895   3.879   0.493  1.1931  2.6218 -1.6620
14192TIP3   OH264066   4.336   0.042   3.051 -0.1660  0.5214  0.1794
14192TIP3    H164067   4.266   0.046   3.116 -0.2298 -0.8589  0.2146
14192TIP3    H264068   4.409   0.089   3.092  0.2561 -1.5234  1.8637
14193TIP3   OH264069   2.735   2.625  14.706 -0.5069 -0.3542  0.3010
14193TIP3    H164070   2.794   2.566  14.661  0.9601 -0.2565  2.0519
14193TIP3    H264071   2.721   2.585  14.792  0.3802  1.7169  1.4630
14194TIP3   OH264072   6.505   2.914   3.437  0.2685 -0.5787 -0.0099
14194TIP3    H164073   6.537   2.859   3.365  0.5151  0.2451 -0.5375
14194TIP3    H264074   6.582   2.961   3.467  0.2620 -1.2780  1.1299
14195TIP3   OH264075   5.110   3.954  15.354 -0.1144  0.4376 -0.7184
14195TIP3    H164076   5.079   3.882  15.408  0.2790  0.3072 -0.6656
14195TIP3    H264077   5.035   3.978  15.300 -0.5875  0.7537  0.0772
14196TIP3   OH264078   4.521   4.454  13.845 -0.4051 -0.0220  0.4346
14196TIP3    H164079   4.442   4.495  13.810 -0.2342 -2.0909 -2.5621
14196TIP3    H264080   4.490   4.373  13.885 -0.1646  0.7143  2.1463
14197TIP3   OH264081   1.769   2.748   1.919  0.1100  0.5569 -0.1825
14197TIP3    H164082   1.706   2.802   1.967 -1.2917 -2.0658  1.0267
14197TIP3    H264083   1.838   2.730   1.983 -1.4542 -2.4290  0.7428
14198TIP3   OH264084   2.047   4.658  10.506  0.4414  0.7405  0.2250
14198TIP3    H164085   1.997   4.721  10.454 -0.0590  0.7304  0.6943
14198TIP3    H264086   2.085   4.599  10.440  0.4535  1.1889 -0.1765
14199TIP3   OH264087   0.680   3.489  11.184 -0.4352  0.1779 -0.2051
14199TIP3    H164088   0.616   3.523  11.121  0.9519  3.9326  0.3066
14199TIP3    H264089   0.765   3.506  11.144  0.4209  1.4366  2.0841
14200TIP3   OH264090   3.655   2.507   1.867 -0.1623 -0.0263 -0.5744
14200TIP3    H164091   3.647   2.574   1.934  1.8419 -0.0646 -0.2818
14200TIP3    H264092   3.573   2.512   1.818 -0.6732  1.5580  0.4315
14201TIP3   OH264093   6.351   2.692  15.886 -0.2212  0.3612 -0.4244
14201TIP3    H164094   6.391   2.695  15.973  0.1039 -0.6720 -0.5283
14201TIP3    H264095   6.291   2.766  15.884  0.5291  0.9948  0.3140
14202TIP3   OH264096   0.941   6.662   5.891  0.1348 -0.0669  0.1602
14202TIP3    H164097   0.920   6.571   5.870  2.6462 -0.8643  0.9780
14202TIP3    H264098   0.947   6.705   5.805  0.3934 -0.9931 -0.2865
14203TIP3   OH264099   0.164   4.884   2.985  0.2629 -0.1829  0.0689
14203TIP3    H164100   0.186   4.795   2.956 -1.0449 -0.5539  0.1904
14203TIP3    H264101   0.090   4.872   3.045 -0.6174  1.0802 -0.7509
14204TIP3   OH264102   3.670   1.159   1.782 -0.2407  0.1840 -0.1526
14204TIP3    H164103   3.754   1.165   1.738 -0.0252  0.0910  0.2481
14204TIP3    H264104   3.613   1.115   1.719 -0.1163  0.6633 -0.6025
14205TIP3   OH264105   3.617   5.535   1.356  0.4004  0.0324 -0.2844
14205TIP3    H164106   3.607   5.610   1.297  1.4279  0.7984  0.4865
14205TIP3    H264107   3.538   5.538   1.410  0.2486  0.3289 -0.5199
14206TIP3   OH264108   5.835   3.203   2.571 -0.5148 -0.2511  0.1443
14206TIP3    H164109   5.875   3.170   2.490  0.8003  0.5257  0.4648
14206TIP3    H264110   5.864   3.143   2.639  1.7607  1.4329  0.7026
14207TIP3   OH264111   4.852   2.536  14.027 -0.1045  0.0249  0.0698
14207TIP3    H164112   4.814   2.600  13.967  0.2706  1.0128  0.8865
14207TIP3    H264113   4.916   2.489  13.974 -0.0442  0.6405 -0.4117
14208TIP3   OH264114   0.837   6.304  12.356 -0.5984 -0.2196  0.0790
14208TIP3    H164115   0.865   6.233  12.298  1.5971 -0.2714  1.1825
14208TIP3    H264116   0.797   6.259  12.431 -0.0320 -0.2462  0.3606
14209TIP3   OH264117   0.776   3.111  14.169 -0.7166  0.1519 -0.0519
14209TIP3    H164118   0.832   3.181  14.205  0.0086  0.0141 -0.8899
14209TIP3    H264119   0.734   3.152  14.093 -0.2621 -0.3205 -0.5661
14210TIP3   OH264120   3.646   3.386  14.186 -0.1788  0.3849  0.1573
14210TIP3    H164121   3.680   3.316  14.243 -0.7852 -0.0450  0.0009
14210TIP3    H264122   3.624   3.457  14.246 -1.8734 -0.4852  0.6032
14211TIP3   OH264123   4.064   2.011   2.337  0.0337 -0.1627 -0.0048
14211TIP3    H164124   4.140   2.020   2.393 -0.7714 -1.4472  1.3368
14211TIP3    H264125   4.079   1.928   2.290  0.4038  0.5856 -1.2281
14212TIP3   OH264126   3.603   5.291   1.632 -0.0191 -0.5622  0.2537
14212TIP3    H164127   3.515   5.290   1.670 -0.1305 -0.1267  0.0013
14212TIP3    H264128   3.596   5.236   1.554  0.0607 -0.9506  0.5155
14213TIP3   OH264129   5.281   0.770  11.365  0.2034  0.4770 -0.5332
14213TIP3    H164130   5.257   0.680  11.386 -1.1772  1.4044  2.1284
14213TIP3    H264131   5.201   0.820  11.379  0.5502  1.9648 -3.3993
14214TIP3   OH264132   5.958   3.671   0.721 -0.0947 -0.2344 -0.7370
14214TIP3    H164133   5.925   3.757   0.746  0.0805 -0.4778  0.3538
14214TIP3    H264134   6.033   3.657   0.778 -1.0933 -1.7944  0.2296
14215TIP3   OH264135   4.118   2.379   6.202  0.6845 -0.7386 -0.1552
14215TIP3    H164136   4.030   2.393   6.168  0.3152 -0.3350  0.9330
14215TIP3    H264137   4.172   2.365   6.125 -0.4103 -1.3974 -0.8072
14216TIP3   OH264138   2.624   5.287   1.117 -0.2371 -0.2210  0.4226
14216TIP3    H164139   2.538   5.304   1.078 -0.6873  0.2549  1.6191
14216TIP3    H264140   2.676   5.363   1.094 -0.5337  0.1104  0.8463
14217TIP3   OH264141   6.220   5.260  12.401  0.0038  0.2542 -0.1461
14217TIP3    H164142   6.275   5.326  12.359 -0.9715  0.8103 -0.5652
14217TIP3    H264143   6.246   5.178  12.360 -0.9130  0.7823 -1.8291
14218TIP3   OH264144   1.486   6.623   0.093 -0.7217 -0.1463  0.1165
14218TIP3    H164145   1.458   6.625   0.001  0.8705  0.1883 -0.3646
14218TIP3    H264146   1.408   6.651   0.142 -1.0090  1.5413 -1.2632
14219TIP3   OH264147   1.321   6.529  16.447  0.2810  0.0822 -0.5145
14219TIP3    H164148   1.365   6.613  16.437  0.7667 -0.0455  0.5153
14219TIP3    H264149   1.258   6.526  16.374 -0.0494  1.5198 -0.2981
14220TIP3   OH264150   2.008   2.992  15.386 -0.9436 -0.3534 -0.2819
14220TIP3    H164151   1.976   3.063  15.330 -1.3581 -0.6130 -0.3700
14220TIP3    H264152   2.103   3.003  15.385 -1.0676  0.9401  0.6642
14221TIP3   OH264153   6.255   5.049   0.740  0.5577  0.1330 -0.6969
14221TIP3    H164154   6.259   5.019   0.649 -2.0691 -0.5226 -0.6306
14221TIP3    H264155   6.177   5.007   0.776  0.5815  1.7725  1.3663
14222TIP3   OH264156   2.792   0.223   1.162  0.2263 -0.5091  0.2436
14222TIP3    H164157   2.832   0.307   1.186 -1.2485 -0.0141  0.9911
14222TIP3    H264158   2.858   0.180   1.108  0.9519  1.1765 -0.2293
14223TIP3   OH264159   3.725   2.408   6.399  0.1239  0.1404  0.8925
14223TIP3    H164160   3.740   2.336   6.460  2.3914  0.7220  1.0533
14223TIP3    H264161   3.781   2.388   6.324  0.5597  1.5985  0.8127
14224TIP3   OH264162   1.382   5.933  15.786  0.1628  0.2261 -0.0621
14224TIP3    H164163   1.332   6.015  15.791 -1.1688 -0.4550 -2.0296
14224TIP3    H264164   1.464   5.958  15.745  0.8243  1.0286  1.6640
14225TIP3   OH264165   6.475   0.901  15.821  0.2387  0.1558 -0.4442
14225TIP3    H164166   6.550   0.866  15.775 -0.5704 -0.3804 -1.3760
14225TIP3    H264167   6.459   0.986  15.780  0.8109  0.6242  0.2856
14226TIP3   OH264168   0.826   2.211  11.162  0.0922 -0.2051 -0.0185
14226TIP3    H164169   0.840   2.304  11.179  0.6604 -0.2433 -0.2930
14226TIP3    H264170   0.754   2.188  11.221 -0.6978  0.6261 -0.6435
14227TIP3   OH264171   0.687   5.463   1.705  0.4917  0.2176 -0.0681
14227TIP3    H164172   0.651   5.513   1.631 -0.9603  1.2217  1.2778
14227TIP3    H264173   0.628   5.483   1.778  1.7837 -0.9229  1.3136
14228TIP3   OH264174   5.661   3.430  16.368  0.0055  0.0338 -0.2918
14228TIP3    H164175   5.608   3.358  16.334 -0.5225  0.5971 -0.7034
14228TIP3    H264176   5.735   3.388  16.411 -0.6127 -0.7635  0.0135
14229TIP3   OH264177   1.256   3.575   2.450  0.9057  0.7073  0.8328
14229TIP3    H164178   1.260   3.509   2.520 -0.1607  0.6049  0.7991
14229TIP3    H264179   1.208   3.648   2.489 -0.6424  0.2238 -0.1381
14230TIP3   OH264180   4.060   2.465   3.064  0.7033  0.3498 -0.1308
14230TIP3    H164181   4.053   2.409   2.986 -1.3468 -1.4392  1.2545
14230TIP3    H264182   4.031   2.551   3.034 -1.0546 -0.5610 -1.1405
14231TIP3   OH264183   5.355   0.024  15.058 -0.4659  0.7258  0.3835
14231TIP3    H164184   5.376  -0.067  15.078  0.6520  0.9741  0.3692
14231TIP3    H264185   5.377   0.072  15.138  1.8330  1.3956 -0.5967
14232TIP3   OH264186   2.803   3.497  12.540  0.6698  0.1467 -0.3629
14232TIP3    H164187   2.715   3.532  12.527  1.1496  1.1673 -0.9621
14232TIP3    H264188   2.860   3.575  12.539  1.3948 -0.3010  1.7841
14233TIP3   OH264189   1.256   2.804   1.878  0.2463  0.7786  0.4632
14233TIP3    H164190   1.286   2.799   1.788 -0.1732  0.2353  0.3539
14233TIP3    H264191   1.195   2.877   1.879  0.2011  0.7424  0.2957
14234TIP3   OH264192   0.209   1.247  14.871 -0.5010 -0.2161 -0.1156
14234TIP3    H164193   0.147   1.316  14.846 -0.5373 -0.2132 -0.0163
14234TIP3    H264194   0.177   1.215  14.955 -0.8574 -0.8012 -0.4673
14235TIP3   OH264195   1.419   0.269  15.478 -0.9711  0.6416 -0.0470
14235TIP3    H164196   1.489   0.312  15.428 -1.5984  1.3762 -0.3083
14235TIP3    H264197   1.396   0.192  15.425  0.1109  0.0128  0.3875
14236TIP3   OH264198   3.627   2.112  13.011 -0.1110  0.3208 -0.0918
14236TIP3    H164199   3.567   2.121  12.936  0.7060  1.2844 -0.6306
14236TIP3    H264200   3.571   2.078  13.081 -1.0131 -0.0450 -0.9636
14237TIP3   OH264201   4.509   4.707  13.126  0.0406 -0.6097  0.4213
14237TIP3    H164202   4.472   4.763  13.194 -2.7246 -0.0469 -1.4652
14237TIP3    H264203   4.446   4.636  13.116  0.9778 -1.2941 -0.7790
14238TIP3   OH264204   2.536   1.054  16.676 -0.0972 -0.1282  1.0546
14238TIP3    H164205   2.484   1.002  16.737 -0.8504 -0.1564  0.3940
14238TIP3    H264206   2.615   1.078  16.726 -0.3080 -0.8714  1.7506
14239TIP3   OH264207   4.830   4.844   3.895  0.2153 -0.4661  0.2773
14239TIP3    H164208   4.870   4.869   3.812 -0.9894 -0.7729 -0.4062
14239TIP3    H264209   4.764   4.911   3.911  1.3787  0.3594  1.6867
14240TIP3   OH264210   4.300   0.206  11.479 -0.0241 -0.3685  0.1039
14240TIP3    H164211   4.377   0.224  11.426  0.5224 -0.5049  0.8453
14240TIP3    H264212   4.274   0.117  11.454 -0.1655 -0.1814 -0.4173
14241TIP3   OH264213   1.989   0.242  16.253  0.0450 -0.1220 -0.2540
14241TIP3    H164214   1.899   0.222  16.280  0.0560  1.6665  1.2063
14241TIP3    H264215   2.010   0.174  16.189 -2.7571  0.1363 -1.5109
14242TIP3   OH264216   2.029   0.351  11.206 -0.5389 -0.3459 -0.1171
14242TIP3    H164217   2.045   0.336  11.112 -0.9681  1.4446 -0.4904
14242TIP3    H264218   1.941   0.388  11.209  0.3499  1.7253  0.7930
14243TIP3   OH264219   5.633   3.487  10.610 -0.5824 -0.4368 -0.3111
14243TIP3    H164220   5.662   3.397  10.598  0.3836  0.0516 -1.7579
14243TIP3    H264221   5.538   3.484  10.597 -0.2934 -0.8935 -2.5162
14244TIP3   OH264222   1.969   2.273   5.588 -0.4955 -0.0729 -0.6210
14244TIP3    H164223   2.040   2.226   5.632 -0.4971  0.0539 -0.4822
14244TIP3    H264224   1.909   2.297   5.658  0.0334  1.0575 -0.5492
14245TIP3   OH264225   4.908   4.055  11.535 -0.0053  0.4019 -0.3579
14245TIP3    H164226   4.944   3.968  11.519 -0.3463  0.2922 -0.5418
14245TIP3    H264227   4.853   4.044  11.613 -0.5669  0.3082 -0.7702
14246TIP3   OH264228   0.289   5.669   0.539 -0.4253  0.1158 -0.2914
14246TIP3    H164229   0.228   5.596   0.531  0.5451 -0.8712  1.0827
14246TIP3    H264230   0.251   5.725   0.606 -0.6174  0.3061 -0.5602
14247TIP3   OH264231   2.644   1.853   3.487  0.0884 -0.1967 -0.0406
14247TIP3    H164232   2.727   1.822   3.451  0.5425  1.7710 -0.7459
14247TIP3    H264233   2.579   1.793   3.451  1.3025 -2.5418  1.5420
14248TIP3   OH264234   1.320   4.908   3.608 -0.0325 -0.1312  0.2621
14248TIP3    H164235   1.271   4.981   3.646 -0.9210 -0.8932  0.6082
14248TIP3    H264236   1.347   4.855   3.683 -0.7206 -0.9735 -0.0701
14249TIP3   OH264237   6.295   2.045   3.739 -0.0208 -0.0525 -0.3153
14249TIP3    H164238   6.359   2.014   3.675 -1.3274 -0.4061 -1.4927
14249TIP3    H264239   6.244   1.967   3.761  0.2423  0.1280  0.9618
14250TIP3   OH264240   0.502   0.178  15.873 -0.1113 -0.1399 -0.0754
14250TIP3    H164241   0.420   0.136  15.845 -0.6116  0.5703  0.2929
14250TIP3    H264242   0.527   0.233  15.798 -0.8710  0.9249  0.4353
14251TIP3   OH264243   4.541   0.451  11.474 -0.3404 -0.0231  0.6418
14251TIP3    H164244   4.543   0.392  11.398 -3.0717 -0.9602  1.2142
14251TIP3    H264245   4.551   0.538  11.437 -2.1361 -0.4296 -0.8689
14252TIP3   OH264246   0.384   4.915  11.980  0.2029  0.2134  0.0955
14252TIP3    H164247   0.381   4.992  11.924 -0.6120  1.1332  1.3807
14252TIP3    H264248   0.470   4.919  12.023  0.6100 -0.2053 -0.6637
14253TIP3   OH264249   2.175   5.174  13.010  0.9798  0.1907  0.1603
14253TIP3    H164250   2.102   5.113  13.022  0.8178  0.2275 -0.6227
14253TIP3    H264251   2.136   5.261  13.019  0.9134  0.2118 -0.3066
14254TIP3   OH264252   4.161   1.476  16.174  0.2794  0.1605 -0.0957
14254TIP3    H164253   4.242   1.432  16.203  0.3177 -0.1294 -0.6360
14254TIP3    H264254   4.118   1.412  16.117 -0.1447  0.4595 -0.1122
14255TIP3   OH264255   4.586   0.631   6.471  0.7746  0.1798 -0.6330
14255TIP3    H164256   4.534   0.615   6.393 -0.6997 -2.8419  0.8557
14255TIP3    H264257   4.534   0.595   6.543  3.8551 -0.8461  1.2076
14256TIP3   OH264258   1.744   1.358  12.966  0.9987  0.6157  0.3827
14256TIP3    H164259   1.675   1.356  12.900  0.6696  2.4480  0.6427
14256TIP3    H264260   1.716   1.294  13.032  1.1105 -0.8932 -1.0053
14257TIP3   OH264261   1.925   3.556   2.408 -0.0656  0.7143 -0.3075
14257TIP3    H164262   1.958   3.466   2.409  0.1250  0.7921  1.2403
14257TIP3    H264263   1.853   3.556   2.471  1.4302  2.1897  1.4387
14258TIP3   OH264264   6.361   1.991   4.797 -0.4223  0.3697 -1.0250
14258TIP3    H164265   6.421   1.973   4.869 -1.6989 -0.4135 -0.1553
14258TIP3    H264266   6.277   1.957   4.826 -1.8504  3.5627 -1.2605
14259TIP3   OH264267   2.041   5.137  10.555 -0.4899 -0.0237  0.2337
14259TIP3    H164268   1.962   5.184  10.582  1.4829  2.1312  2.5374
14259TIP3    H264269   2.098   5.140  10.632  0.3289 -5.0553  0.0348
14260TIP3   OH264270   1.453   2.651  15.745  0.2430 -0.2276  0.0549
14260TIP3    H164271   1.491   2.699  15.671 -0.1756 -1.9037 -1.3025
14260TIP3    H264272   1.508   2.573  15.753 -1.6494 -1.6790 -0.6278
14261TIP3   OH264273   0.959   4.978  15.411  0.6084 -0.0706 -0.1868
14261TIP3    H164274   0.894   5.047  15.399  0.9094  0.4516  1.0245
14261TIP3    H264275   0.918   4.899  15.377 -0.9963  0.0829  1.3588
14262TIP3   OH264276   3.836   4.189   4.803 -0.1446  0.1760  0.8012
14262TIP3    H164277   3.742   4.204   4.788 -0.1189 -0.5669 -0.1195
14262TIP3    H264278   3.878   4.271   4.777 -0.5236  0.4953  1.1694
14263TIP3   OH264279   6.056   1.584   1.428  0.1278 -0.1453 -0.2953
14263TIP3    H164280   6.072   1.679   1.425  0.6137 -0.1351  1.5393
14263TIP3    H264281   5.980   1.575   1.485 -1.3209 -0.7369 -2.2975
14264TIP3   OH264282   4.309   0.678  17.187  0.0929  0.2723  0.4695
14264TIP3    H164283   4.404   0.669  17.195  0.3691  2.5728 -0.0491
14264TIP3    H264284   4.279   0.698  17.275  0.1998  0.5497  0.4399
14265TIP3   OH264285   2.135   6.069   4.757 -0.3318  0.1277 -0.2772
14265TIP3    H164286   2.103   6.088   4.669  1.7625  0.9426 -0.8882
14265TIP3    H264287   2.061   6.088   4.814 -1.1596  1.3006 -1.7111
14266TIP3   OH264288   4.875   5.204   1.406  0.0363 -0.2167 -0.6376
14266TIP3    H164289   4.924   5.260   1.345 -2.6534  2.7283 -0.2179
14266TIP3    H264290   4.913   5.223   1.491  1.6464 -1.9424 -0.9296
14267TIP3   OH264291   3.674   0.497  16.856 -0.6730  0.1772 -0.0066
14267TIP3    H164292   3.583   0.496  16.885 -0.8063  0.0654 -0.4339
14267TIP3    H264293   3.671   0.534  16.768 -0.0235  2.6374  0.9381
14268TIP3   OH264294   5.495   2.907  15.092 -0.3035  0.3551  0.8209
14268TIP3    H164295   5.575   2.885  15.139 -0.3074  0.9366  1.1173
14268TIP3    H264296   5.525   2.941  15.008 -0.3281 -1.4910  0.0443
14269TIP3   OH264297   2.591   0.685  16.602 -0.2550  0.5328  0.3388
14269TIP3    H164298   2.654   0.649  16.665 -0.7192  1.5350  1.3871
14269TIP3    H264299   2.531   0.737  16.655 -0.9070  1.0367 -0.8808
14270TIP3   OH264300   2.582   4.323   5.320 -0.1656 -0.1278  0.0249
14270TIP3    H164301   2.504   4.346   5.269  0.7605  1.9941 -0.4888
14270TIP3    H264302   2.551   4.317   5.410 -0.7270  1.8366 -0.0136
14271TIP3   OH264303   5.997   0.495   1.792  0.4405 -0.2983 -0.2043
14271TIP3    H164304   5.939   0.556   1.836  1.6165  1.1032 -0.5334
14271TIP3    H264305   6.064   0.474   1.857  1.9081  1.3991 -1.1171
14272TIP3   OH264306   1.415   3.161   2.006 -0.4185 -0.1175 -0.3314
14272TIP3    H164307   1.483   3.214   1.964  0.8566 -0.2903  1.4883
14272TIP3    H264308   1.454   3.131   2.088 -2.9258  0.3730  1.1054
14273TIP3   OH264309   3.512   1.557   1.039 -0.0114  0.2233  0.0934
14273TIP3    H164310   3.604   1.569   1.016  0.3522 -2.0095  0.2865
14273TIP3    H264311   3.489   1.471   1.004 -1.6602  0.2059  1.1633
14274TIP3   OH264312   0.242   6.770   0.044 -0.1643 -0.1269  0.8349
14274TIP3    H164313   0.184   6.752   0.118  0.8130 -2.7265  1.0429
14274TIP3    H264314   0.250   6.865   0.042 -3.4258  0.1956  1.5412
14275TIP3   OH264315   4.150   2.111   3.919  0.0234  0.2656  0.0568
14275TIP3    H164316   4.119   2.115   3.828 -0.0125 -1.4063 -0.0254
14275TIP3    H264317   4.224   2.051   3.916  0.9816  1.3991  0.8816
14276TIP3   OH264318   6.611   0.057   4.206 -0.0850 -0.1224 -0.3827
14276TIP3    H164319   6.615  -0.007   4.277  2.1878 -1.6888 -1.8390
14276TIP3    H264320   6.552   0.018   4.142 -0.3264  0.2059 -0.3589
14277TIP3   OH264321   4.303   4.649   2.237 -0.5249 -0.3386  0.1389
14277TIP3    H164322   4.285   4.681   2.326 -0.6837 -0.7671  0.2644
14277TIP3    H264323   4.239   4.694   2.182  0.0706  0.5048  0.1304
14278TIP3   OH264324   6.647   4.467   1.403  0.5870 -0.2779 -0.1954
14278TIP3    H164325   6.668   4.376   1.427 -0.3278 -0.0769  1.3725
14278TIP3    H264326   6.551   4.467   1.393  0.4950  0.7068  0.6473
14279TIP3   OH264327   6.654   1.523  11.420 -0.2476 -0.2799 -0.0931
14279TIP3    H164328   6.590   1.590  11.397  0.1017 -0.9132 -3.0877
14279TIP3    H264329   6.622   1.443  11.378  1.8466 -0.8945 -0.5902
14280TIP3   OH264330   4.816   4.764  13.646 -0.5134  0.2488 -0.4923
14280TIP3    H164331   4.764   4.770  13.726  0.6019  0.3808  0.2298
14280TIP3    H264332   4.779   4.831  13.588 -0.0012  1.5492  0.6821
14281TIP3   OH264333   6.631   5.516   2.361 -0.9021  0.2221 -0.6440
14281TIP3    H164334   6.702   5.578   2.375 -1.6923  0.5929  1.9602
14281TIP3    H264335   6.594   5.540   2.276 -0.2199  2.3408 -0.3631
14282TIP3   OH264336   3.680   5.871  16.578 -0.3982 -0.0163 -0.0197
14282TIP3    H164337   3.609   5.931  16.557 -2.0212 -2.4568 -1.7297
14282TIP3    H264338   3.750   5.895  16.517 -0.3155  1.3525  0.5916
14283TIP3   OH264339   5.340   3.239   0.960  0.1821 -0.3431  0.0461
14283TIP3    H164340   5.395   3.313   0.984 -1.5338  0.4034  1.8498
14283TIP3    H264341   5.398   3.179   0.914  2.0771  1.1931  0.3995
14284TIP3   OH264342   0.600   1.548   4.672  0.3992 -0.0497  0.6201
14284TIP3    H164343   0.663   1.534   4.601  1.9349 -2.6774  2.4533
14284TIP3    H264344   0.609   1.641   4.694  0.7790  0.5142 -1.7508
14285TIP3   OH264345   1.513   4.353  11.179  0.6559  0.6247 -0.0170
14285TIP3    H164346   1.535   4.277  11.124  0.4771  0.6150 -0.0753
14285TIP3    H264347   1.424   4.336  11.208  0.4327  1.0571 -0.4398
14286TIP3   OH264348   4.096   1.065   4.095 -0.1913 -0.1161  0.2954
14286TIP3    H164349   4.104   1.050   4.189 -1.2396 -1.0311  0.2556
14286TIP3    H264350   4.165   1.011   4.056  1.4112  1.6449  0.6187
14287TIP3   OH264351   3.464   1.889   6.244 -0.1070  0.3386 -0.2694
14287TIP3    H164352   3.385   1.912   6.292  0.4715  2.0513 -0.1242
14287TIP3    H264353   3.535   1.930   6.292  0.9041 -1.2100 -0.3737
14288TIP3   OH264354   6.123   6.810  12.736  0.0057  0.1369  0.1017
14288TIP3    H164355   6.128   6.722  12.698 -0.6685  0.3300 -0.4239
14288TIP3    H264356   6.215   6.836  12.747  0.2129  0.3302 -1.9408
14289TIP3   OH264357   0.660   2.852   2.540 -0.2557 -0.0025  0.6824
14289TIP3    H164358   0.675   2.845   2.634 -0.9130  2.1214  0.9596
14289TIP3    H264359   0.570   2.822   2.528  0.5378 -2.3977  0.4105
14290TIP3   OH264360   2.873   5.605   2.010 -0.5935 -0.3248 -0.4972
14290TIP3    H164361   2.860   5.571   1.922 -1.4828 -0.3750 -0.3527
14290TIP3    H264362   2.855   5.699   2.003 -0.8888 -0.3677 -0.3195
14291TIP3   OH264363   0.350   1.718  12.883 -0.1337 -0.1357  0.1150
14291TIP3    H164364   0.283   1.774  12.923  0.3111  0.3690  0.1486
14291TIP3    H264365   0.418   1.710  12.950 -0.6935 -1.6040  0.5261
14292TIP3   OH264366   5.172   5.855  13.621 -0.3047  0.8889 -0.1476
14292TIP3    H164367   5.138   5.836  13.533 -3.5132  0.7915  1.0285
14292TIP3    H264368   5.256   5.810  13.625 -0.2363  0.6635 -3.0679
14293TIP3   OH264369   2.453   1.532   3.167  0.0512  0.0778 -0.1495
14293TIP3    H164370   2.450   1.529   3.263  0.0581 -1.2796 -0.1781
14293TIP3    H264371   2.439   1.624   3.146 -1.3145  0.2009  1.1170
14294TIP3   OH264372   2.982   0.696  12.451 -0.0533  0.2201  0.5715
14294TIP3    H164373   3.046   0.735  12.510  2.0842 -1.1489 -0.7770
14294TIP3    H264374   2.945   0.623  12.501 -1.4608  1.7191  1.7783
14295TIP3   OH264375   2.139   4.261   5.958 -0.2940 -0.1518 -0.2729
14295TIP3    H164376   2.206   4.328   5.971 -1.0878  0.4899  0.6435
14295TIP3    H264377   2.075   4.277   6.028 -1.1100 -1.1068 -0.7778
14296TIP3   OH264378   3.160   4.317   6.505  0.2532  0.2488 -0.7392
14296TIP3    H164379   3.189   4.408   6.504  1.0886 -0.0181 -1.3864
14296TIP3    H264380   3.241   4.265   6.506 -0.2132 -0.4893 -0.1639
14297TIP3   OH264381   0.303   6.397  17.070  0.0868  0.2538 -0.0712
14297TIP3    H164382   0.323   6.451  16.994 -1.4821  0.2149 -0.5338
14297TIP3    H264383   0.351   6.316  17.055 -1.4258 -0.3726 -1.8325
14298TIP3   OH264384   2.539   5.728  10.912 -0.4379 -0.3941  0.2058
14298TIP3    H164385   2.466   5.775  10.873 -0.1010 -0.1811 -0.1757
14298TIP3    H264386   2.523   5.636  10.892 -0.8233 -0.3935  0.4967
14299TIP3   OH264387   0.728   6.123   3.939 -0.6010 -0.0845  0.2118
14299TIP3    H164388   0.701   6.170   4.019 -0.2297  0.1410  0.2051
14299TIP3    H264389   0.814   6.087   3.960  0.4288  1.7198 -0.7841
14300TIP3   OH264390   6.682   0.836   1.656 -0.7208 -0.4998  0.5689
14300TIP3    H164391   6.760   0.824   1.601 -2.3521 -2.8087 -1.4052
14300TIP3    H264392   6.713   0.883   1.733  2.0911  0.9755 -1.3769
14301TIP3   OH264393   5.057   3.702  13.127  0.0689 -0.1156  0.3174
14301TIP3    H164394   5.148   3.672  13.127 -0.1835 -0.9152  1.9410
14301TIP3    H264395   5.016   3.653  13.055  1.7113  2.8575 -2.7884
14302TIP3   OH264396   0.474   3.401  14.285  0.0197  0.1757  0.0031
14302TIP3    H164397   0.401   3.446  14.328  0.3560  0.4424  0.3043
14302TIP3    H264398   0.462   3.309  14.308 -0.4865  0.1569 -0.3420
14303TIP3   OH264399   0.482   4.981   4.352  1.3459  0.0481  0.0596
14303TIP3    H164400   0.511   5.071   4.365 -1.1566  0.9003 -0.0771
14303TIP3    H264401   0.407   4.988   4.294  0.6321 -2.0494  0.6945
14304TIP3   OH264402   6.681   6.104   2.524 -0.0577 -0.2349 -0.0665
14304TIP3    H164403   6.726   6.081   2.442 -0.7175 -0.0407 -0.4842
14304TIP3    H264404   6.588   6.091   2.504 -0.0617 -3.2590  1.5957
14305TIP3   OH264405   2.680   2.116   3.033 -0.2381  0.4108 -0.1448
14305TIP3    H164406   2.752   2.159   3.079 -0.0504 -0.3103  0.2448
14305TIP3    H264407   2.645   2.054   3.097 -2.1121  1.7307  0.1570
14306TIP3   OH264408   2.167   1.709  14.346 -0.2546  0.1463  0.2754
14306TIP3    H164409   2.158   1.696  14.251  0.2660 -0.8431  0.3535
14306TIP3    H264410   2.206   1.628  14.377 -1.3398  0.0860  1.4908
14307TIP3   OH264411   4.937   5.835  16.081  0.1951  0.6119 -0.2171
14307TIP3    H164412   4.950   5.781  16.003  1.7246 -1.9625  1.7898
14307TIP3    H264413   5.025   5.851  16.115 -0.5695 -0.1995  2.2396
14308TIP3   OH264414   1.048   1.673  17.017  0.0093 -0.4921 -0.9727
14308TIP3    H164415   1.008   1.733  17.079  0.8953 -1.0218  0.1345
14308TIP3    H264416   0.975   1.637  16.966 -0.6771  0.2483 -0.5124
14309TIP3   OH264417   1.856   6.662   4.123  0.2045  0.2140 -0.5198
14309TIP3    H164418   1.789   6.676   4.189  0.8341  1.7254 -0.1792
14309TIP3    H264419   1.939   6.676   4.169  0.8722 -2.9881 -0.5783
14310TIP3   OH264420   6.504   5.087  11.270 -0.3563 -0.0662  0.2623
14310TIP3    H164421   6.463   5.073  11.185 -0.5270  0.6998  0.2148
14310TIP3    H264422   6.548   5.004  11.290  0.4792  0.0619 -1.0027
14311TIP3   OH264423   0.749   2.436  14.397  0.2829  0.2544 -0.2653
14311TIP3    H164424   0.654   2.426  14.391  0.3291  0.7975 -2.4809
14311TIP3    H264425   0.762   2.499  14.468 -0.7359 -3.3140  3.2612
14312TIP3   OH264426   3.648   0.957   6.197 -0.4790 -0.0719 -0.2058
14312TIP3    H164427   3.653   0.966   6.292  1.3952 -0.2552 -0.2673
14312TIP3    H264428   3.593   1.030   6.169  0.7782  1.3210  0.8284
14313TIP3   OH264429   3.598   5.088   4.577 -0.7063  0.0178  0.7795
14313TIP3    H164430   3.584   5.132   4.494  2.9848  0.5485  0.3627
14313TIP3    H264431   3.557   5.146   4.642 -1.9473  0.5354 -0.4407
14314TIP3   OH264432   5.657   4.253   0.634 -0.1673 -0.6912  0.2975
14314TIP3    H164433   5.644   4.171   0.587  1.9548 -0.9613  0.1562
14314TIP3    H264434   5.573   4.269   0.677 -0.9956 -2.2782 -0.6758
14315TIP3   OH264435   2.750   0.634  15.833 -0.0333  0.9528 -0.5467
14315TIP3    H164436   2.778   0.687  15.758  0.4472  2.6028  0.7661
14315TIP3    H264437   2.831   0.615  15.880 -0.1132 -1.5610 -1.3440
14316TIP3   OH264438   3.205   4.865  14.750 -0.0497  0.4155  0.2128
14316TIP3    H164439   3.168   4.838  14.834  0.0942 -0.3331  0.0381
14316TIP3    H264440   3.130   4.895  14.700 -0.7774 -3.0971 -0.9147
14317TIP3   OH264441   0.742   3.460  12.312  0.2446  0.1210  0.4046
14317TIP3    H164442   0.717   3.394  12.247  0.4956 -1.1006  1.5264
14317TIP3    H264443   0.668   3.521  12.314 -0.5438 -0.8128  0.2409
14318TIP3   OH264444   3.843   5.421  14.510  0.8999 -0.3042 -0.0666
14318TIP3    H164445   3.927   5.377  14.493  2.4986  2.3801  0.3969
14318TIP3    H264446   3.867   5.495  14.566 -1.9763 -0.0805  0.9003
14319TIP3   OH264447   2.479   6.731  16.388  0.1806  0.3336 -0.4106
14319TIP3    H164448   2.449   6.717  16.299 -0.6217 -0.8888  0.0494
14319TIP3    H264449   2.571   6.758  16.379 -0.3099  1.6425 -1.6672
14320TIP3   OH264450   0.880   0.720  14.159  0.0817  0.1336 -0.4761
14320TIP3    H164451   0.880   0.757  14.248  0.7714  0.5981 -0.6654
14320TIP3    H264452   0.846   0.791  14.105 -1.9425 -0.7153 -0.3612
14321TIP3   OH264453   4.677   1.608   5.672 -0.1826  1.1923  0.3112
14321TIP3    H164454   4.764   1.603   5.711  0.0429  2.4953 -0.0021
14321TIP3    H264455   4.632   1.529   5.702  0.6048  1.2644  1.6910
14322TIP3   OH264456   1.208   6.492   2.898 -0.1375 -0.5283  0.3648
14322TIP3    H164457   1.179   6.540   2.820 -0.9522  0.7245  1.4291
14322TIP3    H264458   1.212   6.557   2.967  1.6863 -1.4169  1.1361
14323TIP3   OH264459   4.049   1.943   2.033  0.0030 -0.0128 -0.0973
14323TIP3    H164460   4.143   1.928   2.046 -0.2472 -2.5187 -0.9397
14323TIP3    H264461   4.008   1.859   2.053 -2.1106  1.1413  0.5810
14324TIP3   OH264462   6.720   1.063   4.694 -0.9829  0.2420 -0.1491
14324TIP3    H164463   6.694   1.010   4.769 -2.6695 -0.1422 -0.9570
14324TIP3    H264464   6.710   1.003   4.619 -0.9140  1.0885 -0.8388
14325TIP3   OH264465   1.911   5.212   3.135  0.6163 -0.0680 -0.5282
14325TIP3    H164466   1.969   5.257   3.073  0.0185  1.1333 -0.2287
14325TIP3    H264467   1.823   5.244   3.113  0.1299 -1.3732 -0.5486
14326TIP3   OH264468   1.564   4.930  14.918  0.0472  0.4580 -0.2532
14326TIP3    H164469   1.652   4.933  14.881  0.1384  1.0732  0.0180
14326TIP3    H264470   1.535   4.840  14.903  0.4403  0.4530 -1.0009
14327TIP3   OH264471   3.265   6.266   2.540  0.0787 -0.0613 -0.5165
14327TIP3    H164472   3.199   6.281   2.607  1.9834 -1.0090  1.6079
14327TIP3    H264473   3.238   6.323   2.467 -3.3286 -0.7843  0.0764
14328TIP3   OH264474   0.940   1.322   2.152  0.2040 -0.0738  0.2239
14328TIP3    H164475   0.970   1.288   2.236  1.3737  1.1686  0.3295
14328TIP3    H264476   1.016   1.315   2.094 -0.4231 -0.3923 -0.5848
14329TIP3   OH264477   3.372   2.580   3.295 -0.0344  0.0401  0.0538
14329TIP3    H164478   3.374   2.530   3.377  0.1458  1.1675  0.7384
14329TIP3    H264479   3.331   2.520   3.232  1.6990 -1.6007  0.4414
14330TIP3   OH264480   2.088   0.666   4.815 -0.1121  0.0315 -0.4989
14330TIP3    H164481   2.107   0.717   4.736 -0.2113  0.6405 -0.1383
14330TIP3    H264482   2.048   0.585   4.783 -1.9420  1.1088 -0.9972
14331TIP3   OH264483   2.399   3.851   5.691 -0.1800 -1.0969  0.1300
14331TIP3    H164484   2.459   3.878   5.621 -1.5179 -1.8701 -1.3409
14331TIP3    H264485   2.391   3.929   5.747 -4.2552  1.8787 -4.2047
14332TIP3   OH264486   0.345   1.580   3.401 -0.4389 -0.0401 -0.6936
14332TIP3    H164487   0.431   1.554   3.434 -1.7092  1.0328  3.8156
14332TIP3    H264488   0.342   1.675   3.417 -2.1417  0.0550 -1.5676
14333TIP3   OH264489   1.722   5.146  13.113  0.4746  0.7624 -0.3042
14333TIP3    H164490   1.759   5.142  13.024  2.1199  0.2029  0.3778
14333TIP3    H264491   1.797   5.169  13.168  0.0109 -1.3449  1.2599
14334TIP3   OH264492   2.726   3.538   4.809  0.4632  0.4052  0.2603
14334TIP3    H164493   2.694   3.595   4.739 -1.7573  0.3075  1.1680
14334TIP3    H264494   2.798   3.588   4.848  0.0995  1.5449 -0.4839
14335TIP3   OH264495   0.534   5.367   2.392  0.0682  0.5970 -0.2998
14335TIP3    H164496   0.445   5.339   2.415  0.1999  2.3032  2.5684
14335TIP3    H264497   0.589   5.293   2.415 -0.4680 -0.0266 -0.9867
14336TIP3   OH264498   5.009   6.390   2.373 -0.3717 -0.0150  0.5636
14336TIP3    H164499   5.011   6.351   2.285 -0.1987  0.6069  0.2909
14336TIP3    H264500   5.047   6.477   2.361  1.3344 -0.5979  1.5859
14337TIP3   OH264501   4.968   3.628  16.877  0.2756  0.0679  0.7479
14337TIP3    H164502   5.043   3.686  16.891  0.1360  0.3164  0.4570
14337TIP3    H264503   4.923   3.626  16.962  2.2784 -2.4463  1.8189
14338TIP3   OH264504   5.581   2.416   1.905 -0.2847  0.2236 -0.2015
14338TIP3    H164505   5.559   2.455   1.989  0.9367 -1.3414  0.8765
14338TIP3    H264506   5.549   2.479   1.840 -3.2578  0.4065  1.3558
14339TIP3   OH264507   0.289   4.381  16.614  0.2630  0.6360  0.3938
14339TIP3    H164508   0.326   4.460  16.575 -0.6999  0.2593 -1.3363
14339TIP3    H264509   0.259   4.329  16.540 -0.5145 -0.6714  1.5867
14340TIP3   OH264510   0.447   4.305   0.136  0.8212 -0.5759 -0.3712
14340TIP3    H164511   0.437   4.236   0.071 -0.0098  0.0166 -0.8819
14340TIP3    H264512   0.498   4.373   0.090  0.5661 -0.3210 -0.2765
14341TIP3   OH264513   2.549   2.682  15.479  0.5785 -0.7397 -0.6895
14341TIP3    H164514   2.486   2.718  15.417  0.6732  0.0301 -0.3473
14341TIP3    H264515   2.496   2.651  15.552  0.6297  0.4427 -0.1385
14342TIP3   OH264516   4.420   1.074  16.731  0.3011  0.7460 -0.1282
14342TIP3    H164517   4.463   1.156  16.756 -1.3285  1.4997  0.2072
14342TIP3    H264518   4.329   1.098  16.714 -0.5695 -1.2564  1.4751
14343TIP3   OH264519   6.470   1.750  13.054  0.2537  0.0225  0.2958
14343TIP3    H164520   6.433   1.726  13.139  0.0830  1.7997  0.7417
14343TIP3    H264521   6.397   1.736  12.992 -0.5704  1.5960  0.8882
14344TIP3   OH264522   4.491   5.324  15.262 -0.8095  0.8223 -0.5801
14344TIP3    H164523   4.409   5.293  15.302 -1.1462  1.3388 -0.8671
14344TIP3    H264524   4.527   5.247  15.218  0.8039 -0.4247  2.7117
14345TIP3   OH264525   5.448   0.169  15.712 -0.7370  0.3970 -0.0456
14345TIP3    H164526   5.520   0.149  15.652 -0.9128 -2.2662  0.5684
14345TIP3    H264527   5.369   0.154  15.661 -0.8770 -0.8787  0.5292
14346TIP3   OH264528   5.141   1.432   6.119  0.4797 -0.6663 -0.0709
14346TIP3    H164529   5.125   1.486   6.196 -0.4565 -0.6131 -0.3006
14346TIP3    H264530   5.200   1.363   6.150 -1.0535 -1.4947  1.0548
14347TIP3   OH264531   1.507   4.736  16.814  0.3189  0.5239  0.2182
14347TIP3    H164532   1.507   4.786  16.733  0.9982 -0.2613 -0.2786
14347TIP3    H264533   1.458   4.790  16.876 -1.5801  0.4192 -1.1547
14348TIP3   OH264534   3.274   5.098  11.456 -0.1157  0.4394 -0.5519
14348TIP3    H164535   3.264   5.091  11.361  0.4212  1.0854 -0.6609
14348TIP3    H264536   3.344   5.036  11.478 -1.2089 -0.7485 -0.3865
14349TIP3   OH264537   6.703   6.271   0.844  0.1052 -0.8353 -0.0656
14349TIP3    H164538   6.707   6.175   0.844  1.1474 -0.8386 -2.5119
14349TIP3    H264539   6.621   6.291   0.797 -0.7113 -0.5101  1.4643
14350TIP3   OH264540   1.704   1.246   2.112  0.2746  0.6903  0.7617
14350TIP3    H164541   1.771   1.180   2.130 -0.7117  0.0413  2.0752
14350TIP3    H264542   1.735   1.290   2.032  0.0458 -2.5467 -1.1839
14351TIP3   OH264543   3.138   5.915  14.633 -0.3523  0.1827  0.3049
14351TIP3    H164544   3.146   5.978  14.562  0.2133 -0.0341  0.1758
14351TIP3    H264545   3.098   5.964  14.704 -0.0685  0.6434  0.1509
14352TIP3   OH264546   1.344   0.075   2.849 -0.5289 -0.5367  0.7668
14352TIP3    H164547   1.405   0.022   2.900 -0.7558 -1.1805  0.3732
14352TIP3    H264548   1.392   0.156   2.831 -0.8326  0.1241  2.8957
14353TIP3   OH264549   2.311   0.256   1.782 -0.6630 -0.4705 -0.2973
14353TIP3    H164550   2.352   0.264   1.869  0.0489  0.8755 -0.7356
14353TIP3    H264551   2.286   0.164   1.776 -0.5218 -0.6315  1.2501
14354TIP3   OH264552   5.795   5.406   0.980  0.6781 -0.2597 -0.1148
14354TIP3    H164553   5.750   5.322   0.980  0.1034  0.0492  0.3985
14354TIP3    H264554   5.882   5.387   1.017  0.0394 -0.3619  1.3815
14355TIP3   OH264555   2.049   4.255   1.328 -0.6579 -0.2326 -0.2726
14355TIP3    H164556   1.961   4.217   1.327 -0.0254 -1.7131 -0.6179
14355TIP3    H264557   2.073   4.261   1.235 -0.4237  0.2440 -0.1828
14356TIP3   OH264558   6.430   2.597   1.674  0.1965  0.3824 -0.2529
14356TIP3    H164559   6.450   2.543   1.750  0.9047  0.5710 -0.3048
14356TIP3    H264560   6.437   2.537   1.600 -0.8587  0.1110 -0.1417
14357TIP3   OH264561   0.582   3.538  11.937  0.1971 -0.6363  0.1101
14357TIP3    H164562   0.581   3.630  11.962 -2.2699 -0.1629 -1.5395
14357TIP3    H264563   0.620   3.538  11.849  1.7516 -1.4096  0.7639
14358TIP3   OH264564   1.377   2.320   5.585  0.7457  0.0940  0.5218
14358TIP3    H164565   1.299   2.376   5.583  0.7234  0.0630  0.5267
14358TIP3    H264566   1.369   2.271   5.667 -0.3321 -1.4905 -0.5015
14359TIP3   OH264567   0.713   0.291   0.245 -0.5274 -0.0094  0.3429
14359TIP3    H164568   0.677   0.376   0.271 -0.1093  0.3559 -0.2564
14359TIP3    H264569   0.729   0.300   0.151 -1.4545 -1.1034  0.0610
14360TIP3   OH264570   4.072   1.571   2.537  0.6062 -0.0331 -0.2149
14360TIP3    H164571   3.986   1.599   2.568  1.4097  0.0087  2.0683
14360TIP3    H264572   4.068   1.475   2.540  0.0444 -0.0630 -1.8145
14361TIP3   OH264573   0.614   2.050  11.350 -0.2570 -0.0031 -0.0928
14361TIP3    H164574   0.528   2.050  11.306 -0.2488  0.4826 -0.1109
14361TIP3    H264575   0.658   1.973  11.316 -0.8313 -0.4634  0.1948
14362TIP3   OH264576   1.160   2.944   4.981  0.3708 -0.3477  0.4200
14362TIP3    H164577   1.200   2.859   4.999  0.2397 -0.3927  0.4935
14362TIP3    H264578   1.230   2.995   4.940 -0.0319 -1.0539 -1.1876
14363TIP3   OH264579   0.137   0.762   3.615  0.2622  0.5762 -0.0368
14363TIP3    H164580   0.232   0.773   3.622  0.0852  2.4175 -0.0713
14363TIP3    H264581   0.106   0.848   3.586 -1.2262 -0.5666 -1.9459
14364TIP3   OH264582   1.992   1.525  17.165 -0.2278  0.4631  0.5644
14364TIP3    H164583   2.001   1.599  17.224 -1.4118  0.3665  0.8877
14364TIP3    H264584   1.961   1.563  17.083  1.7910  0.6447 -0.1402
14365TIP3   OH264585   4.545   2.734  15.545 -0.2760  0.1974 -0.4712
14365TIP3    H164586   4.637   2.709  15.548 -0.2400  0.0392 -2.6146
14365TIP3    H264587   4.512   2.711  15.632  1.6172 -0.0085  0.2279
14366TIP3   OH264588   3.332   4.028  15.975 -0.6493 -0.2900 -0.1177
14366TIP3    H164589   3.369   3.979  16.049  0.5054  0.9864  0.1819
14366TIP3    H264590   3.409   4.061  15.928 -1.3972  1.4444 -0.1637
14367TIP3   OH264591   0.809   6.620  14.437 -0.5583  0.5453  0.2079
14367TIP3    H164592   0.721   6.587  14.455 -0.1169  0.6651  2.7641
14367TIP3    H264593   0.866   6.544  14.446 -0.1824  0.8485  0.3963
14368TIP3   OH264594   1.480   1.219  10.597  0.0514 -0.2286  0.2931
14368TIP3    H164595   1.567   1.203  10.562 -0.7920 -2.9634 -0.6654
14368TIP3    H264596   1.450   1.298  10.551  3.1138  2.5377  2.8467
14369TIP3   OH264597   2.131   1.657  12.955 -0.1232 -0.2935  0.2190
14369TIP3    H164598   2.037   1.671  12.967 -0.0837 -0.2983  0.5455
14369TIP3    H264599   2.165   1.743  12.933  0.0953  0.1173  2.0631
14370TIP3   OH264600   0.752   5.145   2.476  0.0283 -0.0602 -0.5284
14370TIP3    H164601   0.826   5.090   2.450  0.7479  0.7816 -0.2923
14370TIP3    H264602   0.683   5.083   2.500  0.2338 -0.8602 -1.9414
14371TIP3   OH264603   2.401   4.956   6.702  0.2848  0.4553 -0.2355
14371TIP3    H164604   2.332   4.923   6.645  0.1434  0.5295 -0.1079
14371TIP3    H264605   2.419   4.883   6.762 -0.6561  0.9182  0.6293
14372TIP3   OH264606   2.363   0.612  16.785 -0.6382  0.4198  0.0119
14372TIP3    H164607   2.304   0.540  16.763  0.1545 -0.6787  1.3637
14372TIP3    H264608   2.350   0.626  16.879 -0.2971  1.5979 -0.1026
14373TIP3   OH264609   3.836   5.964   1.585 -0.6682 -0.2059 -0.2433
14373TIP3    H164610   3.896   6.038   1.602 -1.8367  0.9559 -1.0972
14373TIP3    H264611   3.889   5.886   1.601  1.1760  0.8050 -1.3388
14374TIP3   OH264612   0.407   5.559  14.189 -0.2746  0.0998  0.7626
14374TIP3    H164613   0.451   5.518  14.114  0.6735 -0.9525  1.8712
14374TIP3    H264614   0.474   5.562  14.257 -0.8392  1.9587  1.2571
14375TIP3   OH264615   0.536   5.638  11.248  0.2984 -0.2275 -0.1431
14375TIP3    H164616   0.480   5.662  11.174  0.6827 -0.7843 -0.6198
14375TIP3    H264617   0.577   5.720  11.274 -0.0908  0.0299 -0.3380
14376TIP3   OH264618   3.029   0.335  10.943 -0.6787  0.0135 -0.3138
14376TIP3    H164619   3.008   0.400  10.875 -0.1160 -0.5943 -1.0664
14376TIP3    H264620   2.943   0.306  10.975 -0.9328  1.3488  0.2409
14377TIP3   OH264621   3.976   2.572   0.704 -0.3064  0.2272 -1.2410
14377TIP3    H164622   4.063   2.558   0.743  0.1671  1.6550 -1.7448
14377TIP3    H264623   3.935   2.486   0.706  0.1290  0.0370  1.4020
14378TIP3   OH264624   1.791   5.843   2.559  0.0443  0.4870 -0.2449
14378TIP3    H164625   1.793   5.775   2.491  0.3553  0.3213 -0.0723
14378TIP3    H264626   1.841   5.806   2.631 -0.5377  0.5465  0.1911
14379TIP3   OH264627   2.640   2.430  16.588  0.2360 -0.6879  0.1753
14379TIP3    H164628   2.573   2.377  16.631 -2.1461  1.2581 -1.0510
14379TIP3    H264629   2.654   2.387  16.503 -0.7093 -0.1356 -0.2645
14380TIP3   OH264630   6.539   1.759   4.697 -0.9024  0.0867 -0.2998
14380TIP3    H164631   6.479   1.819   4.741 -1.4871 -0.0910 -0.8517
14380TIP3    H264632   6.539   1.681   4.751 -0.9457  0.1970 -0.1412
14381TIP3   OH264633   3.871   2.742   1.676 -0.7137  0.8486  0.2018
14381TIP3    H164634   3.885   2.713   1.766  1.2259 -1.5386 -0.8034
14381TIP3    H264635   3.919   2.824   1.669 -0.1139  0.5781  1.1080
14382TIP3   OH264636   4.152   6.814  16.996 -0.0261  0.4244  0.2914
14382TIP3    H164637   4.106   6.833  16.914  1.2204  1.6407 -0.1597
14382TIP3    H264638   4.084   6.816  17.063 -1.3208 -2.1056 -0.8869
14383TIP3   OH264639   3.638   5.086   4.073 -0.3428  0.3755 -0.2363
14383TIP3    H164640   3.733   5.102   4.079 -0.0862 -0.9298 -0.8535
14383TIP3    H264641   3.627   5.038   3.991 -1.7955  2.3668 -1.2541
14384TIP3   OH264642   4.064   6.200   0.673  0.3444  0.3215  0.4636
14384TIP3    H164643   4.018   6.276   0.710  0.5040 -0.2443  1.8610
14384TIP3    H264644   4.152   6.234   0.653  0.2409  0.6549  0.5588
14385TIP3   OH264645   4.418   0.779   6.235 -0.0513  0.0150  0.1546
14385TIP3    H164646   4.508   0.795   6.209 -0.4593  2.0489 -0.0474
14385TIP3    H264647   4.397   0.693   6.197  2.0608 -0.8925  0.9772
14386TIP3   OH264648   0.527   2.525   3.918 -0.0434  0.2531  0.2090
14386TIP3    H164649   0.469   2.539   3.993 -0.6947  0.1556 -0.2783
14386TIP3    H264650   0.500   2.441   3.882  1.6529 -0.7262  1.1112
14387TIP3   OH264651   4.546   6.483  13.258 -0.5226 -0.2764  0.1830
14387TIP3    H164652   4.612   6.462  13.192 -1.3425 -0.9221 -0.4375
14387TIP3    H264653   4.525   6.575  13.242  0.2257 -0.0611  0.3921
14388TIP3   OH264654   1.519   3.450  14.822  0.1592 -0.3030  0.1081
14388TIP3    H164655   1.506   3.355  14.822 -1.4714 -0.0989 -0.6114
14388TIP3    H264656   1.532   3.473  14.914 -1.0361 -1.0339  0.4694
14389TIP3   OH264657   1.708   4.914   0.412  0.1661  0.1467  0.1862
14389TIP3    H164658   1.632   4.889   0.359 -0.2167  1.4743  0.0904
14389TIP3    H264659   1.741   4.832   0.447  1.6528 -1.0825 -3.7351
14390TIP3   OH264660   1.993   4.478  13.868 -0.1404 -0.5710  0.4416
14390TIP3    H164661   1.992   4.480  13.773  1.2930  1.0595  0.4300
14390TIP3    H264662   2.074   4.433  13.891  1.1713  1.9181  0.8582
14391TIP3   OH264663   4.637   3.185   2.862  0.4375  0.0112  0.2945
14391TIP3    H164664   4.719   3.152   2.898  0.0298 -0.3508  0.8894
14391TIP3    H264665   4.598   3.110   2.818  0.3686  0.1546  0.1092
14392TIP3   OH264666   2.246   4.231  12.554 -0.0456 -0.0484  0.0244
14392TIP3    H164667   2.341   4.217  12.546 -0.2493 -0.6945 -1.2739
14392TIP3    H264668   2.235   4.325  12.541  0.3860 -0.0013 -0.0138
14393TIP3   OH264669   5.616   3.670  16.117 -0.9687 -0.1195  0.4218
14393TIP3    H164670   5.587   3.587  16.155 -1.8032 -0.0203  0.0259
14393TIP3    H264671   5.595   3.736  16.184 -2.4736  0.0599 -0.2038
14394TIP3   OH264672   4.907   6.610  11.812  0.0387 -0.0616  0.1101
14394TIP3    H164673   4.949   6.647  11.735  0.6122 -3.6255 -1.3509
14394TIP3    H264674   4.963   6.537  11.838 -0.0957  1.1026  3.9861
14395TIP3   OH264675   6.774   3.295  12.045 -0.2577 -0.4716 -0.2945
14395TIP3    H164676   6.699   3.241  12.071 -1.0331  0.4980 -0.5040
14395TIP3    H264677   6.849   3.237  12.056 -0.9989 -1.3611  0.2104
14396TIP3   OH264678   0.595   1.242   1.138 -0.0742  0.5239 -0.1941
14396TIP3    H164679   0.599   1.253   1.233 -2.4593  2.5267 -0.2680
14396TIP3    H264680   0.670   1.292   1.105 -0.1001  1.0896  0.5748
14397TIP3   OH264681   1.466   4.486  12.716  0.4994  0.3903  0.2566
14397TIP3    H164682   1.551   4.495  12.673  1.0810 -1.0925  1.0726
14397TIP3    H264683   1.403   4.520  12.652  1.7391  1.9920 -0.1370
14398TIP3   OH264684   4.851   3.300  14.941 -0.1599 -0.2775  0.2298
14398TIP3    H164685   4.914   3.240  14.982  0.8749  0.0785 -0.7951
14398TIP3    H264686   4.773   3.247  14.928  0.1939 -0.9571  0.8045
14399TIP3   OH264687   0.375   6.199   4.356 -0.0519  0.2705 -0.6358
14399TIP3    H164688   0.457   6.203   4.405 -0.1558 -0.3792 -0.4006
14399TIP3    H264689   0.310   6.240   4.414 -0.0181  0.2145 -0.5581
14400TIP3   OH264690   5.908   1.781  15.382 -0.1051  0.3058  0.4076
14400TIP3    H164691   5.884   1.873  15.397  1.0677  0.8057 -0.7044
14400TIP3    H264692   5.969   1.760  15.452 -0.3570  0.3783  0.6491
14401TIP3   OH264693   0.710   4.760  14.631  0.0845 -0.4435  0.2503
14401TIP3    H164694   0.625   4.724  14.608  0.8225  0.0510 -3.6662
14401TIP3    H264695   0.696   4.855  14.636  0.5336 -0.2736 -1.3183
14402TIP3   OH264696   4.112   4.543  13.366 -0.4866 -0.2561  0.2568
14402TIP3    H164697   4.169   4.535  13.443  1.2001  0.6343 -0.8653
14402TIP3    H264698   4.165   4.590  13.302 -2.9958  1.8142 -0.3540
14403TIP3   OH264699   3.842   4.323   1.520 -0.7323 -0.2507  0.2583
14403TIP3    H164700   3.839   4.246   1.464  0.5265 -0.3731  0.3320
14403TIP3    H264701   3.883   4.292   1.601 -0.8958  0.3278  0.5674
14404TIP3   OH264702   4.000   2.979  14.755 -0.1352  0.0237 -0.2048
14404TIP3    H164703   3.936   3.047  14.730  0.4970  0.6942 -0.0150
14404TIP3    H264704   3.971   2.901  14.708 -1.0869  0.3261 -0.1390
14405TIP3   OH264705   1.579   0.907   5.848  0.3551 -0.1667  0.3490
14405TIP3    H164706   1.592   0.925   5.941  0.7794 -0.3513  0.3266
14405TIP3    H264707   1.502   0.850   5.845  0.6975 -0.6454  0.6312
14406TIP3   OH264708   1.045   2.926   2.516 -0.1508  0.2781 -0.0207
14406TIP3    H164709   1.008   2.851   2.561 -0.0660 -0.1402 -0.6294
14406TIP3    H264710   1.001   2.927   2.431 -0.7158  1.3860  0.2724
14407TIP3   OH264711   0.871   2.972  13.293 -0.6066 -0.2026  0.1986
14407TIP3    H164712   0.918   2.945  13.214 -0.7514 -1.0696  0.4038
14407TIP3    H264713   0.842   2.890  13.333  1.2112  0.0894  2.2130
14408TIP3   OH264714   2.755   0.765   0.366  0.4727  0.5761 -0.0420
14408TIP3    H164715   2.703   0.843   0.349  0.2439  0.4368  0.0158
14408TIP3    H264716   2.720   0.699   0.305 -0.9780 -0.2111  1.5853
14409TIP3   OH264717   6.304   6.577  14.397  0.3547  0.3670 -0.2876
14409TIP3    H164718   6.356   6.652  14.366  1.8113  0.1487  1.5329
14409TIP3    H264719   6.368   6.521  14.442 -1.0360 -1.1436 -0.1537
14410TIP3   OH264720   2.611   1.349  16.576 -0.0957  0.6011  0.4399
14410TIP3    H164721   2.538   1.410  16.589  0.3577  1.4362 -0.8449
14410TIP3    H264722   2.581   1.268  16.616 -0.9860  1.4696  1.5801
14411TIP3   OH264723   4.570   6.767  12.428  0.0273  0.3105 -0.4367
14411TIP3    H164724   4.560   6.859  12.404 -2.2608  0.0517 -0.5640
14411TIP3    H264725   4.519   6.720  12.362  1.0809 -1.0550 -0.3009
14412TIP3   OH264726   2.364   4.372  15.717  0.0868 -0.7208  0.2151
14412TIP3    H164727   2.372   4.279  15.737 -2.2794 -1.5279 -2.1963
14412TIP3    H264728   2.271   4.392  15.731  0.2783  0.9229 -0.6543
14413TIP3   OH264729   1.300   3.605  11.063  0.4324 -0.1359  0.5038
14413TIP3    H164730   1.217   3.618  11.017  1.4547  3.3609 -0.5080
14413TIP3    H264731   1.359   3.570  10.996  1.0213  1.8555 -0.0554
14414TIP3   OH264732   3.283   2.485   3.039 -0.3075  0.7835 -0.0882
14414TIP3    H164733   3.344   2.418   3.009 -1.1011 -0.1752  0.4010
14414TIP3    H264734   3.291   2.556   2.975  1.8433  0.9814  0.3786
14415TIP3   OH264735   2.242   4.372  13.953 -0.1303 -0.4274  0.5185
14415TIP3    H164736   2.322   4.319  13.953 -0.2196 -0.5990 -1.0042
14415TIP3    H264737   2.272   4.462  13.963  0.2974 -0.4628 -0.3805
14416TIP3   OH264738   3.233   2.670  16.039  0.5016 -0.0454 -0.3229
14416TIP3    H164739   3.310   2.667  15.982  1.2059  1.0215  0.5609
14416TIP3    H264740   3.233   2.758  16.076 -2.0616  0.5225 -1.5414
14417TIP3   OH264741   5.533   6.439   3.820 -0.0680  0.3900 -0.2651
14417TIP3    H164742   5.498   6.508   3.764 -1.2563  0.8723  1.0472
14417TIP3    H264743   5.502   6.461   3.908  0.9690 -0.8823  0.4385
14418TIP3   OH264744   3.946   5.513  15.369  0.2747  0.0421  0.2589
14418TIP3    H164745   3.923   5.528  15.460  0.1088 -0.5242  0.3140
14418TIP3    H264746   3.950   5.417  15.361 -0.6601  0.0704 -0.5673
14419TIP3   OH264747   1.421   2.482  12.185  0.1121 -0.5941  0.4000
14419TIP3    H164748   1.515   2.467  12.172  0.5643  1.4846  1.1699
14419TIP3    H264749   1.410   2.481  12.280 -0.5825 -0.3957  0.3228
14420TIP3   OH264750   1.314   6.542  14.861 -0.1601  1.0898 -0.7217
14420TIP3    H164751   1.220   6.536  14.844 -0.3045  0.6208  0.2227
14420TIP3    H264752   1.325   6.504  14.948  1.1180 -0.3294 -1.4766
14421TIP3   OH264753   6.455   4.208   3.265  0.1870  0.4675  0.2557
14421TIP3    H164754   6.365   4.176   3.272  0.9824 -1.4528  2.1229
14421TIP3    H264755   6.504   4.134   3.228  1.4723  0.5867  1.6898
14422TIP3   OH264756   3.233   3.786  10.692  0.4106 -0.2768 -0.1816
14422TIP3    H164757   3.260   3.713  10.747  1.1379 -0.4275 -0.7391
14422TIP3    H264758   3.272   3.769  10.607 -0.7261 -0.0548 -0.7668
14423TIP3   OH264759   4.122   6.184   3.394  0.4395 -1.0416  0.0579
14423TIP3    H164760   4.091   6.156   3.480 -0.8410 -1.7376 -0.6225
14423TIP3    H264761   4.133   6.103   3.345  0.8265 -0.6205 -0.5529
14424TIP3   OH264762   5.611   6.518  16.329  0.0355  0.0660  0.8573
14424TIP3    H164763   5.561   6.598  16.347  0.3812  0.3444  0.5908
14424TIP3    H264764   5.605   6.507  16.234 -0.7351 -0.7078  0.9849
14425TIP3   OH264765   4.218   4.132   0.307  0.2405 -0.3198  0.0380
14425TIP3    H164766   4.201   4.117   0.214  0.6098  0.7514 -0.2166
14425TIP3    H264767   4.198   4.225   0.319  2.4702  0.1071  0.5179
14426TIP3   OH264768   6.105   1.901   1.265  0.5742 -0.2099 -0.5089
14426TIP3    H164769   6.149   1.833   1.213  0.7141 -0.3214 -0.2465
14426TIP3    H264770   6.131   1.983   1.225 -1.5424 -0.4071 -2.3535
14427TIP3   OH264771   5.938   0.452  16.709 -0.1860  0.8327 -0.6444
14427TIP3    H164772   5.885   0.414  16.779 -0.5066  1.0022 -0.7951
14427TIP3    H264773   6.024   0.465  16.748 -0.0654 -0.0794 -0.5992
14428TIP3   OH264774   5.998   5.856  16.813 -0.1185 -0.0368  0.7126
14428TIP3    H164775   6.027   5.796  16.745  0.0155  1.4746 -0.5747
14428TIP3    H264776   6.023   5.942  16.782  0.2503  0.6519  2.8363
14429TIP3   OH264777   3.133   5.916   1.041 -0.8189  0.1710 -0.0861
14429TIP3    H164778   3.155   6.008   1.024 -0.1971 -0.1792 -1.2378
14429TIP3    H264779   3.122   5.878   0.954 -0.1930 -1.0548  0.3691
14430TIP3   OH264780   1.431   4.277  12.488 -0.3650 -0.0925  0.2820
14430TIP3    H164781   1.475   4.250  12.408  0.5343 -1.4687  1.2079
14430TIP3    H264782   1.467   4.364  12.507 -1.4695  0.7648 -1.4169
14431TIP3   OH264783   4.305   1.747   2.575  0.3281  0.2604 -0.1409
14431TIP3    H164784   4.354   1.755   2.493  0.1299 -0.3475 -0.3198
14431TIP3    H264785   4.250   1.669   2.563  1.7931 -1.0572  1.3091
14432TIP3   OH264786   0.190   3.699   4.666  0.8863  0.1743 -0.1733
14432TIP3    H164787   0.193   3.609   4.634  1.2376  0.4734 -0.9929
14432TIP3    H264788   0.168   3.752   4.589 -2.7986  0.4589  0.9690
14433TIP3   OH264789   4.544   5.136  13.502 -0.2973  0.4622 -0.3308
14433TIP3    H164790   4.516   5.057  13.455 -0.7720 -0.6716  1.7791
14433TIP3    H264791   4.511   5.208  13.448 -2.9719 -0.8064 -0.5288
14434TIP3   OH264792   2.257   6.051  13.803 -0.3573 -0.0962  0.2607
14434TIP3    H164793   2.164   6.033  13.787 -0.4427  0.5118  0.0612
14434TIP3    H264794   2.272   6.026  13.894 -0.3884 -1.5134 -0.1080
14435TIP3   OH264795   4.968   2.439  15.709 -0.1136  0.5240 -0.0913
14435TIP3    H164796   4.945   2.438  15.802 -1.1312  2.0950 -0.3142
14435TIP3    H264797   4.954   2.349  15.680 -0.4542  0.1823  1.1152
14436TIP3   OH264798   6.739   0.318  17.211 -0.1681  0.3515  0.5180
14436TIP3    H164799   6.700   0.310  17.124 -1.7683  0.2946  1.2211
14436TIP3    H264800   6.750   0.228  17.241  1.6766  0.3221 -0.1612
14437TIP3   OH264801   6.560   3.312   5.545 -0.8041 -0.0092  0.2677
14437TIP3    H164802   6.627   3.377   5.565 -0.4852 -0.0413 -0.6571
14437TIP3    H264803   6.609   3.232   5.525 -1.0378  0.3294 -1.7733
14438TIP3   OH264804   6.542   1.824   5.459 -0.1580  0.2970 -0.8450
14438TIP3    H164805   6.460   1.842   5.506  0.3209 -1.4269  0.6855
14438TIP3    H264806   6.518   1.758   5.394  0.0329 -0.2259 -0.3806
14439TIP3   OH264807   2.445   4.838   2.760  0.1706 -0.0038  0.5514
14439TIP3    H164808   2.537   4.824   2.737 -0.2788 -1.5039 -0.3978
14439TIP3    H264809   2.409   4.750   2.769 -1.5417  0.5549 -0.6012
14440TIP3   OH264810   4.040   2.502  16.476 -0.0705  0.3169  0.2042
14440TIP3    H164811   3.968   2.444  16.502  0.5317 -0.4319  0.2275
14440TIP3    H264812   4.119   2.453  16.500  0.4411  1.1476  0.2018
14441TIP3   OH264813   0.687   4.041   6.089 -1.0004  0.4050 -0.0641
14441TIP3    H164814   0.621   4.035   6.158  0.3221 -0.6910  1.1187
14441TIP3    H264815   0.742   4.115   6.114 -1.7910  1.3588 -1.0868
14442TIP3   OH264816   6.746   0.045  11.643  0.2631 -0.0585  0.3002
14442TIP3    H164817   6.799   0.081  11.571 -0.4002 -1.3866 -0.8729
14442TIP3    H264818   6.657   0.046  11.610  0.0952 -1.7885  0.6313
14443TIP3   OH264819   5.571   2.466  14.731 -0.0705 -0.3598 -0.1160
14443TIP3    H164820   5.609   2.534  14.787 -0.0462  0.6839 -1.3666
14443TIP3    H264821   5.637   2.398  14.727  0.9817  0.6860 -0.8907
14444TIP3   OH264822   1.730   6.054  14.739  0.4431  0.1799  0.2316
14444TIP3    H164823   1.667   6.124  14.724 -1.2430 -1.2767  0.3804
14444TIP3    H264824   1.700   5.982  14.684  1.1511 -1.0362  1.4148
14445TIP3   OH264825   0.119   0.077  15.603 -0.8883 -0.1097  0.4223
14445TIP3    H164826   0.110   0.161  15.648  1.2966  1.5288 -2.0636
14445TIP3    H264827   0.057   0.080  15.531  0.0524 -0.1147 -0.3976
14446TIP3   OH264828   3.169   4.626  14.362 -0.0047 -0.1332  0.1024
14446TIP3    H164829   3.218   4.706  14.341  0.4475 -0.5455 -0.4294
14446TIP3    H264830   3.166   4.625  14.458  1.5968 -0.4196  0.1668
14447TIP3   OH264831   2.316   5.518  14.623 -0.2789  0.2783 -0.2893
14447TIP3    H164832   2.331   5.561  14.708 -0.1025 -0.7614  0.2187
14447TIP3    H264833   2.385   5.452  14.617 -1.4656 -0.9906 -0.3232
14448TIP3   OH264834   4.305   6.816   6.552 -0.3377  0.2021  0.1620
14448TIP3    H164835   4.284   6.900   6.512  0.7970  0.7394  0.6693
14448TIP3    H264836   4.395   6.826   6.584 -1.0946 -0.2700  2.5869
14449TIP3   OH264837   1.274   1.440  13.953  0.3877 -0.1242  0.7768
14449TIP3    H164838   1.303   1.517  13.905 -1.0485  0.5375  0.9413
14449TIP3    H264839   1.346   1.420  14.012  0.5141  1.4981  1.2015
14450TIP3   OH264840   2.743   4.431  12.821  0.4747 -0.4960 -0.3636
14450TIP3    H164841   2.784   4.352  12.856 -0.2478 -1.4335 -1.5991
14450TIP3    H264842   2.651   4.407  12.809  0.2429  0.5464 -0.7209
14451TIP3   OH264843   0.475   6.669   2.998 -0.3504  0.2508 -0.1051
14451TIP3    H164844   0.462   6.750   2.950  0.2562  1.0482  1.0633
14451TIP3    H264845   0.543   6.623   2.949 -1.1577  0.1370 -1.1371
14452TIP3   OH264846   6.303   1.034  11.254  0.3056 -0.0082  0.1605
14452TIP3    H164847   6.276   0.977  11.326 -0.4256  0.4097  0.2262
14452TIP3    H264848   6.239   1.016  11.185  0.1381  0.6654  0.1460
14453TIP3   OH264849   0.075   4.255   2.428 -0.4253 -0.1946  0.5445
14453TIP3    H164850   0.119   4.338   2.446 -0.5803  0.0613 -0.2604
14453TIP3    H264851   0.013   4.246   2.500 -0.0796  0.1554  0.8942
14454TIP3   OH264852   2.852   6.512  14.763  0.6305 -0.1252  0.5016
14454TIP3    H164853   2.811   6.484  14.845  0.6085  1.0516  0.8898
14454TIP3    H264854   2.916   6.578  14.788  3.0306 -2.1487 -0.0638
14455TIP3   OH264855   1.901   4.085  12.942  0.3022 -0.1649  0.2561
14455TIP3    H164856   1.960   4.147  12.898 -0.4874  0.5274  0.1466
14455TIP3    H264857   1.954   4.007  12.956  1.7519  1.0655  1.7352
14456TIP3   OH264858   2.607   3.768   2.147 -0.1593  0.0254  0.6878
14456TIP3    H164859   2.648   3.706   2.208  2.0905  0.6524 -0.1384
14456TIP3    H264860   2.668   3.842   2.143 -1.3623  0.9855 -0.6399
14457TIP3   OH264861   3.745   4.747   1.566  0.1480  0.1493 -0.0069
14457TIP3    H164862   3.778   4.733   1.654  2.1024 -0.9333 -0.8815
14457TIP3    H264863   3.713   4.661   1.538  0.1277  0.3468 -0.5994
14458TIP3   OH264864   1.721   5.377  16.715 -0.0545 -0.4833 -0.0561
14458TIP3    H164865   1.688   5.300  16.762  0.8843 -0.7644  0.1532
14458TIP3    H264866   1.656   5.393  16.647 -1.2194 -0.3284  1.0697
14459TIP3   OH264867   3.831   2.592  16.065  0.8162 -0.1655  0.3014
14459TIP3    H164868   3.785   2.675  16.059 -1.7278 -1.5458 -0.1014
14459TIP3    H264869   3.805   2.557  16.151 -1.1960 -2.2366 -1.1010
14460TIP3   OH264870   3.363   1.166  16.424  0.8163  0.3103  0.0309
14460TIP3    H164871   3.369   1.090  16.481  1.0437 -2.5586 -3.6600
14460TIP3    H264872   3.425   1.229  16.461  1.2184 -1.6085  2.7013
14461TIP3   OH264873   4.020   3.620   4.462 -0.1562  0.2036  0.3153
14461TIP3    H164874   4.075   3.678   4.514  1.1458 -0.1965 -0.6090
14461TIP3    H264875   3.943   3.673   4.440  0.4343  1.1613  0.5453
14462TIP3   OH264876   2.952   2.224   4.597 -0.6383 -0.8025 -0.0937
14462TIP3    H164877   2.948   2.133   4.569  1.3708 -0.3972 -1.8484
14462TIP3    H264878   2.898   2.271   4.534 -1.2253 -0.7140  0.4778
14463TIP3   OH264879   2.398   5.021   5.753 -0.0335 -0.0516  0.6341
14463TIP3    H164880   2.398   4.940   5.804  0.6611  0.3131  1.2088
14463TIP3    H264881   2.481   5.020   5.707  2.5451  3.0292  4.9318
14464TIP3   OH264882   1.850   1.834   4.464 -0.3526 -0.2764 -0.3560
14464TIP3    H164883   1.758   1.862   4.459 -0.0751  1.0160  1.1069
14464TIP3    H264884   1.849   1.755   4.518 -0.4515  0.6805  1.0811
14465TIP3   OH264885   2.909   0.694  16.698  0.2996  0.0731 -0.6901
14465TIP3    H164886   2.919   0.761  16.765  2.4532 -2.5656  1.7246
14465TIP3    H264887   2.870   0.619  16.745 -1.9025 -0.4640 -3.2683
14466TIP3   OH264888   5.999   3.124   6.585 -0.5584  0.3018 -0.0003
14466TIP3    H164889   6.037   3.056   6.530  0.0550  0.4760  0.1990
14466TIP3    H264890   6.027   3.206   6.544 -0.0124  0.4318  0.6234
14467TIP3   OH264891   2.943   5.124   5.202  0.7762  0.0883 -0.9300
14467TIP3    H164892   2.928   5.218   5.197  1.5701  0.1113 -3.1091
14467TIP3    H264893   2.869   5.091   5.253 -0.3256  1.6842 -1.4756
14468TIP3   OH264894   2.568   6.426   4.947  0.0567  0.3424  0.2848
14468TIP3    H164895   2.640   6.485   4.968 -1.0123  0.8508  2.6659
14468TIP3    H264896   2.503   6.481   4.905  0.1283  0.3363  0.1669
14469TIP3   OH264897   3.169   5.548   4.099  0.3606 -0.3438 -0.0719
14469TIP3    H164898   3.193   5.556   4.007  1.5296 -0.7386  0.1905
14469TIP3    H264899   3.076   5.526   4.098  0.3124 -0.1006 -1.1508
14470TIP3   OH264900   2.659   5.536  14.356 -0.3770 -0.1285  0.4117
14470TIP3    H164901   2.633   5.560  14.444  0.4960 -0.4006  0.7459
14470TIP3    H264902   2.648   5.616  14.305  0.7621  0.4806  1.1263
14471TIP3   OH264903   6.673   4.540   3.948 -0.2557 -0.5417 -0.0575
14471TIP3    H164904   6.613   4.482   3.901  0.0070 -0.5706 -0.3674
14471TIP3    H264905   6.624   4.570   4.024 -0.4160 -1.1336  0.0807
14472TIP3   OH264906   0.650   3.728   3.895  0.0092  0.6130 -0.7389
14472TIP3    H164907   0.587   3.772   3.838 -0.9469 -0.7804 -0.7884
14472TIP3    H264908   0.603   3.716   3.977  0.7289  0.8856 -0.2826
14473TIP3   OH264909   4.502   2.963  15.092 -0.0961  1.3380 -0.4669
14473TIP3    H164910   4.433   3.029  15.085  0.6233  2.2488  0.8452
14473TIP3    H264911   4.573   3.008  15.139  0.3930 -0.3696  0.4435
14474TIP3   OH264912   4.314   1.473   0.460 -0.2792  0.1623 -0.3508
14474TIP3    H164913   4.355   1.443   0.379 -0.3139  0.8577 -0.6237
14474TIP3    H264914   4.309   1.568   0.451 -2.6233  0.0265 -0.6354
14475TIP3   OH264915   0.181   0.390  15.635 -0.0887  0.1126  0.0551
14475TIP3    H164916   0.191   0.343  15.718 -3.3480  0.2939  0.6229
14475TIP3    H264917   0.099   0.438  15.645 -0.1570  0.7251 -3.0094
14476TIP3   OH264918   1.408   5.707  16.645 -0.8042 -0.0212  0.1843
14476TIP3    H164919   1.379   5.796  16.666 -2.1568  0.0991 -1.9466
14476TIP3    H264920   1.344   5.650  16.689 -2.2843  0.1790 -1.6184
14477TIP3   OH264921   4.071   0.740   1.855 -0.2528 -0.3578  0.5014
14477TIP3    H164922   3.993   0.765   1.805 -1.2952 -2.6018  0.9415
14477TIP3    H264923   4.131   0.815   1.846 -2.0030  0.9206 -0.7715
14478TIP3   OH264924   2.719   2.802   2.507 -0.1217  0.1285  0.1454
14478TIP3    H164925   2.727   2.897   2.511  1.5425  0.2356 -3.4536
14478TIP3    H264926   2.639   2.786   2.457  1.0986 -0.2585 -1.7458
14479TIP3   OH264927   6.783   1.531   3.212 -0.0680  0.7310  0.4564
14479TIP3    H164928   6.709   1.476   3.186  1.1828 -0.3563 -0.8493
14479TIP3    H264929   6.760   1.618   3.179 -0.2916  0.1773 -0.8989
14480TIP3   OH264930   1.342   4.616  11.359 -0.2894 -0.1230  0.1705
14480TIP3    H164931   1.419   4.560  11.369 -0.9647 -1.1908 -0.5705
14480TIP3    H264932   1.375   4.705  11.375  0.6131 -0.8008  2.2274
14481TIP3   OH264933   3.343   1.467  14.873 -0.6395  0.7778  0.2030
14481TIP3    H164934   3.282   1.527  14.831  0.3107  1.6070  0.0111
14481TIP3    H264935   3.412   1.523  14.909 -0.3857 -0.0847  1.1023
14482TIP3   OH264936   2.180   1.625  14.705 -0.0838 -0.4661 -0.7159
14482TIP3    H164937   2.268   1.633  14.670  1.8578  1.1623  4.0547
14482TIP3    H264938   2.127   1.686  14.654  2.2788  0.9043 -1.6010
14483TIP3   OH264939   2.951   4.426  11.641 -0.0566 -0.1534  0.0658
14483TIP3    H164940   2.899   4.426  11.721  0.4940 -2.1284  0.4582
14483TIP3    H264941   2.896   4.379  11.578  0.3050 -0.2676 -0.1635
14484TIP3   OH264942   6.190   5.588  13.688  0.4997  0.1001 -0.6305
14484TIP3    H164943   6.117   5.640  13.653 -0.5070  0.5072  1.9486
14484TIP3    H264944   6.266   5.645  13.678  0.0092  0.7223 -0.9227
14485TIP3   OH264945   2.326   2.687  13.908 -0.5227  0.1002 -0.4494
14485TIP3    H164946   2.314   2.596  13.933 -2.2051  0.4986  0.2353
14485TIP3    H264947   2.300   2.690  13.816 -1.3590  0.0669 -0.2162
14486TIP3   OH264948   4.547   0.006  14.782 -0.0119  0.5065  0.5562
14486TIP3    H164949   4.614   0.074  14.777  0.6516 -0.1788 -0.0547
14486TIP3    H264950   4.596  -0.074  14.801 -0.5591 -0.1634 -0.8416
14487TIP3   OH264951   2.761   0.404  16.518  0.4320  0.0699  0.4407
14487TIP3    H164952   2.673   0.403  16.479  1.0659 -0.6340 -1.0165
14487TIP3    H264953   2.813   0.459  16.459  0.9634  0.5005  1.3086
14488TIP3   OH264954   5.633   4.639   1.883  0.5136  0.3295 -0.5195
14488TIP3    H164955   5.686   4.717   1.898 -1.0647  1.0342  1.5554
14488TIP3    H264956   5.675   4.571   1.937  1.1947  0.0170 -1.4194
14489TIP3   OH264957   3.272   0.589  16.020  0.0390  0.1712  0.2798
14489TIP3    H164958   3.329   0.511  16.015  0.6094  0.6085 -0.1195
14489TIP3    H264959   3.228   0.581  16.105 -1.7564 -1.8618 -0.7898
14490TIP3   OH264960   5.009   2.167   1.105 -0.2512  0.5709  0.8303
14490TIP3    H164961   5.043   2.197   1.190 -1.0784  1.2370  0.9309
14490TIP3    H264962   5.086   2.133   1.059  0.4583  1.5532  1.2754
14491TIP3   OH264963   5.762   3.898   4.239 -0.8495  0.1795 -0.2356
14491TIP3    H164964   5.767   3.986   4.202 -0.8235  0.8970  1.4616
14491TIP3    H264965   5.845   3.857   4.214 -0.2131  1.1490  0.2443
14492TIP3   OH264966   1.790   6.673  13.057 -0.1309  0.2969  0.3937
14492TIP3    H164967   1.861   6.736  13.069 -0.9241  0.9442  1.7366
14492TIP3    H264968   1.835   6.590  13.041  0.9302  0.8168  0.6015
14493TIP3   OH264969   5.794   0.226   2.119 -0.0677  0.2491  0.1613
14493TIP3    H164970   5.776   0.264   2.033 -0.6237  0.6935  0.4718
14493TIP3    H264971   5.829   0.298   2.171 -2.0092  0.6073  1.0366
14494TIP3   OH264972   3.212   5.416  17.183 -0.7088  0.1677  0.6577
14494TIP3    H164973   3.151   5.393  17.254 -1.9003 -3.1472 -1.3543
14494TIP3    H264974   3.295   5.374  17.209 -1.1083 -0.9313  0.1984
14495TIP3   OH264975   0.479   1.050  15.108 -0.1056  0.6283 -0.2613
14495TIP3    H164976   0.488   1.127  15.164 -1.0670  1.0433 -0.6649
14495TIP3    H264977   0.502   1.081  15.020 -0.7211  0.5169 -0.4637
14496TIP3   OH264978   1.098   0.585   3.901 -0.3714 -0.5091  0.0868
14496TIP3    H164979   1.072   0.587   3.993 -0.1298 -1.8409  0.1921
14496TIP3    H264980   1.167   0.518   3.896  2.9091  2.7340 -0.2441
14497TIP3   OH264981   0.790   6.396  11.699 -0.2304  0.2078 -0.6699
14497TIP3    H164982   0.746   6.315  11.727 -1.8455  0.7123 -1.6457
14497TIP3    H264983   0.780   6.455  11.774 -1.3269  0.3469 -0.9125
14498TIP3   OH264984   2.812   2.428   1.723  1.1558 -0.1469 -0.4996
14498TIP3    H164985   2.816   2.516   1.760 -0.9315  0.3235 -1.3079
14498TIP3    H264986   2.730   2.391   1.757  2.3471 -2.0556  0.3921
14499TIP3   OH264987   6.423   2.635  13.493 -0.0571  0.3994 -0.2470
14499TIP3    H164988   6.492   2.644  13.559 -0.1424  1.6069 -0.3058
14499TIP3    H264989   6.384   2.549  13.510  0.7501  0.1684  0.4705
14500TIP3   OH264990   3.048   3.354   3.168 -0.5463 -0.0915 -0.1379
14500TIP3    H164991   3.048   3.440   3.212 -0.2014  0.6961 -1.6396
14500TIP3    H264992   2.957   3.326   3.170 -0.1750 -1.3532  3.4715
14501TIP3   OH264993   5.285   1.822  13.136 -0.0120  0.3893 -0.3163
14501TIP3    H164994   5.270   1.745  13.081 -3.1961  0.3659  0.4685
14501TIP3    H264995   5.320   1.888  13.076 -0.9507 -0.4476 -1.8243
14502TIP3   OH264996   1.486   4.467  16.107 -0.6697 -0.6498  0.1772
14502TIP3    H164997   1.575   4.502  16.109 -0.6654 -0.6691  3.5195
14502TIP3    H264998   1.435   4.532  16.156 -2.1943 -1.4192 -0.3809
14503TIP3   OH264999   1.179   5.581   3.873 -0.9998  0.2280 -0.2778
14503TIP3    H165000   1.099   5.620   3.909 -0.8035  0.2584  0.1233
14503TIP3    H265001   1.206   5.641   3.803 -1.0250  0.4967 -0.0552
14504TIP3   OH265002   4.304   6.738   4.807 -0.6254  0.2416  0.2494
14504TIP3    H165003   4.370   6.669   4.810 -1.4429 -0.5225  0.8924
14504TIP3    H265004   4.232   6.701   4.754 -0.5700  1.0426 -0.3982
14505TIP3   OH265005   2.579   5.302   0.605 -0.1629  0.6588  0.3096
14505TIP3    H165006   2.665   5.275   0.636  0.6022 -0.1653 -2.4008
14505TIP3    H265007   2.542   5.352   0.677  1.6968 -0.8254  2.3544
14506TIP3   OH265008   0.713   6.034  12.888  0.0123  0.0500  0.3696
14506TIP3    H165009   0.630   6.082  12.890 -1.2219 -1.9923 -0.7310
14506TIP3    H265010   0.706   5.971  12.960 -0.2906 -1.5497 -1.0397
14507TIP3   OH265011   0.160   5.504   0.884  0.2445 -0.5369  0.2047
14507TIP3    H165012   0.193   5.421   0.919  0.3842 -0.7016 -0.3223
14507TIP3    H265013   0.119   5.547   0.959  0.3966 -0.9700  0.5353
14508TIP3   OH265014   2.494   6.258   6.536 -0.6214 -0.3649  0.3768
14508TIP3    H165015   2.461   6.318   6.469 -0.6730 -0.0206  0.7106
14508TIP3    H265016   2.563   6.307   6.581  2.3151 -2.0043 -2.1024
14509TIP3   OH265017   4.244   1.943   5.578  0.0666  0.2482 -0.1483
14509TIP3    H165018   4.215   1.944   5.487 -0.9847 -2.6607  0.0946
14509TIP3    H265019   4.338   1.927   5.573  0.1115  0.6800 -0.7359
14510TIP3   OH265020   0.876   0.014  15.775  0.0708  0.3594  0.6510
14510TIP3    H165021   0.899  -0.068  15.819 -2.5484 -1.5798 -1.4750
14510TIP3    H265022   0.864  -0.010  15.684 -2.0926  2.8491  0.2389
14511TIP3   OH265023   0.090   6.175  11.126 -0.1357 -0.4649  0.5342
14511TIP3    H165024   0.135   6.227  11.060 -1.4207  0.0309  0.0428
14511TIP3    H265025   0.149   6.101  11.142 -0.3050 -1.2010 -1.9904
14512TIP3   OH265026   0.496   1.566   6.138 -0.4069  0.2065  0.2326
14512TIP3    H165027   0.541   1.569   6.054  1.1761 -0.5479  1.0144
14512TIP3    H265028   0.454   1.481   6.140 -0.5219  0.2618  0.1648
14513TIP3   OH265029   5.519   5.922  16.509 -0.8226 -0.2534  0.2992
14513TIP3    H165030   5.583   5.889  16.571 -0.8437 -2.7809 -0.9609
14513TIP3    H265031   5.521   6.017  16.520  1.2095 -0.4825  2.1253
14514TIP3   OH265032   5.155   2.752  13.277  0.3746  0.4067  0.2353
14514TIP3    H165033   5.154   2.832  13.224  0.7564 -0.1675 -0.6313
14514TIP3    H265034   5.225   2.699  13.239  0.0625 -0.3805  0.7663
14515TIP3   OH265035   0.225   1.768  14.497  0.2169  0.3121 -0.4152
14515TIP3    H165036   0.225   1.718  14.579 -0.6129  0.1858 -0.4875
14515TIP3    H265037   0.290   1.837  14.512  1.2043 -0.6513 -0.2396
14516TIP3   OH265038   1.603   2.570   3.148  0.1792 -0.0957 -0.1894
14516TIP3    H165039   1.524   2.606   3.189 -0.4082 -1.3076 -0.2363
14516TIP3    H265040   1.577   2.483   3.119  1.3946 -0.3031 -0.6749
14517TIP3   OH265041   5.395   1.329  14.092  0.1962 -0.1884  0.2677
14517TIP3    H165042   5.355   1.407  14.130 -0.8752  0.8074 -2.7759
14517TIP3    H265043   5.475   1.316  14.143 -0.1393  2.2699  1.4949
14518TIP3   OH265044   5.938   4.915  16.080 -0.0009  0.4343 -0.1999
14518TIP3    H165045   5.914   4.873  16.163 -1.4044 -0.9700 -1.2774
14518TIP3    H265046   6.031   4.894  16.069  0.0894  0.2816  0.8132
14519TIP3   OH265047   6.434   2.595   2.298 -0.6503  0.0326  0.8689
14519TIP3    H165048   6.363   2.554   2.249 -0.2942 -0.0275  0.3949
14519TIP3    H265049   6.446   2.538   2.374 -0.4081 -0.5488  0.4046
14520TIP3   OH265050   4.399   6.794   5.948 -0.2748  0.4076  0.3731
14520TIP3    H165051   4.391   6.831   6.035 -0.3966  1.3253 -0.0213
14520TIP3    H265052   4.487   6.755   5.945 -0.1940  0.5627  0.8281
14521TIP3   OH265053   2.969   4.481  13.608  0.0818  0.0741 -0.0847
14521TIP3    H165054   2.967   4.400  13.558  1.4947 -1.8466  2.8489
14521TIP3    H265055   2.879   4.514  13.605 -0.4957 -1.5686 -1.2918
14522TIP3   OH265056   2.481   6.066  16.399  0.5649 -0.1801 -0.1875
14522TIP3    H165057   2.526   6.151  16.397  1.5233 -0.7001 -1.7325
14522TIP3    H265058   2.404   6.079  16.344  0.8129 -0.3539 -0.5787
14523TIP3   OH265059   2.966   4.330  12.414 -0.6866 -0.2402  0.5637
14523TIP3    H165060   3.043   4.315  12.359 -0.5220 -0.6841  0.9135
14523TIP3    H265061   2.909   4.386  12.361 -1.2330 -1.9644 -0.6923
14524TIP3   OH265062   2.895   1.931  12.497 -0.0189 -0.0920  0.4419
14524TIP3    H165063   2.959   1.872  12.536 -0.0466 -0.7528 -0.4835
14524TIP3    H265064   2.880   1.997  12.563  1.8347  0.2276  0.5772
14525TIP3   OH265065   1.267   1.071   1.433  0.6416 -0.4372 -0.1256
14525TIP3    H165066   1.330   1.132   1.471 -0.7403  1.2860 -0.5615
14525TIP3    H265067   1.318   0.991   1.417  2.6120  0.7837 -0.1235
14526TIP3   OH265068   5.196   5.544   0.393 -0.6483 -0.1326  0.1015
14526TIP3    H165069   5.160   5.462   0.424 -1.8516  0.1990 -0.4117
14526TIP3    H265070   5.147   5.612   0.440 -0.2869  0.3062 -0.1484
14527TIP3   OH265071   3.774   0.475   4.853 -0.2976  0.0606  0.5893
14527TIP3    H165072   3.691   0.453   4.810 -0.3886  0.4466  0.5716
14527TIP3    H265073   3.797   0.396   4.903 -0.8501  0.0820  0.8750
14528TIP3   OH265074   4.951   4.095   1.419 -0.0286 -0.1157 -0.3901
14528TIP3    H165075   4.919   4.006   1.401 -2.7213  0.6221  0.4761
14528TIP3    H265076   4.995   4.121   1.338 -0.2181 -1.8129 -1.0681
14529TIP3   OH265077   3.143   2.622  11.597 -0.4610  0.1046 -0.4599
14529TIP3    H165078   3.103   2.656  11.677  0.4308 -1.7317  0.7825
14529TIP3    H265079   3.196   2.695  11.564  0.3895  0.3839  1.4635
14530TIP3   OH265080   5.868   5.718  12.790 -0.4330 -0.4563  0.1749
14530TIP3    H165081   5.925   5.645  12.818 -0.0068  0.0973  0.7716
14530TIP3    H265082   5.826   5.747  12.871  0.7217  1.0983  0.2347
14531TIP3   OH265083   1.471   6.234  16.253 -0.4026  0.1942 -0.5573
14531TIP3    H165084   1.461   6.238  16.348 -1.7471  0.3920 -0.6882
14531TIP3    H265085   1.541   6.170  16.238 -1.4846 -1.2647  0.5108
14532TIP3   OH265086   2.460   5.614   6.250  0.3872  0.5133 -0.3580
14532TIP3    H165087   2.550   5.619   6.220  0.3891 -0.2234 -0.4796
14532TIP3    H265088   2.454   5.680   6.319  1.5225 -0.6772  0.9062
14533TIP3   OH265089   5.638   2.501  15.110  0.5844  0.5689 -0.4702
14533TIP3    H165090   5.677   2.539  15.189 -1.7854  2.6717 -0.2477
14533TIP3    H265091   5.570   2.443  15.143  2.9952 -2.6578 -0.8740
14534TIP3   OH265092   5.387   5.126  11.539  0.2540  0.0220  0.1746
14534TIP3    H165093   5.470   5.144  11.584 -0.2184 -0.6789  1.3554
14534TIP3    H265094   5.377   5.199  11.478  2.5508 -0.7410 -1.1611
14535TIP3   OH265095   3.875   4.977  14.172 -0.2262  0.2827  0.0645
14535TIP3    H165096   3.835   4.896  14.138  0.9680 -0.7769  1.1238
14535TIP3    H265097   3.872   4.966  14.267 -0.2303  1.5878  0.2173
14536TIP3   OH265098   2.620   3.092   3.333 -0.8299 -0.1615 -0.5843
14536TIP3    H165099   2.528   3.092   3.305 -0.8887 -0.6728 -0.3784
14536TIP3    H265100   2.633   3.180   3.370 -0.6373  0.6866 -2.5959
14537TIP3   OH265101   2.241   6.219  14.556  0.0065 -0.3759  0.6634
14537TIP3    H165102   2.312   6.239  14.494  0.4706  1.3687  1.7054
14537TIP3    H265103   2.254   6.127  14.578  1.9705 -0.0891  0.8344
14538TIP3   OH265104   0.086   5.390   4.934 -0.7709  0.2841 -0.4308
14538TIP3    H165105   0.006   5.440   4.956 -0.0706  1.4382 -0.4557
14538TIP3    H265106   0.149   5.415   5.002 -0.1484  0.0790 -0.9289
14539TIP3   OH265107   4.642   2.240   5.363  0.1827  0.1732  0.7639
14539TIP3    H165108   4.614   2.273   5.277 -0.2862  0.8917  1.1912
14539TIP3    H265109   4.690   2.159   5.343  0.4389  0.5602 -0.2043
14540TIP3   OH265110   2.772   3.765  16.604  0.3371 -0.1994 -0.6611
14540TIP3    H165111   2.719   3.687  16.591  0.3246 -0.0228 -1.6900
14540TIP3    H265112   2.847   3.754  16.545 -1.0132  1.7850 -2.8072
14541TIP3   OH265113   5.327   0.810   1.718 -0.2190 -0.9047  0.6029
14541TIP3    H165114   5.407   0.820   1.770 -0.3761  1.2368  0.4510
14541TIP3    H265115   5.275   0.887   1.738 -0.4329 -0.1894 -2.4951
14542TIP3   OH265116   4.368   5.298  12.196 -0.2152  0.1590 -0.2686
14542TIP3    H165117   4.349   5.390  12.174  2.2668  0.8600  0.3933
14542TIP3    H265118   4.359   5.294  12.291 -0.7814 -0.4016 -0.3471
14543TIP3   OH265119   0.515   1.666  13.594  0.2444 -0.1090 -0.1597
14543TIP3    H165120   0.471   1.649  13.510 -0.3217 -0.2736  0.1705
14543TIP3    H265121   0.445   1.666  13.659  0.6056  0.5856  0.2447
14544TIP3   OH265122   1.442   4.643   5.669 -0.8192  0.4637 -0.2050
14544TIP3    H165123   1.444   4.698   5.747  1.3016 -0.3283  0.3448
14544TIP3    H265124   1.470   4.557   5.700 -0.4534  0.0098 -1.7422
14545TIP3   OH265125   0.002   3.891  13.050 -0.2500 -0.0047  0.1614
14545TIP3    H165126  -0.068   3.877  13.114  0.9071  0.7581  1.6190
14545TIP3    H265127   0.015   3.806  13.010 -0.8922 -0.5299  1.0382
14546TIP3   OH265128   5.071   5.288   5.504  0.9435  0.2873 -0.1614
14546TIP3    H165129   5.004   5.316   5.441  1.0218  0.0987 -0.3297
14546TIP3    H265130   5.098   5.368   5.548  0.1584  0.2766  0.3432
14547TIP3   OH265131   6.104   2.863   2.775  0.1660  0.0820  0.1741
14547TIP3    H165132   6.124   2.805   2.848  0.5051 -1.2665 -0.9645
14547TIP3    H265133   6.044   2.812   2.720  0.9476  0.5697 -1.1555
14548TIP3   OH265134   1.390   0.794   4.179 -0.7497 -0.7313  0.6017
14548TIP3    H165135   1.305   0.828   4.207 -1.1912 -1.3563  0.0269
14548TIP3    H265136   1.454   0.849   4.224 -1.4429 -1.4693  2.5688
14549TIP3   OH265137   6.183   1.873   2.567  0.0905  0.0547  0.5466
14549TIP3    H165138   6.207   1.786   2.601 -0.5865 -0.1543  0.4955
14549TIP3    H265139   6.246   1.889   2.497 -0.4714 -0.8938 -0.1907
14550TIP3   OH265140   1.657   0.051   3.466  0.1300  0.3828  0.4607
14550TIP3    H165141   1.604   0.087   3.537 -0.5620 -1.5154  0.9261
14550TIP3    H265142   1.658  -0.043   3.482  0.9669  0.0609 -1.3756
14551TIP3   OH265143   5.178   5.197   1.853 -0.0360  0.3766  0.0243
14551TIP3    H165144   5.237   5.179   1.780  0.6134 -0.9592  0.8576
14551TIP3    H265145   5.091   5.194   1.815  0.2266 -1.5686 -0.4670
14552TIP3   OH265146   3.032   0.851   1.267  0.5116  0.1249  0.5343
14552TIP3    H165147   2.989   0.936   1.256  0.2725 -0.0284  0.2738
14552TIP3    H265148   2.975   0.802   1.326  1.3479  0.6306  1.7842
14553TIP3   OH265149   3.290   0.721   0.435  0.1829  0.1498  0.1527
14553TIP3    H165150   3.223   0.704   0.369 -0.7912  0.6182  1.0042
14553TIP3    H265151   3.241   0.753   0.511  1.2313 -0.9954  1.3282
14554TIP3   OH265152   2.935   6.035  15.761  0.0076 -0.5557  0.6914
14554TIP3    H165153   2.928   6.126  15.734  3.9743  0.0394  1.4455
14554TIP3    H265154   2.885   6.030  15.843  0.1501  1.0102  0.8885
14555TIP3   OH265155   5.703   1.658  16.723 -0.2753 -0.0881 -0.2473
14555TIP3    H165156   5.757   1.651  16.645  1.0127 -1.2458  0.7302
14555TIP3    H265157   5.657   1.574  16.728  0.2665 -0.3344  0.6769
14556TIP3   OH265158   2.350   3.669   2.187 -0.2940 -0.1543 -0.1429
14556TIP3    H165159   2.351   3.578   2.157 -1.3404 -0.5148  0.8815
14556TIP3    H265160   2.436   3.703   2.162 -0.0384 -1.2970 -0.8928
14557TIP3   OH265161   1.404   1.142   0.074  0.2960 -0.4261 -0.0402
14557TIP3    H165162   1.367   1.074   0.016 -0.7120  0.6791 -0.7107
14557TIP3    H265163   1.493   1.154   0.043  0.3105 -1.0773 -0.2565
14558TIP3   OH265164   3.979   2.995   4.568 -0.2504  0.0981  0.1556
14558TIP3    H165165   4.072   2.999   4.592 -0.2801 -0.2349  0.3435
14558TIP3    H265166   3.979   2.966   4.477 -0.1331  1.4419 -0.2742
14559TIP3   OH265167   2.847   0.539   3.955  0.0935 -0.2857 -0.2054
14559TIP3    H165168   2.773   0.521   3.898 -0.4958  1.6325 -0.0934
14559TIP3    H265169   2.819   0.511   4.041 -0.4034  0.1847 -0.2133
14560TIP3   OH265170   4.282   0.664   0.492  0.1249  0.3692 -0.3005
14560TIP3    H165171   4.333   0.697   0.418  0.5976  0.4589  0.0573
14560TIP3    H265172   4.313   0.715   0.567  0.2542 -0.2926  0.1032
14561TIP3   OH265173   0.075   6.204   0.459  0.3251 -0.7181  0.2051
14561TIP3    H165174   0.126   6.124   0.465 -0.5215 -1.3055 -0.2232
14561TIP3    H265175   0.108   6.248   0.381  0.0823 -1.1686 -0.1563
14562TIP3   OH265176   0.164   3.724   2.183 -0.0665 -0.2976  0.0293
14562TIP3    H165177   0.135   3.766   2.102 -1.9877 -0.5553  0.5551
14562TIP3    H265178   0.232   3.782   2.217 -0.1260  0.4658 -1.1179
14563TIP3   OH265179   6.581   1.416   3.842 -0.0788 -0.0587  0.4435
14563TIP3    H165180   6.624   1.494   3.807  2.3881 -1.1170  0.9939
14563TIP3    H265181   6.541   1.445   3.924  0.7039  0.6690  0.5753
14564TIP3   OH265182   2.122   1.237  12.868 -0.0672 -0.1273  0.1254
14564TIP3    H165183   2.202   1.288  12.883  0.0925 -0.0875 -0.8135
14564TIP3    H265184   2.066   1.295  12.817  0.2947 -1.0436 -1.3459
14565TIP3   OH265185   0.884   2.152   2.490 -0.2742  0.1369 -0.7388
14565TIP3    H165186   0.918   2.221   2.548  2.6331  0.2304 -2.4705
14565TIP3    H265187   0.867   2.078   2.549 -0.6395  1.3348  0.7126
14566TIP3   OH265188   3.317   4.380   3.684  0.2227 -0.3159 -0.3896
14566TIP3    H165189   3.386   4.390   3.750  1.8356  1.3698 -2.2622
14566TIP3    H265190   3.253   4.447   3.706  1.4328  1.1838 -1.2806
14567TIP3   OH265191   0.750   2.828   1.342  0.1447  0.1450 -0.3000
14567TIP3    H165192   0.793   2.864   1.419  1.6310 -0.4258 -0.8363
14567TIP3    H265193   0.768   2.892   1.273  0.4362 -0.2540 -0.6010
14568TIP3   OH265194   5.195   5.165  14.598 -1.1710 -0.4711  0.2443
14568TIP3    H165195   5.101   5.169  14.611 -1.2108  0.0291 -0.1535
14568TIP3    H265196   5.206   5.123  14.512 -1.0503 -0.1387  0.0929
14569TIP3   OH265197   1.589   1.112   2.774  0.3879  0.6503  0.2677
14569TIP3    H165198   1.552   1.200   2.783  0.0990  0.6091 -0.4604
14569TIP3    H265199   1.557   1.081   2.689  1.1685  0.1672  0.1419
14570TIP3   OH265200   6.263   1.940  14.861 -0.2590 -0.3566 -0.4295
14570TIP3    H165201   6.327   1.870  14.850 -0.8028 -0.6798 -1.6073
14570TIP3    H265202   6.242   1.968  14.772  2.0161  3.2100  0.0368
14571TIP3   OH265203   1.633   6.299   1.442  0.0491 -0.2781  0.2782
14571TIP3    H165204   1.560   6.244   1.469 -1.4868 -0.2336 -3.4066
14571TIP3    H265205   1.598   6.388   1.443  0.2699 -0.1716 -0.7388
14572TIP3   OH265206   2.636   4.768   5.675  0.3884  0.1275  0.2580
14572TIP3    H165207   2.695   4.780   5.600 -0.9623  4.2707 -0.3116
14572TIP3    H265208   2.684   4.803   5.750  0.4688 -0.8981  0.6849
14573TIP3   OH265209   2.816   6.225   4.430  0.3098  0.0638  0.0864
14573TIP3    H165210   2.790   6.317   4.418  0.6205  0.2084  0.5181
14573TIP3    H265211   2.853   6.222   4.518 -0.8357 -0.7332  0.5606
14574TIP3   OH265212   3.109   5.741  12.378 -0.6179  0.3048  0.0919
14574TIP3    H165213   3.087   5.665  12.432  0.5959 -0.6422 -0.6955
14574TIP3    H265214   3.177   5.708  12.318  0.8665  2.3498  0.6222
14575TIP3   OH265215   1.376   1.924   2.642 -0.4223  0.2311  0.3086
14575TIP3    H165216   1.392   1.830   2.654  3.0026  0.4158 -2.0254
14575TIP3    H265217   1.320   1.930   2.565 -1.4093  0.0673  1.0132
14576TIP3   OH265218   2.523   6.428  14.110 -0.5336  0.3622  0.7018
14576TIP3    H165219   2.554   6.342  14.083  1.1684  1.7468 -2.0053
14576TIP3    H265220   2.438   6.438  14.067  0.6633  1.1996 -1.6150
14577TIP3   OH265221   6.272   6.116  15.519 -0.2127  0.5094 -0.0788
14577TIP3    H165222   6.366   6.115  15.536 -0.2783  0.6261  0.2984
14577TIP3    H265223   6.237   6.175  15.585 -0.7685 -0.8734  0.8873
14578TIP3   OH265224   4.289   1.867  14.788 -0.1816 -0.3858  0.2115
14578TIP3    H165225   4.267   1.779  14.819 -1.1208 -1.2367 -2.7194
14578TIP3    H265226   4.347   1.852  14.713 -0.5650  1.4939 -0.4793
14579TIP3   OH265227   3.206   5.148   4.337 -1.3758 -0.0987 -0.2207
14579TIP3    H165228   3.170   5.209   4.402  0.1996  1.4423 -0.7550
14579TIP3    H265229   3.298   5.140   4.360 -1.0673 -0.4865 -1.5359
14580TIP3   OH265230   4.250   3.982   2.429 -0.5412 -0.6418 -0.4005
14580TIP3    H165231   4.248   3.942   2.516 -0.8359  0.1007 -0.0696
14580TIP3    H265232   4.246   3.907   2.369 -1.6518 -1.0915  0.2212
14581TIP3   OH265233   2.113   1.628  14.101  0.3989  0.7315 -0.3455
14581TIP3    H165234   2.059   1.667  14.033 -0.8081 -3.3320 -1.8542
14581TIP3    H265235   2.097   1.534  14.094  0.6131  0.1176  5.2586
14582TIP3   OH265236   1.576   4.770  15.599  0.5588 -0.2352 -0.5085
14582TIP3    H165237   1.594   4.820  15.679 -0.4980 -1.7649  0.7236
14582TIP3    H265238   1.490   4.801  15.571  0.0387 -1.1237  0.0855
14583TIP3   OH265239   6.270   6.363  11.330  0.5496 -0.1170  0.5989
14583TIP3    H165240   6.333   6.431  11.308  1.2901 -0.8039  0.5824
14583TIP3    H265241   6.276   6.300  11.257 -1.9536  1.0444 -0.6882
14584TIP3   OH265242   6.503   5.481   0.206  1.0313  0.5014 -0.0353
14584TIP3    H165243   6.582   5.508   0.254  2.5545 -0.6634 -1.8374
14584TIP3    H265244   6.496   5.387   0.222  0.0387  0.5779  0.0339
14585TIP3   OH265245   6.804   5.323  15.776 -0.1363  0.1624  0.5472
14585TIP3    H165246   6.887   5.350  15.736  0.0108  0.1800  0.8637
14585TIP3    H265247   6.745   5.309  15.702  0.6522 -1.5300  0.2237
14586TIP3   OH265248   2.803   3.137  14.854  0.2105  0.1956 -0.5025
14586TIP3    H165249   2.728   3.138  14.913 -0.1106  0.7458 -0.9234
14586TIP3    H265250   2.863   3.073  14.893  0.0748  0.6865  0.5107
14587TIP3   OH265251   1.140   3.309   5.596 -0.4761 -0.4128  0.4841
14587TIP3    H165252   1.057   3.281   5.636 -0.4476 -1.7597 -0.3836
14587TIP3    H265253   1.145   3.402   5.617 -2.4829 -0.1884  0.0891
14588TIP3   OH265254   5.452   6.041  15.487 -0.2285  0.4195 -0.5149
14588TIP3    H165255   5.372   6.039  15.434 -0.4355 -2.2419 -0.1514
14588TIP3    H265256   5.523   6.026  15.424 -0.4478 -2.3830 -0.1679
14589TIP3   OH265257   3.867   2.017  15.519  0.9277 -0.0024 -0.0163
14589TIP3    H165258   3.891   2.024  15.612  0.5183 -1.7230  0.2284
14589TIP3    H265259   3.846   2.107  15.494  1.0986  0.4987  1.5447
14590TIP3   OH265260   6.700   4.596   2.584  0.2381 -0.5093 -0.1341
14590TIP3    H165261   6.605   4.609   2.582  0.0175 -2.1062 -1.1783
14590TIP3    H265262   6.733   4.665   2.641 -1.3503  1.2963 -1.3307
14591TIP3   OH265263   1.038   4.807   1.945  0.7075 -0.1176  0.0238
14591TIP3    H165264   0.955   4.793   1.989  1.1425 -1.8181  0.3479
14591TIP3    H265265   1.043   4.738   1.879  0.0952  2.3472 -2.7403
14592TIP3   OH265266   5.206   2.706  15.750 -0.4274 -0.1617 -0.6510
14592TIP3    H165267   5.167   2.649  15.816 -4.3141  0.3838 -2.3396
14592TIP3    H265268   5.189   2.661  15.667  2.7645  0.0603 -1.5167
14593TIP3   OH265269   3.332   4.451   0.659  0.5005 -0.2015  0.1645
14593TIP3    H165270   3.275   4.528   0.657  1.7395  0.6984 -0.9035
14593TIP3    H265271   3.273   4.379   0.685 -1.1083  0.7197 -0.8207
14594TIP3   OH265272   5.283   0.087   2.714  0.4591 -0.5582 -0.0817
14594TIP3    H165273   5.206   0.141   2.728 -0.1639 -1.1559 -1.1826
14594TIP3    H265274   5.259   0.027   2.643  1.9854 -0.6292 -0.5640
14595TIP3   OH265275   3.856   5.779  13.447 -0.2428 -1.0571  0.5880
14595TIP3    H165276   3.933   5.830  13.472  1.6162 -3.0172 -0.9837
14595TIP3    H265277   3.850   5.710  13.513 -1.7732  0.1786  1.7630
14596TIP3   OH265278   3.665   2.930   0.456  0.3423  0.2630 -0.0473
14596TIP3    H165279   3.722   2.977   0.395  0.0460 -0.3977 -0.8395
14596TIP3    H265280   3.719   2.859   0.490  0.2835  0.1947 -0.0948
14597TIP3   OH265281   3.402   6.623  13.247 -0.1481 -0.2676  0.0398
14597TIP3    H165282   3.418   6.714  13.273 -1.5215  0.6549 -2.1837
14597TIP3    H265283   3.482   6.577  13.272  1.4975  2.0037 -0.8512
14598TIP3   OH265284   2.476   2.715  14.280  0.7977 -0.7824  0.6049
14598TIP3    H165285   2.483   2.700  14.374 -1.3469 -2.5152  0.5388
14598TIP3    H265286   2.429   2.639  14.247 -1.7508  1.5034 -1.3024
14599TIP3   OH265287   3.596   5.104  13.994 -0.5206 -0.0527  0.0733
14599TIP3    H165288   3.605   5.119  14.088  2.3074 -0.7274 -0.0626
14599TIP3    H265289   3.594   5.008  13.985 -0.0927 -0.0006 -0.6069
14600TIP3   OH265290   0.892   5.149   1.380  0.4198 -0.1383 -0.5256
14600TIP3    H165291   0.812   5.127   1.429  1.5525  1.2436  2.0655
14600TIP3    H265292   0.902   5.243   1.392  1.5067 -0.0151 -2.3076
14601TIP3   OH265293   0.100   3.517  16.561  0.3080 -0.2440  0.2441
14601TIP3    H165294   0.048   3.452  16.608  0.4705 -0.6026 -0.0694
14601TIP3    H265295   0.125   3.474  16.479  0.8881  0.0081  0.2808
14602TIP3   OH265296   4.333   6.663   2.688 -0.2853  0.2031  0.0256
14602TIP3    H165297   4.322   6.692   2.778 -0.3431 -0.1985  0.1484
14602TIP3    H265298   4.420   6.624   2.685  0.3237  1.5567 -0.4603
14603TIP3   OH265299   3.524   0.593  14.030  0.3382  0.2542 -0.9173
14603TIP3    H165300   3.512   0.554  13.944  0.2477 -1.5273 -0.1317
14603TIP3    H265301   3.549   0.519  14.086 -2.4744  0.8493  1.1990
14604TIP3   OH265302   2.700   5.540  15.005 -0.9241  0.5643 -0.0393
14604TIP3    H165303   2.769   5.588  14.959  0.2671 -0.7593  0.3287
14604TIP3    H265304   2.711   5.449  14.976 -1.3734  0.0392  1.3875
14605TIP3   OH265305   0.763   0.144   5.642  0.1439 -0.6697 -0.0105
14605TIP3    H165306   0.819   0.152   5.565 -0.7846  1.5760 -0.4881
14605TIP3    H265307   0.818   0.175   5.714  0.0430  0.0183 -0.2290
14606TIP3   OH265308   4.632   5.028   3.924  0.1459 -0.2018  0.4788
14606TIP3    H165309   4.616   5.039   3.830  1.3417  0.9892  0.4021
14606TIP3    H265310   4.572   5.091   3.966  1.5360  1.2023  0.3831
14607TIP3   OH265311   4.325   0.381   3.209 -0.1332  0.2386 -0.1302
14607TIP3    H165312   4.358   0.470   3.192  0.7506 -0.2648 -1.0720
14607TIP3    H265313   4.247   0.395   3.263  0.2679  1.5664  0.1260
14608TIP3   OH265314   2.935   4.611   6.468  0.3285  0.2642 -0.5389
14608TIP3    H165315   2.990   4.637   6.542 -0.1528 -1.1658  0.3305
14608TIP3    H265316   2.855   4.664   6.477 -0.0595 -0.4858  0.4148
14609TIP3   OH265317   5.082   3.341   0.535 -0.0186 -0.6848 -0.4815
14609TIP3    H165318   5.009   3.400   0.517  1.4955  1.2818 -0.4185
14609TIP3    H265319   5.085   3.334   0.630 -0.0064 -0.5882 -0.4744
14610TIP3   OH265320   4.959   6.156   1.633  0.1432  0.3971 -0.1215
14610TIP3    H165321   4.951   6.219   1.561 -0.9564  0.5924  0.1606
14610TIP3    H265322   5.032   6.189   1.685  1.4277 -0.1410 -1.5351
14611TIP3   OH265323   2.892   0.514   3.672  0.1607  0.2304  0.0288
14611TIP3    H165324   2.981   0.493   3.702 -0.7291 -1.3946  1.6003
14611TIP3    H265325   2.881   0.606   3.695  1.7303  0.7019 -0.9622
14612TIP3   OH265326   0.389   0.645   2.509 -0.1476 -0.7486  0.0231
14612TIP3    H165327   0.322   0.641   2.441 -0.5110  0.7128  0.2756
14612TIP3    H265328   0.470   0.665   2.462 -0.3149 -0.2116 -0.0453
14613TIP3   OH265329   6.354   6.585   5.467 -0.3189  0.1398 -0.1006
14613TIP3    H165330   6.450   6.591   5.471 -0.1840 -0.2160 -1.9662
14613TIP3    H265331   6.324   6.608   5.554  1.4398  1.0455  0.2781
14614TIP3   OH265332   2.483   6.173  11.082 -0.1036  0.5982  0.0616
14614TIP3    H165333   2.437   6.257  11.085 -1.5560 -0.1536 -0.8865
14614TIP3    H265334   2.563   6.192  11.032  0.1526  1.6652  0.8444
14615TIP3   OH265335   3.004   4.244  10.236  0.3705  0.4321  0.4314
14615TIP3    H165336   3.017   4.214  10.325  0.4329 -1.2066 -0.1066
14615TIP3    H265337   3.014   4.165  10.182 -2.2932  0.8621 -0.7849
14616TIP3   OH265338   4.335   0.717  13.352  0.6376 -0.0294 -0.3972
14616TIP3    H165339   4.263   0.657  13.372  1.1253 -1.1561 -1.9170
14616TIP3    H265340   4.413   0.672  13.384  0.7868  0.7684  0.3856
14617TIP3   OH265341   0.195   0.696   4.429 -0.1125  0.1025  0.0278
14617TIP3    H165342   0.200   0.616   4.377  0.3784  0.0789  0.1133
14617TIP3    H265343   0.115   0.685   4.481 -0.0624 -0.3166  0.0194
14618TIP3   OH265344   2.408   0.003  10.865 -0.5796  1.1266 -0.8122
14618TIP3    H165345   2.393   0.096  10.879  1.1329  1.1324  1.2131
14618TIP3    H265346   2.486  -0.001  10.808  0.5706  0.9367  0.7440
14619TIP3   OH265347   5.311   3.582   2.819  0.0001 -0.2630  0.2834
14619TIP3    H165348   5.298   3.501   2.769 -4.0612  0.4920 -0.0789
14619TIP3    H265349   5.302   3.651   2.753  0.2211  0.5654  1.1230
14620TIP3   OH265350   6.399   4.966   0.031 -0.6595  0.4227 -0.0324
14620TIP3    H165351   6.399   5.005  -0.056 -0.6197  1.6546  0.5086
14620TIP3    H265352   6.492   4.947   0.048 -0.4825  1.5652  0.3358
14621TIP3   OH265353   4.873   3.703   6.132  0.2504 -0.2435 -0.8953
14621TIP3    H165354   4.884   3.695   6.037 -1.4931 -1.9732 -0.9848
14621TIP3    H265355   4.913   3.623   6.168 -2.8039 -1.6533 -0.5164
14622TIP3   OH265356   3.461   2.770  11.840  0.1511  0.2358  0.5509
14622TIP3    H165357   3.388   2.831  11.854  0.8943  0.8666  1.8196
14622TIP3    H265358   3.426   2.704  11.781 -1.0699  1.2059  0.1508
14623TIP3   OH265359   3.470   2.435   5.830  0.0400  0.1901  0.7524
14623TIP3    H165360   3.449   2.353   5.786  0.9801  0.0061  0.6308
14623TIP3    H265361   3.415   2.500   5.786 -0.1451 -0.2457  0.3305
14624TIP3   OH265362   0.838   6.144  13.323  0.2921 -0.6661  0.4671
14624TIP3    H165363   0.806   6.153  13.412  0.3218  0.0177  0.4135
14624TIP3    H265364   0.794   6.214  13.274  3.6597  1.9388  0.9078
14625TIP3   OH265365   2.206   5.631   4.405  0.4262 -0.7047  0.2959
14625TIP3    H165366   2.298   5.630   4.431  0.6606 -2.3400 -0.5617
14625TIP3    H265367   2.205   5.668   4.317  0.3971 -1.7929 -0.1668
14626TIP3   OH265368   5.274   4.160  10.509 -0.0969  0.0194  0.0650
14626TIP3    H165369   5.330   4.233  10.483 -0.6329 -0.0332 -1.3131
14626TIP3    H265370   5.331   4.103  10.561  0.2756  1.4998  1.3375
14627TIP3   OH265371   2.540   4.920   0.070  0.3465 -0.4209  0.2620
14627TIP3    H165372   2.558   4.841   0.120  0.3871 -2.4896 -2.8449
14627TIP3    H265373   2.626   4.948   0.038  0.0391 -0.7081 -0.8542
14628TIP3   OH265374   2.217   3.660   3.158  0.7390  0.2998  0.0697
14628TIP3    H165375   2.201   3.684   3.249  0.6105  1.2515 -0.1999
14628TIP3    H265376   2.287   3.595   3.162 -0.6289 -1.1563  0.9927
14629TIP3   OH265377   4.044   1.030   5.937 -0.1981 -0.3648 -0.0539
14629TIP3    H165378   4.105   1.032   6.010 -2.2116 -1.6426  1.7050
14629TIP3    H265379   3.964   0.991   5.973 -2.5985  2.6583 -1.8796
14630TIP3   OH265380   6.402   1.338  16.963 -0.7955 -0.0088  0.0619
14630TIP3    H165381   6.358   1.417  16.995  0.9794  0.8271  0.5157
14630TIP3    H265382   6.496   1.357  16.974 -0.2980 -1.5209 -1.3898
14631TIP3   OH265383   6.210   0.825  11.512  0.2245  0.0031  0.2349
14631TIP3    H165384   6.188   0.791  11.425  3.0618 -0.5507 -0.3031
14631TIP3    H265385   6.125   0.845  11.552 -1.3311 -3.3824 -1.1839
14632TIP3   OH265386   5.974   0.073  11.526  0.1856  0.3786  0.1759
14632TIP3    H165387   5.979  -0.020  11.505 -1.7710  0.4497 -0.7796
14632TIP3    H265388   6.065   0.101  11.536  1.0103 -0.8051 -3.3070
14633TIP3   OH265389   4.921   0.292  11.818  0.3335 -0.4012 -0.1278
14633TIP3    H165390   4.889   0.216  11.866 -0.4823 -0.0746 -0.1398
14633TIP3    H265391   4.845   0.351  11.814  1.4228  1.1466  1.3886
14634TIP3   OH265392   3.484   2.464   4.529 -0.0220  0.0642 -0.1604
14634TIP3    H165393   3.435   2.523   4.472 -1.2926 -2.4976 -1.8295
14634TIP3    H265394   3.464   2.376   4.495  3.8468 -1.2045  0.5936
14635TIP3   OH265395   4.509   5.749  16.496 -0.4032 -0.4639 -0.4893
14635TIP3    H165396   4.539   5.837  16.475 -1.9496  0.6162  1.6550
14635TIP3    H265397   4.415   5.758  16.510 -0.3134 -2.1193  1.4182
14636TIP3   OH265398   2.433   0.479   4.887 -0.2055 -0.0897 -0.7149
14636TIP3    H165399   2.445   0.569   4.918  0.5847 -0.2654 -0.4982
14636TIP3    H265400   2.444   0.485   4.792 -0.3744  0.0792 -0.7246
14637TIP3   OH265401   0.653   3.652  16.977  0.1294 -0.1849  0.1779
14637TIP3    H165402   0.693   3.739  16.981 -0.9389  0.2434  1.7452
14637TIP3    H265403   0.654   3.630  16.884 -0.7331  2.0491 -0.3947
14638TIP3   OH265404   2.943   3.635   2.462 -0.0515 -0.2167 -0.2126
14638TIP3    H165405   3.001   3.628   2.386 -1.2808  2.1119 -1.4091
14638TIP3    H265406   2.988   3.696   2.520 -0.6458  0.5264 -0.5301
14639TIP3   OH265407   4.139   4.921  15.739  0.3373  0.2886  0.1506
14639TIP3    H165408   4.055   4.923  15.694  0.0351  0.0450  0.6937
14639TIP3    H265409   4.190   4.855  15.693  0.6132  1.1571 -0.8282
14640TIP3   OH265410   1.900   4.624   2.531 -0.0834  0.4399 -0.1416
14640TIP3    H165411   1.870   4.605   2.442 -1.0498 -0.2786  0.3216
14640TIP3    H265412   1.819   4.630   2.582  0.5549 -2.1990  1.2646
14641TIP3   OH265413   0.913   6.195  10.801 -0.6549  0.1763  0.3714
14641TIP3    H165414   0.970   6.165  10.731 -0.7101  1.0353 -0.0481
14641TIP3    H265415   0.947   6.282  10.824 -0.4289 -0.2404  1.6353
14642TIP3   OH265416   0.809   5.450   4.178 -0.1616 -0.8377 -0.1754
14642TIP3    H165417   0.775   5.472   4.265  2.3689  2.0193  0.1853
14642TIP3    H265418   0.744   5.488   4.117 -0.9116 -1.0776  0.4681
14643TIP3   OH265419   4.363   0.494  14.102  0.1847  0.1054  0.4766
14643TIP3    H165420   4.270   0.470  14.099  0.4055 -0.7166  0.2325
14643TIP3    H265421   4.368   0.561  14.170 -0.7192  0.7438 -0.0721
14644TIP3   OH265422   2.033   3.664  11.920 -0.1570 -0.1912 -0.4927
14644TIP3    H165423   2.106   3.623  11.874 -0.4739 -0.9838 -0.2978
14644TIP3    H265424   2.048   3.645  12.012 -0.1637  0.3747 -0.3695
14645TIP3   OH265425   1.252   0.677   1.506 -0.6087  0.3665  0.0401
14645TIP3    H165426   1.274   0.596   1.460  0.1369 -0.1638  1.3230
14645TIP3    H265427   1.324   0.737   1.485 -1.2819  0.7945 -1.1071
14646TIP3   OH265428   0.133   4.848  17.019  0.0615  0.4959 -0.2061
14646TIP3    H165429   0.063   4.891  16.970  0.4352  0.2827 -0.9399
14646TIP3    H265430   0.209   4.853  16.961 -0.0426 -1.6635 -0.5717
14647TIP3   OH265431   2.260   3.398   3.757  0.0456  0.0415  0.5029
14647TIP3    H165432   2.320   3.355   3.695  2.7318  2.4840  1.2818
14647TIP3    H265433   2.271   3.349   3.838  0.9141  0.3695  0.5967
14648TIP3   OH265434   1.028   1.829  15.913  0.1787  0.2015  0.1516
14648TIP3    H165435   1.046   1.752  15.858 -1.0583  0.0640 -0.0650
14648TIP3    H265436   1.076   1.811  15.994  1.0788 -0.1230 -0.4345
14649TIP3   OH265437   5.512   6.215  13.070 -0.1083  0.3456 -0.1333
14649TIP3    H165438   5.572   6.273  13.024  0.2000 -1.6068 -2.3044
14649TIP3    H265439   5.427   6.229  13.027 -0.2261 -0.1054 -0.0511
14650TIP3   OH265440   3.652   1.010   4.284  0.3481  0.1636  0.4758
14650TIP3    H165441   3.568   0.975   4.255  0.4035  0.0064  0.5058
14650TIP3    H265442   3.649   1.103   4.259  0.1441  0.1711  0.5262
14651TIP3   OH265443   3.182   2.585  15.070  0.2199  0.4073  0.6263
14651TIP3    H165444   3.129   2.551  14.997  0.5088 -0.5956  0.8739
14651TIP3    H265445   3.257   2.526  15.075  0.2665  0.5396  1.6539
14652TIP3   OH265446   4.465   0.579   5.639 -0.5398 -0.0098  0.1641
14652TIP3    H165447   4.488   0.595   5.730 -1.7359 -0.8407  0.6392
14652TIP3    H265448   4.375   0.546   5.643 -0.3694 -0.7015 -1.2574
14653TIP3   OH265449   0.024   3.766   5.171 -0.6309  0.8343  0.5310
14653TIP3    H165450   0.087   3.740   5.239 -1.0347  0.4097  0.7483
14653TIP3    H265451   0.077   3.775   5.092 -0.5474 -1.1103  0.3498
14654TIP3   OH265452   6.141   5.647  14.744  0.0865  0.6093  0.2236
14654TIP3    H165453   6.174   5.557  14.753  1.0410  1.0296  1.0517
14654TIP3    H265454   6.110   5.670  14.832 -0.6640  0.9004 -0.1118
14655TIP3   OH265455   3.378   6.107   3.029  0.2099  0.4384 -0.2737
14655TIP3    H165456   3.321   6.181   3.051  2.9035  2.9277 -1.3241
14655TIP3    H265457   3.432   6.139   2.957  1.0413 -2.8095 -1.1726
14656TIP3   OH265458   6.308   4.756   0.727 -0.0727  0.4088 -0.1354
14656TIP3    H165459   6.316   4.698   0.652  0.1040 -0.4021  0.4992
14656TIP3    H265460   6.250   4.709   0.788  1.8417 -0.1284  1.3329
14657TIP3   OH265461   3.948   6.497  10.638 -0.0868  0.3661 -0.4884
14657TIP3    H165462   3.906   6.411  10.629  1.4838 -0.5276  0.5156
14657TIP3    H265463   4.007   6.487  10.713  2.8976  1.1921 -2.6475
14658TIP3   OH265464   1.411   4.149   2.571  0.2303  0.2749  0.8429
14658TIP3    H165465   1.410   4.243   2.554 -0.2219  0.4512  1.8445
14658TIP3    H265466   1.489   4.135   2.625 -0.6430  0.3412  2.1507
14659TIP3   OH265467   0.433   1.408  14.451  0.0670  0.0909 -0.0085
14659TIP3    H165468   0.423   1.464  14.528 -0.5459  0.0617 -0.0664
14659TIP3    H265469   0.375   1.334  14.467 -2.0793  1.3592 -1.6705
14660TIP3   OH265470   3.016   4.044  13.268  0.0613  0.2281 -0.3771
14660TIP3    H165471   3.090   4.105  13.269  2.5800 -2.7318  1.1462
14660TIP3    H265472   3.018   4.001  13.353 -1.2131 -2.4433 -1.6152
14661TIP3   OH265473   5.746   2.986   1.078 -0.1633 -0.0629 -0.6813
14661TIP3    H165474   5.757   2.990   0.983 -2.3668 -1.4962 -1.0398
14661TIP3    H265475   5.651   2.991   1.091  0.2027  1.7978  1.5536
14662TIP3   OH265476   2.862   6.366   1.104 -0.3143  0.7815  0.3547
14662TIP3    H165477   2.882   6.450   1.064 -0.5652 -0.5605 -2.7539
14662TIP3    H265478   2.767   6.360   1.102 -0.3346  0.6714  1.1773
14663TIP3   OH265479   6.127   6.044   4.072  0.6644 -0.3652 -0.3509
14663TIP3    H165480   6.164   6.132   4.081 -0.2680 -0.2418  2.5514
14663TIP3    H265481   6.065   6.052   3.999 -0.6864  1.8617  0.9766
14664TIP3   OH265482   4.057   6.780   5.011  0.2948  0.4843 -0.0890
14664TIP3    H165483   4.062   6.757   5.104 -0.1017  1.1330  0.0956
14664TIP3    H265484   4.148   6.781   4.982  0.6194  2.6349  0.8793
14665TIP3   OH265485   4.026   0.323   3.327 -0.3650  0.0917  0.2414
14665TIP3    H165486   3.998   0.298   3.416 -2.2314 -0.0799 -0.3727
14665TIP3    H265487   3.978   0.404   3.309 -0.3308 -0.1081 -0.7759
14666TIP3   OH265488   5.551   4.267  12.213  0.0158  0.6377 -0.2346
14666TIP3    H165489   5.519   4.281  12.124 -1.7510 -0.7772  0.1497
14666TIP3    H265490   5.539   4.173  12.229  0.7943  0.7786  1.3142
14667TIP3   OH265491   2.157   2.131  17.209 -0.1523 -0.3366  0.2550
14667TIP3    H165492   2.068   2.166  17.197  0.1681 -0.0952 -1.5310
14667TIP3    H265493   2.203   2.155  17.129  1.7802  0.2681  1.5194
14668TIP3   OH265494   2.503   4.638  16.308 -0.4938  0.3307  0.3048
14668TIP3    H165495   2.574   4.638  16.244  0.3950  0.4548  1.2752
14668TIP3    H265496   2.444   4.569  16.279  0.9477 -0.9959  0.4766
14669TIP3   OH265497   0.358   3.217   0.626  0.1059 -1.0170  0.7242
14669TIP3    H165498   0.448   3.245   0.643 -0.9447  2.4003  1.2433
14669TIP3    H265499   0.365   3.146   0.564  3.0788  0.9571 -1.3087
14670TIP3   OH265500   1.366   4.152  11.357  0.7491 -0.0242  0.3197
14670TIP3    H165501   1.333   4.172  11.269 -0.4645  0.5308  0.8922
14670TIP3    H265502   1.394   4.061  11.352 -0.5894 -0.4062 -0.2663
14671TIP3   OH265503   0.472   2.594   4.763 -0.1117 -0.5316  0.1032
14671TIP3    H165504   0.408   2.634   4.822 -1.7995 -1.7129 -0.8573
14671TIP3    H265505   0.493   2.510   4.804  0.0275 -0.5915 -0.0924
14672TIP3   OH265506   0.553   3.702   6.271  0.2265  0.3887  0.0203
14672TIP3    H165507   0.492   3.713   6.344 -3.8015 -1.7872 -2.8106
14672TIP3    H265508   0.541   3.781   6.218  0.6423  0.4276 -0.0160
14673TIP3   OH265509   1.024   5.170  14.137  0.2924  0.0779  0.7062
14673TIP3    H165510   1.043   5.259  14.167  0.8810 -0.4087  1.7934
14673TIP3    H265511   1.062   5.113  14.205 -1.2882 -0.9767  0.7210
14674TIP3   OH265512   0.659   0.998   1.049 -0.1790 -0.2590 -0.5772
14674TIP3    H165513   0.748   0.995   1.083 -0.2701 -0.6885 -0.3704
14674TIP3    H265514   0.627   1.085   1.071  0.2774 -0.0202 -0.8717
14675TIP3   OH265515   4.791   0.345   4.006 -0.3182  0.0437 -0.0598
14675TIP3    H165516   4.770   0.384   4.091 -0.7135 -0.1810 -0.0589
14675TIP3    H265517   4.886   0.333   4.009 -0.3324  0.0347  0.3486
14676TIP3   OH265518   1.306   2.241  11.895  0.3233  0.4330 -0.1931
14676TIP3    H165519   1.370   2.269  11.829  1.5222 -0.9084  0.3821
14676TIP3    H265520   1.327   2.149  11.911  0.5150  0.9448  2.6157
14677TIP3   OH265521   3.496   2.345  14.728  0.3855 -0.3962 -0.4922
14677TIP3    H165522   3.571   2.321  14.782  1.5412  1.4690 -1.2213
14677TIP3    H265523   3.471   2.432  14.758 -2.3694 -1.5510  0.6495
14678TIP3   OH265524   4.423   3.284   1.364  0.0460 -0.5921 -0.3496
14678TIP3    H165525   4.359   3.234   1.415  0.7696 -1.4478 -0.2806
14678TIP3    H265526   4.503   3.233   1.368  0.5265  0.0830 -1.1046
14679TIP3   OH265527   3.997   6.096  14.800  0.1285 -0.0001  0.4124
14679TIP3    H165528   3.973   6.140  14.718  1.2525  0.7339  0.4609
14679TIP3    H265529   3.915   6.058  14.832 -0.4143  0.1194 -0.8060
14680TIP3   OH265530   4.166   5.386   3.918 -0.1765  0.3677 -0.4852
14680TIP3    H165531   4.104   5.316   3.900  0.7037 -1.1122  1.9428
14680TIP3    H265532   4.124   5.439   3.986 -0.5664  1.8582 -1.8640
14681TIP3   OH265533   1.238   6.789   0.021 -0.1135  0.1537  0.6636
14681TIP3    H165534   1.291   6.837   0.085 -0.1236 -0.9623  1.5043
14681TIP3    H265535   1.299   6.773  -0.052  0.6696 -0.9828  1.5583
14682TIP3   OH265536   1.504   1.975  16.716  0.0030 -0.1645 -0.1499
14682TIP3    H165537   1.414   2.004  16.700  0.0561 -0.5854 -1.2461
14682TIP3    H265538   1.544   1.970  16.629  1.5101  1.3516  0.4272
14683TIP3   OH265539   1.646   2.319   3.769 -0.3370 -0.2480  0.1905
14683TIP3    H165540   1.650   2.223   3.769  0.5452 -0.2601 -2.1652
14683TIP3    H265541   1.713   2.346   3.832 -0.0431 -1.1741  0.2819
14684TIP3   OH265542   2.729   4.568   4.853  0.3920 -0.2598  0.0085
14684TIP3    H165543   2.718   4.475   4.835  1.1408 -0.3235 -0.1481
14684TIP3    H265544   2.701   4.578   4.944  1.4409 -0.8599  0.4023
14685TIP3   OH265545   1.911   3.405   5.873 -0.6595 -0.0229  0.1632
14685TIP3    H165546   1.866   3.465   5.933 -0.7404 -2.1793  2.3621
14685TIP3    H265547   1.861   3.323   5.880  1.7229 -1.5063  0.2246
14686TIP3   OH265548   1.843   2.034   3.811  0.9678 -0.9132 -0.2997
14686TIP3    H165549   1.755   2.006   3.836  0.4730 -0.2052 -1.1806
14686TIP3    H265550   1.882   2.066   3.892  0.1609 -0.6054 -0.0239
14687TIP3   OH265551   1.912   0.509   4.686  0.3149 -0.0435 -0.0650
14687TIP3    H165552   1.878   0.488   4.599 -0.4159  0.7333  0.0293
14687TIP3    H265553   1.950   0.427   4.717  1.0257 -0.2113 -1.3184
14688TIP3   OH265554   4.950   3.521  11.620 -0.1594 -0.2269 -0.1530
14688TIP3    H165555   4.982   3.585  11.684 -0.0467 -1.3229  0.9161
14688TIP3    H265556   5.020   3.455  11.616 -0.9076 -1.0267 -0.1606
14689TIP3   OH265557   6.679   5.743  11.169  0.0070 -0.3941  0.0861
14689TIP3    H165558   6.755   5.801  11.177  0.1618 -0.6688  0.5595
14689TIP3    H265559   6.698   5.668  11.225 -0.4822 -0.6029 -0.0182
14690TIP3   OH265560   0.448   0.315   2.932  0.4271  0.0804 -0.7407
14690TIP3    H165561   0.532   0.283   2.898  0.6512  0.1340 -0.2372
14690TIP3    H265562   0.431   0.395   2.881 -0.0063 -0.6932 -1.8162
14691TIP3   OH265563   4.009   4.499   5.050  0.0749 -0.0850  0.1915
14691TIP3    H165564   3.995   4.409   5.020 -0.2962  0.3627 -1.0097
14691TIP3    H265565   3.924   4.541   5.042  0.3254  0.4667  0.4094
14692TIP3   OH265566   5.207   4.025  14.943 -0.7045 -0.6967  0.5106
14692TIP3    H165567   5.213   3.955  15.007 -3.0737 -0.5347  0.9595
14692TIP3    H265568   5.230   4.104  14.992 -0.2498 -0.8694  0.5748
14693TIP3   OH265569   6.652   6.344   6.402 -0.2747  0.1248 -0.6470
14693TIP3    H165570   6.565   6.339   6.364 -0.2219 -0.0024 -0.7512
14693TIP3    H265571   6.638   6.336   6.496 -0.2719 -1.0488 -0.7415
14694TIP3   OH265572   2.242   3.424   0.450 -0.4958  0.2845  0.1525
14694TIP3    H165573   2.261   3.511   0.413 -0.9798  0.5118  0.4411
14694TIP3    H265574   2.149   3.411   0.433 -0.1465 -0.7503 -1.0797
14695TIP3   OH265575   6.746   5.097  12.903  0.2189 -0.2552  0.1198
14695TIP3    H165576   6.753   5.126  12.994  0.7410 -0.7054  0.2242
14695TIP3    H265577   6.828   5.051  12.885  0.4793  0.5503 -0.8376
14696TIP3   OH265578   1.536   2.603  10.831  0.2019 -0.6877 -0.2763
14696TIP3    H165579   1.566   2.602  10.740  0.6831 -1.7524 -0.1166
14696TIP3    H265580   1.441   2.611  10.826  0.2487 -0.5361 -0.8675
14697TIP3   OH265581   1.868   3.015   4.400 -0.3382  0.0449 -0.3783
14697TIP3    H165582   1.870   3.025   4.305 -0.8017 -0.0356 -0.3977
14697TIP3    H265583   1.850   2.922   4.414 -0.7663  0.1521 -0.2147
14698TIP3   OH265584   4.327   3.923   1.097  0.0618  0.6435  0.2837
14698TIP3    H165585   4.407   3.973   1.117  0.5776  0.6848 -1.8201
14698TIP3    H265586   4.315   3.933   1.003 -0.6147 -2.0951  0.0432
14699TIP3   OH265587   3.653   0.463  14.906 -0.1051  0.0642  0.2135
14699TIP3    H165588   3.711   0.387  14.904  0.7776  0.7497 -0.6782
14699TIP3    H265589   3.648   0.488  14.998  0.2386 -0.5817  0.4103
14700TIP3   OH265590   6.805   5.339   5.226  0.2317  0.1444  0.4346
14700TIP3    H165591   6.729   5.373   5.274 -2.3637 -2.6356 -1.5261
14700TIP3    H265592   6.783   5.350   5.134  1.1675 -2.7430 -0.2054
14701TIP3   OH265593   0.018   0.584  15.266  0.3486 -0.6937  0.0509
14701TIP3    H165594   0.016   0.583  15.361 -1.4033 -0.2254  0.0396
14701TIP3    H265595  -0.057   0.638  15.241  1.5199  0.2393 -1.5737
14702TIP3   OH265596   5.176   5.522   4.078  0.3263 -0.5667  0.4825
14702TIP3    H165597   5.118   5.501   4.152 -0.1799  2.5200  1.0205
14702TIP3    H265598   5.121   5.574   4.019  1.5140 -0.7106 -0.7611
14703TIP3   OH265599   1.924   6.559  10.645 -0.0346 -0.3488  0.0698
14703TIP3    H165600   2.016   6.538  10.662 -0.0088  0.3966  0.8532
14703TIP3    H265601   1.904   6.513  10.564  1.0770 -0.3789 -0.1935
14704TIP3   OH265602   1.848   4.829  16.048  0.1641 -0.6669  0.6416
14704TIP3    H165603   1.871   4.778  15.970  2.1737  0.3845  0.5017
14704TIP3    H265604   1.821   4.914  16.013 -0.2634 -0.6432  1.0299
14705TIP3   OH265605   3.099   0.739  14.670 -0.2706 -0.5917  0.4559
14705TIP3    H165606   3.189   0.743  14.638 -1.1451 -1.6961 -2.2839
14705TIP3    H265607   3.054   0.810  14.625 -1.2594 -1.4573  0.0477
14706TIP3   OH265608   2.647   4.384   3.463  0.2703 -0.1829  0.5640
14706TIP3    H165609   2.704   4.311   3.487 -0.2289 -0.4007  1.0921
14706TIP3    H265610   2.699   4.462   3.482  0.7919 -0.3985  0.0302
14707TIP3   OH265611   0.107   0.092  13.682 -0.1182 -0.0789 -0.0931
14707TIP3    H165612   0.138   0.175  13.720 -0.9678 -0.2054  0.8867
14707TIP3    H265613   0.145   0.024  13.738  0.0151 -0.3248 -0.4833
14708TIP3   OH265614   2.769   4.744  15.823 -0.5730 -0.5575  0.1018
14708TIP3    H165615   2.704   4.685  15.785 -0.8217  0.0422 -0.4165
14708TIP3    H265616   2.838   4.750  15.757  0.2888 -1.6180  0.8705
14709TIP3   OH265617   0.471   3.942  14.820 -0.3798  0.5086 -0.0739
14709TIP3    H165618   0.434   3.860  14.787 -0.3946  0.2657  0.5485
14709TIP3    H265619   0.413   4.009  14.786  0.2224  0.3502 -1.4640
14710TIP3   OH265620   4.161   0.476  10.895  0.0872  0.0410  0.1510
14710TIP3    H165621   4.075   0.497  10.931  0.7593 -1.5032  2.7246
14710TIP3    H265622   4.222   0.527  10.948  0.8345  0.6223 -1.2404
14711TIP3   OH265623   1.817   3.844  12.009  0.0598  0.2597 -0.6023
14711TIP3    H165624   1.879   3.791  11.959  4.2419  2.6845  1.7336
14711TIP3    H265625   1.767   3.781  12.061  0.8609 -1.7433 -2.2014
14712TIP3   OH265626   6.443   0.476   3.877 -0.3711  0.2566  0.0469
14712TIP3    H165627   6.524   0.425   3.868 -1.4434 -1.4742  0.0731
14712TIP3    H265628   6.469   0.565   3.854  1.7860 -0.0709  1.0745
14713TIP3   OH265629   3.313   4.586   2.384  0.7396  0.0728 -0.2573
14713TIP3    H165630   3.371   4.513   2.365  0.4216 -0.2195 -0.1149
14713TIP3    H265631   3.249   4.585   2.312 -1.2097 -1.7907  1.4215
14714TIP3   OH265632   2.061   3.312  13.760  0.0948 -0.0058 -0.2689
14714TIP3    H165633   2.116   3.234  13.761 -1.5302 -1.1935 -0.3851
14714TIP3    H265634   2.063   3.344  13.850 -2.3055 -2.4746  0.7525
14715TIP3   OH265635   1.717   2.794  15.873  0.1577  0.7013  0.1773
14715TIP3    H165636   1.648   2.769  15.935  1.2724  0.5630  1.3925
14715TIP3    H265637   1.711   2.889  15.868 -0.9124  0.6069 -0.6899
14716TIP3   OH265638   1.082   1.366  13.355  0.6845 -0.1523  0.0752
14716TIP3    H165639   1.020   1.388  13.425 -1.2413  1.7867 -2.1110
14716TIP3    H265640   1.167   1.362  13.398 -0.7287 -1.1345  2.8788
14717TIP3   OH265641   4.467   1.552  13.302  0.1374 -0.2309  0.1844
14717TIP3    H165642   4.377   1.582  13.296  0.2615 -0.2591 -2.2971
14717TIP3    H265643   4.469   1.469  13.255  1.6608  0.3282 -0.8205
14718TIP3   OH265644   2.654   6.512  15.059 -0.2777 -0.0492  0.6944
14718TIP3    H165645   2.669   6.591  15.007  1.3538 -1.7965 -1.6466
14718TIP3    H265646   2.742   6.488  15.089 -0.8228 -0.7315  1.7196
14719TIP3   OH265647   1.212   3.609  12.105  0.4034  0.0386 -0.3833
14719TIP3    H165648   1.256   3.624  12.021 -0.5684  1.6803 -0.6198
14719TIP3    H265649   1.124   3.582  12.082  0.7300 -1.4920  0.1130
14720TIP3   OH265650   5.363   5.441   3.567  0.0597  0.0115  0.2600
14720TIP3    H165651   5.269   5.459   3.575  0.0616  1.0499 -1.7564
14720TIP3    H265652   5.401   5.472   3.649 -1.0792  1.5074  0.2410
14721TIP3   OH265653   3.169   6.759  12.909 -0.1802 -0.2151 -0.1489
14721TIP3    H165654   3.176   6.780  13.002 -2.1181  2.1751 -0.4894
14721TIP3    H265655   3.252   6.789  12.872  0.2883 -0.4648  0.6762
14722TIP3   OH265656   0.351   5.825   0.823  0.0351  0.0084  0.6456
14722TIP3    H165657   0.366   5.918   0.806  1.1820 -0.3011 -0.0831
14722TIP3    H265658   0.263   5.808   0.787  0.6648  0.3489 -1.1295
14723TIP3   OH265659   0.080   4.072   5.751 -0.2578 -0.1820 -0.2275
14723TIP3    H165660   0.098   4.166   5.758  1.0079 -0.4801  0.7336
14723TIP3    H265661   0.159   4.030   5.787  0.5803 -1.6559 -3.6027
14724TIP3   OH265662   0.654   6.448  10.604 -0.6157  0.6559 -0.2659
14724TIP3    H165663   0.695   6.361  10.600 -0.8630  0.5452 -0.3955
14724TIP3    H265664   0.699   6.498  10.537  1.3944  1.4318  1.6200
14725TIP3   OH265665   0.239   0.904  13.931  0.0319  0.4140  0.0483
14725TIP3    H165666   0.174   0.973  13.919  0.4928  0.9620  0.7238
14725TIP3    H265667   0.318   0.937  13.889  0.6522  0.8826  1.5549
14726TIP3   OH265668   2.029   6.594   2.544  0.0763 -0.0568  0.0105
14726TIP3    H165669   2.010   6.657   2.614  0.9931 -0.1231  0.3191
14726TIP3    H265670   2.065   6.518   2.589  0.1373 -0.3216 -0.4847
14727TIP3   OH265671   0.757   2.696   5.447  0.2805  0.2695 -0.1153
14727TIP3    H165672   0.730   2.783   5.418  0.0314  0.7320  1.4488
14727TIP3    H265673   0.852   2.701   5.457  0.3808  0.0775 -0.9125
14728TIP3   OH265674   4.386   2.527   2.585 -0.0526  0.6712  0.6005
14728TIP3    H165675   4.327   2.564   2.520 -0.5570 -2.8215 -1.0382
14728TIP3    H265676   4.352   2.438   2.600  2.9979 -0.3307  1.8813
14729TIP3   OH265677   1.403   5.878  13.655  0.0057 -0.5590 -0.0133
14729TIP3    H165678   1.383   5.885  13.562 -1.9323  1.8033  0.5280
14729TIP3    H265679   1.332   5.825  13.691 -1.1701  1.4124  0.6484
14730TIP3   OH265680   3.152   4.376   0.187 -0.2337 -0.3877  0.1307
14730TIP3    H165681   3.224   4.434   0.213  0.2570 -0.7803 -0.3367
14730TIP3    H265682   3.190   4.320   0.119 -0.1568 -2.4726  1.8061
14731TIP3   OH265683   2.163   5.265   4.797 -0.0527  0.1888  0.1280
14731TIP3    H165684   2.142   5.343   4.849  0.1321 -0.1056  0.6460
14731TIP3    H265685   2.254   5.246   4.819 -0.5360 -1.0271  1.1132
14732TIP3   OH265686   5.192   0.526  10.822 -0.1558  0.7903 -0.0435
14732TIP3    H165687   5.247   0.454  10.789  0.2001  0.4965  1.1430
14732TIP3    H265688   5.225   0.603  10.777 -0.4945  0.2252 -1.2863
14733TIP3   OH265689   2.360   0.810   4.698  0.2637 -0.4901  0.0453
14733TIP3    H165690   2.420   0.766   4.757 -0.9790 -0.6411  1.2198
14733TIP3    H265691   2.309   0.868   4.754 -0.3279  0.0123 -1.0005
14734TIP3   OH265692   2.295   5.351  12.246  0.2452 -0.4645 -0.2725
14734TIP3    H165693   2.292   5.370  12.152  0.0820 -0.7875 -0.3307
14734TIP3    H265694   2.368   5.290  12.256  1.2405  0.7579  0.0145
14735TIP3   OH265695   0.329   6.711  15.336  0.3123 -0.5431  0.0196
14735TIP3    H165696   0.357   6.679  15.421  0.1153  0.4151  0.4508
14735TIP3    H265697   0.351   6.641  15.275 -0.0805 -1.4630  0.9405
14736TIP3   OH265698   2.940   6.045   5.747  0.3818 -0.3215 -0.3657
14736TIP3    H165699   2.947   6.016   5.838  1.5410 -0.9954 -0.6633
14736TIP3    H265700   2.876   6.116   5.750  3.2323  2.2751  1.5637
14737TIP3   OH265701   3.765   3.063   6.410  0.1998  0.3880 -0.3302
14737TIP3    H165702   3.691   3.017   6.449  1.1895 -1.0033 -0.0621
14737TIP3    H265703   3.814   3.098   6.484  0.1646  0.7604 -0.4815
14738TIP3   OH265704   1.788   3.635  14.370  0.2591 -1.0199  0.5881
14738TIP3    H165705   1.856   3.701  14.374  1.8740 -2.5636 -0.7203
14738TIP3    H265706   1.711   3.680  14.335  1.3071  0.1627 -0.1870
14739TIP3   OH265707   1.929   4.649   4.953 -0.3762 -0.4438 -0.0098
14739TIP3    H165708   1.914   4.730   4.905 -0.9817 -1.0160 -0.8150
14739TIP3    H265709   1.871   4.655   5.029  1.6550  1.1091  1.4759
14740TIP3   OH265710   3.675   3.542  16.688  0.1159 -0.3277  0.4033
14740TIP3    H165711   3.617   3.476  16.726  0.1637 -0.0630  0.9461
14740TIP3    H265712   3.647   3.624  16.729  1.5613 -0.3564  1.4664
14741TIP3   OH265713   3.172   0.535   2.208 -0.3011  0.4329  1.0393
14741TIP3    H165714   3.238   0.561   2.144 -1.3135  1.2159  0.2845
14741TIP3    H265715   3.177   0.440   2.211 -1.3737  0.2584 -1.4673
14742TIP3   OH265716   3.556   0.832   2.315 -0.1786  0.3163 -0.2568
14742TIP3    H165717   3.647   0.862   2.319 -0.4809  1.0317  2.0270
14742TIP3    H265718   3.538   0.798   2.403 -2.3883  0.9313 -0.4382
14743TIP3   OH265719   2.123   2.101  12.967 -0.1739  0.0071  0.3139
14743TIP3    H165720   2.141   2.189  12.933 -0.8370  0.0319  0.0107
14743TIP3    H265721   2.053   2.114  13.031  0.4340 -0.1675  1.0118
14744TIP3   OH265722   5.813   2.109  12.879  0.5354  0.0857  0.1205
14744TIP3    H165723   5.731   2.146  12.846  0.4121 -0.3744 -0.0932
14744TIP3    H265724   5.875   2.182  12.877  0.7714 -0.1488 -1.9243
14745TIP3   OH265725   0.278   0.366  15.374 -0.0780  0.0354 -0.6330
14745TIP3    H165726   0.302   0.458  15.358 -0.2916  0.0454 -0.9083
14745TIP3    H265727   0.233   0.367  15.458  2.6680 -0.2891  0.8870
14746TIP3   OH265728   0.104   1.261   2.969 -0.1804  0.4031 -0.0109
14746TIP3    H165729   0.064   1.348   2.958 -1.7333 -0.2729  0.1249
14746TIP3    H265730   0.052   1.204   2.912  0.6250 -0.4990  0.1513
14747TIP3   OH265731   5.269   3.455   5.710 -0.1668 -0.1274  0.2136
14747TIP3    H165732   5.360   3.477   5.689  0.4132 -2.3385  0.3231
14747TIP3    H265733   5.222   3.467   5.627  0.6298 -1.0717 -0.3831
14748TIP3   OH265734   0.019   0.614  12.172 -0.3914 -0.2324  0.2600
14748TIP3    H165735   0.043   0.704  12.150 -2.6006  1.0336  2.7075
14748TIP3    H265736   0.073   0.592  12.247 -0.1453 -0.8124 -0.0824
14749TIP3   OH265737   1.333   5.714   5.852 -0.4389  0.3994 -0.3851
14749TIP3    H165738   1.274   5.759   5.791 -0.5122 -1.3413 -1.6557
14749TIP3    H265739   1.373   5.645   5.799  1.2554  0.3140  0.9755
14750TIP3   OH265740   6.682   2.707  14.330 -0.0396 -0.1469  0.3070
14750TIP3    H165741   6.653   2.798  14.335  1.2781  0.1914  1.9653
14750TIP3    H265742   6.777   2.712  14.330  0.0802 -1.4116 -2.3229
14751TIP3   OH265743   5.858   2.531  14.084 -0.0314  0.0655  0.3365
14751TIP3    H165744   5.838   2.609  14.032  2.7095 -0.5874 -1.8242
14751TIP3    H265745   5.850   2.458  14.023  0.6738 -0.9927  1.4714
14752TIP3   OH265746   4.981   1.529   3.567 -0.1040  0.4507 -0.0246
14752TIP3    H165747   5.048   1.555   3.630  1.5689 -1.3997 -0.9964
14752TIP3    H265748   5.028   1.519   3.484 -1.5844 -0.8966 -0.7308
14753TIP3   OH265749   5.829   0.055   1.687  0.0697 -0.7212 -0.3166
14753TIP3    H165750   5.771   0.047   1.612  1.1316 -1.3816 -1.0786
14753TIP3    H265751   5.819  -0.028   1.735 -0.2212 -0.5101 -0.0122
14754TIP3   OH265752   2.959   0.699  11.890 -0.4385  0.5789 -0.4494
14754TIP3    H165753   2.991   0.651  11.967 -2.0874  0.3090  0.0709
14754TIP3    H265754   2.997   0.652  11.816  0.9061  0.6494  0.1599
14755TIP3   OH265755   5.796   0.496   1.614  0.4955  0.4413  0.0376
14755TIP3    H165756   5.833   0.543   1.539 -1.3767  0.9448 -0.5907
14755TIP3    H265757   5.867   0.493   1.678  1.2283  2.5250 -0.6379
14756TIP3   OH265758   0.059   2.816   3.232  0.0662  0.6875 -0.0445
14756TIP3    H165759   0.092   2.906   3.238  1.3497  0.3385 -1.5788
14756TIP3    H265760   0.137   2.762   3.225 -0.6670 -0.6603  1.8410
14757TIP3   OH265761   3.597   1.576   3.628  0.6466 -0.0205 -0.2220
14757TIP3    H165762   3.592   1.490   3.669  0.1792  0.6388  1.1397
14757TIP3    H265763   3.521   1.581   3.571  1.7950 -1.3041 -1.9313
14758TIP3   OH265764   0.209   1.753  17.131 -0.1645 -0.5590 -0.5520
14758TIP3    H165765   0.224   1.773  17.038 -0.1398 -0.2950 -0.4941
14758TIP3    H265766   0.165   1.668  17.131  2.3657 -1.9119 -0.6799
14759TIP3   OH265767   1.852   6.775  12.485 -0.1356 -0.6909 -0.7778
14759TIP3    H165768   1.844   6.760  12.579  0.5141 -0.1185 -0.6305
14759TIP3    H265769   1.851   6.687  12.447 -1.7570 -0.8792 -0.3506
14760TIP3   OH265770   0.326   1.106  13.357  0.3126  0.3000 -0.2268
14760TIP3    H165771   0.282   1.071  13.434  1.0931  0.4549  0.2918
14760TIP3    H265772   0.277   1.070  13.283  0.0635 -0.5176  0.3288
14761TIP3   OH265773   1.528   3.603  12.690 -0.0164 -0.2501  0.2345
14761TIP3    H165774   1.537   3.643  12.604  0.1306  1.1872  0.8960
14761TIP3    H265775   1.588   3.654  12.746 -0.0082 -1.2476  1.1448
14762TIP3   OH265776   3.025   4.904  12.357 -0.0451  0.3939 -0.0890
14762TIP3    H165777   3.013   4.831  12.417  0.1405 -0.2720 -0.8622
14762TIP3    H265778   3.063   4.865  12.278 -1.0080  1.1461 -0.9326
14763TIP3   OH265779   1.826   4.028  14.321 -0.4172 -0.4594 -0.5119
14763TIP3    H165780   1.884   3.976  14.376 -0.4793 -0.8121 -0.7803
14763TIP3    H265781   1.878   4.106  14.299 -0.9900  0.5078  1.4369
14764TIP3   OH265782   5.078   5.454   3.056 -0.1006  0.3414  0.3104
14764TIP3    H165783   5.046   5.454   3.146  0.1082  0.6764  0.3857
14764TIP3    H265784   5.001   5.431   3.003 -0.2444  0.2355  0.5640
14765TIP3   OH265785   0.890   3.000   1.559 -0.5061 -0.1988  0.0068
14765TIP3    H165786   0.853   3.003   1.647  2.1451 -1.6290  1.2142
14765TIP3    H265787   0.883   3.090   1.527 -1.8892  0.2446  1.4748
14766TIP3   OH265788   4.021   4.420   0.853  0.1395  0.0946  0.0355
14766TIP3    H165789   4.051   4.492   0.797  0.3972 -0.7427 -0.9212
14766TIP3    H265790   4.092   4.408   0.917 -0.6987  1.8587  1.3169
14767TIP3   OH265791   5.307   1.091   5.435 -0.1013  0.6954 -0.2938
14767TIP3    H165792   5.342   1.126   5.517  0.1665 -0.2909  0.0105
14767TIP3    H265793   5.382   1.052   5.391 -0.2853  1.0451 -0.9221
14768TIP3   OH265794   1.319   6.214   0.091  0.1213 -0.0013  0.4645
14768TIP3    H165795   1.284   6.241   0.006 -1.9071  0.1089  1.3140
14768TIP3    H265796   1.242   6.191   0.143  1.3174  0.2386  2.3894
14769TIP3   OH265797   1.688   3.557  15.920  0.0762 -0.4601 -0.2189
14769TIP3    H165798   1.598   3.526  15.918  0.6938 -2.4790  1.7141
14769TIP3    H265799   1.682   3.648  15.891 -2.7481 -0.2112  0.9751
14770TIP3   OH265800   0.012   0.104   3.681 -0.6765 -0.6460 -0.5738
14770TIP3    H165801   0.040   0.031   3.735 -0.0594  0.8671  1.2017
14770TIP3    H265802  -0.052   0.067   3.620  2.0454 -3.3197 -1.9132
14771TIP3   OH265803   1.011   5.401  15.807 -0.7943 -0.3089  0.2989
14771TIP3    H165804   0.937   5.342  15.799  0.4527 -1.8174 -0.5140
14771TIP3    H265805   1.073   5.354  15.864  0.1473  0.2722 -0.2318
14772TIP3   OH265806   2.941   5.467   1.092 -0.0808  0.4237 -0.4801
14772TIP3    H165807   2.934   5.383   1.048  0.2455  0.6889 -1.0398
14772TIP3    H265808   2.875   5.522   1.049  0.7343  0.8979 -1.1368
14773TIP3   OH265809   0.440   2.574   1.184  0.2781 -0.3513  0.0451
14773TIP3    H165810   0.495   2.576   1.106 -0.3829 -2.3939 -0.5089
14773TIP3    H265811   0.376   2.644   1.171  0.8159 -0.0038 -0.7561
14774TIP3   OH265812   4.455   6.725   5.059 -0.4047 -0.1095  0.7706
14774TIP3    H165813   4.483   6.655   5.001  1.9433  0.0477  1.6604
14774TIP3    H265814   4.431   6.797   5.000  0.7838 -0.3737 -0.0391
14775TIP3   OH265815   1.029   5.427  14.223 -0.2134 -0.5097  0.3438
14775TIP3    H165816   0.948   5.446  14.270 -1.1164 -0.0286 -1.3730
14775TIP3    H265817   1.086   5.501  14.242 -0.4989 -0.4141  0.8346
14776TIP3   OH265818   0.158   1.562   5.696  0.1406 -0.1447  0.5197
14776TIP3    H165819   0.192   1.495   5.636  0.4542 -1.4757  2.1432
14776TIP3    H265820   0.163   1.521   5.782 -2.8612  0.7300  1.1464
14777TIP3   OH265821   0.482   4.651  12.361  0.1625 -0.1132 -0.0002
14777TIP3    H165822   0.413   4.660  12.295 -1.8566  2.1417  2.2865
14777TIP3    H265823   0.538   4.727  12.348  0.9242 -0.7500 -0.4236
14778TIP3   OH265824   6.451   3.175   4.677  0.1310  0.5124  0.1722
14778TIP3    H165825   6.474   3.223   4.597 -2.6040  2.5763  0.5672
14778TIP3    H265826   6.497   3.221   4.747  0.7371  0.0632  0.0760
14779TIP3   OH265827   3.300   2.142  12.506 -0.0414 -0.0288 -0.4762
14779TIP3    H165828   3.303   2.136  12.601 -0.2112 -1.0126 -0.5315
14779TIP3    H265829   3.313   2.236  12.487 -0.3895  0.2227  0.5240
14780TIP3   OH265830   5.565   0.332   1.567  0.2849  0.0123  0.1533
14780TIP3    H165831   5.641   0.386   1.543 -0.6842  1.9868  1.3646
14780TIP3    H265832   5.497   0.395   1.589 -0.9499 -1.7240  1.4675
14781TIP3   OH265833   3.224   5.954  12.118 -0.0970  0.2901  0.0942
14781TIP3    H165834   3.187   5.888  12.176  0.2577  1.6511  1.9001
14781TIP3    H265835   3.163   6.028  12.124  0.7030  0.9710 -0.1692
14782TIP3   OH265836   1.307   5.981  13.133 -0.0740 -0.3291 -0.1733
14782TIP3    H165837   1.250   6.050  13.101  0.6809  0.5464  0.3572
14782TIP3    H265838   1.310   5.917  13.062 -1.1313 -0.0433 -0.4867
14783TIP3   OH265839   5.102   3.744  16.284  0.0365  0.3426  0.4613
14783TIP3    H165840   5.179   3.690  16.302 -0.9927 -0.6921  1.8389
14783TIP3    H265841   5.092   3.799  16.361 -1.1234 -0.1773  0.6959
14784TIP3   OH265842   3.135   4.640   6.238 -0.2087  0.6754 -0.1181
14784TIP3    H165843   3.044   4.671   6.248 -0.0857  0.8921  0.3380
14784TIP3    H265844   3.172   4.645   6.326  0.0431 -0.0659 -0.1793
14785TIP3   OH265845   3.780   2.889   2.296 -0.1150 -0.2508  0.2548
14785TIP3    H165846   3.695   2.931   2.289  0.4418  0.7461 -0.6472
14785TIP3    H265847   3.760   2.797   2.313 -1.3480  0.2417  1.5215
14786TIP3   OH265848   3.781   0.611   1.485  0.2018 -0.2582 -0.0719
14786TIP3    H165849   3.857   0.594   1.431  0.6330  0.8913  0.1534
14786TIP3    H265850   3.798   0.564   1.567  0.3312 -0.5930 -0.2917
14787TIP3   OH265851   6.078   4.752   3.201 -0.1741 -0.4081  0.4763
14787TIP3    H165852   6.162   4.706   3.203 -0.9291 -1.8854 -0.9066
14787TIP3    H265853   6.012   4.683   3.194 -1.4232  0.8061 -0.0708
14788TIP3   OH265854   0.474   5.443   2.859 -0.1354  0.6644 -0.6384
14788TIP3    H165855   0.509   5.402   2.938  0.1868 -0.3632 -1.3006
14788TIP3    H265856   0.520   5.527   2.852  0.3042  0.4652 -0.0980
14789TIP3   OH265857   5.188   6.535   1.132 -0.0502 -0.1705 -0.1313
14789TIP3    H165858   5.252   6.464   1.132 -0.4920 -0.5731 -0.7275
14789TIP3    H265859   5.220   6.595   1.064  0.7550  0.6068  0.9108
14790TIP3   OH265860   4.405   2.705   0.397  0.1937  0.4599 -0.1211
14790TIP3    H165861   4.476   2.695   0.460  1.0041 -0.4528 -1.1518
14790TIP3    H265862   4.434   2.777   0.340  0.8599 -0.6540 -1.2390
14791TIP3   OH265863   4.174   1.124   3.662 -0.0880 -0.2865  0.3377
14791TIP3    H165864   4.151   1.054   3.601 -1.4599  0.8762 -0.5051
14791TIP3    H265865   4.114   1.112   3.735 -0.0647 -0.2134  0.3681
14792TIP3   OH265866   5.606   0.768   3.362 -0.4386 -0.4422  0.6450
14792TIP3    H165867   5.696   0.796   3.348 -1.0399  0.8495 -0.8701
14792TIP3    H265868   5.585   0.715   3.285 -1.4878  0.6463  0.1645
14793TIP3   OH265869   0.049   4.871  11.258 -0.2589 -0.3343  0.2081
14793TIP3    H165870   0.099   4.790  11.244 -2.1106 -1.4605 -0.1139
14793TIP3    H265871  -0.002   4.882  11.178  2.4123  3.0258 -1.1563
14794TIP3   OH265872   5.083   5.480   3.612  0.0716 -0.2111 -0.4751
14794TIP3    H165873   5.080   5.436   3.697 -0.3428 -0.1091 -0.4369
14794TIP3    H265874   4.993   5.506   3.595 -0.0231 -1.0649 -1.3787
14795TIP3   OH265875   3.349   6.168  13.204 -0.5833  0.6232  0.8317
14795TIP3    H165876   3.389   6.096  13.252  1.1547  2.6769  2.5249
14795TIP3    H265877   3.273   6.193  13.256  0.9266  2.4120  2.2672
14796TIP3   OH265878   4.321   5.093  15.648  0.3902 -0.3558  0.5195
14796TIP3    H165879   4.265   5.034  15.699 -1.0695  0.7430  0.2346
14796TIP3    H265880   4.390   5.037  15.613 -1.0545 -1.9192  0.1427
14797TIP3   OH265881   1.854   5.060   3.652  0.3620  0.2158 -0.5803
14797TIP3    H165882   1.943   5.027   3.638  0.3790  0.7207 -1.7105
14797TIP3    H265883   1.802   4.981   3.673  0.3536 -0.6059 -3.4792
14798TIP3   OH265884   4.296   0.592  11.637  0.0206  0.1312  0.4839
14798TIP3    H165885   4.348   0.517  11.607 -1.5087 -0.0727 -1.7905
14798TIP3    H265886   4.359   0.650  11.679  1.9573 -0.4762 -1.5168
14799TIP3   OH265887   6.032   0.444  11.699 -0.5796 -0.6141 -0.4236
14799TIP3    H165888   5.980   0.400  11.632 -1.1837 -0.8392  0.1923
14799TIP3    H265889   5.968   0.485  11.757 -0.0379  0.3217 -0.4784
14800TIP3   OH265890   2.586   0.992   0.330  0.5985 -0.1202  0.1972
14800TIP3    H165891   2.579   1.046   0.409  0.5669 -2.7349  2.0331
14800TIP3    H265892   2.566   1.053   0.258 -1.5889  1.8339  2.3363
14801TIP3   OH265893   2.599   3.007  10.963  0.2434 -0.1768 -0.2357
14801TIP3    H165894   2.689   3.014  10.931  0.6603 -0.8596  0.7612
14801TIP3    H265895   2.546   3.003  10.884  1.2147 -1.3239 -0.8490
14802TIP3   OH265896   0.386   1.902   0.952 -0.0329  0.6897  0.2489
14802TIP3    H165897   0.301   1.866   0.926 -0.6174  0.7696  1.9519
14802TIP3    H265898   0.417   1.842   1.020  0.5102  1.5801  0.7980
14803TIP3   OH265899   2.471   3.357  15.027  0.8465  0.1059  0.1962
14803TIP3    H165900   2.395   3.407  14.996  1.2374 -0.6668 -2.1022
14803TIP3    H265901   2.514   3.415  15.090 -1.7179  0.4971  1.6620
14804TIP3   OH265902   1.663   1.824  11.633  0.1430  0.5945  0.2837
14804TIP3    H165903   1.683   1.809  11.726 -0.9052 -0.2397  0.3810
14804TIP3    H265904   1.663   1.736  11.594 -0.5880  0.8332 -0.2666
14805TIP3   OH265905   4.953   0.413  10.964 -0.5147 -0.4660  0.3050
14805TIP3    H165906   5.036   0.451  10.932 -0.2397 -1.8127 -0.6171
14805TIP3    H265907   4.980   0.346  11.026 -0.9685 -0.1118  0.8939
14806TIP3   OH265908   3.995   6.619   2.542 -0.5388 -0.2841 -0.2949
14806TIP3    H165909   4.021   6.629   2.633 -0.7643  2.2904 -0.4791
14806TIP3    H265910   3.941   6.540   2.541  2.0319 -2.1070  1.2042
14807TIP3   OH265911   0.131   0.678   3.880 -0.5523  0.1286 -0.1221
14807TIP3    H165912   0.083   0.758   3.900 -1.2738 -0.2418 -0.3357
14807TIP3    H265913   0.171   0.696   3.795  0.5407  0.8174  0.5330
14808TIP3   OH265914   4.630   4.777   5.957  0.0404  0.4717 -0.3435
14808TIP3    H165915   4.627   4.682   5.957  0.9283  0.3914  3.2357
14808TIP3    H265916   4.600   4.803   6.044 -2.0313  3.5623 -1.8838
14809TIP3   OH265917   4.058   4.435  11.031  0.1873  0.3979 -0.3716
14809TIP3    H165918   4.117   4.496  10.986  2.2343 -0.9276  0.5027
14809TIP3    H265919   3.972   4.454  10.993  1.2365  1.9767 -2.0442
14810TIP3   OH265920   6.321   5.051  16.406  0.5895 -0.1496  0.1297
14810TIP3    H165921   6.351   5.091  16.487 -0.8899 -0.5907  0.8979
14810TIP3    H265922   6.324   4.957  16.422  1.8932 -0.3105 -0.9084
14811TIP3   OH265923   2.962   0.936   0.255  0.1328  0.3313  0.2016
14811TIP3    H165924   2.991   0.998   0.321  0.0001 -0.0452  0.6116
14811TIP3    H265925   2.903   0.877   0.301  0.3134 -0.1449 -0.1750
14812TIP3   OH265926   3.977   4.103   0.751  0.0736 -0.2708 -0.6883
14812TIP3    H165927   4.004   4.126   0.662 -1.1864  0.2334 -0.9471
14812TIP3    H265928   3.924   4.177   0.780  1.5176  0.1562  0.9785
14813TIP3   OH265929   3.939   2.945   4.998  0.1328 -0.1940  0.3828
14813TIP3    H165930   4.022   2.901   4.982  0.9976  1.2247  0.8993
14813TIP3    H265931   3.881   2.877   5.032  1.4548 -0.9186  1.1951
14814TIP3   OH265932   6.599   5.378   1.789 -0.4950 -0.5720 -0.5125
14814TIP3    H165933   6.607   5.308   1.855  2.0606 -1.2217 -1.4601
14814TIP3    H265934   6.582   5.331   1.707 -1.6995  0.1236 -0.6728
14815TIP3   OH265935   3.452   3.981  14.723  1.3483  0.0077  0.4632
14815TIP3    H165936   3.512   4.028  14.666  0.9938 -1.2169 -0.9418
14815TIP3    H265937   3.385   4.046  14.746  0.0604 -0.1754 -2.6390
14816TIP3   OH265938   3.543   0.107   3.117 -0.2407 -0.3005 -0.2141
14816TIP3    H165939   3.621   0.162   3.129 -0.5649  0.4175 -1.3429
14816TIP3    H265940   3.560   0.058   3.037 -0.6066 -0.7376 -0.0275
14817TIP3   OH265941   2.698   1.982   2.689 -0.0395 -0.3193  0.0340
14817TIP3    H165942   2.768   1.967   2.752  0.7631 -2.3679 -1.2778
14817TIP3    H265943   2.618   1.978   2.740  0.7526  1.5286  1.4728
14818TIP3   OH265944   5.669   5.494  13.525  0.0169  0.2143  0.4557
14818TIP3    H165945   5.581   5.501  13.562 -0.1895  2.1951 -0.3440
14818TIP3    H265946   5.695   5.584  13.510  1.9868 -0.3874  0.1798
14819TIP3   OH265947   5.811   6.558   2.924 -0.4239  0.3047 -0.1678
14819TIP3    H165948   5.854   6.477   2.954 -0.0020  0.6746  0.2298
14819TIP3    H265949   5.748   6.528   2.858  1.0110 -0.1689 -1.3623
14820TIP3   OH265950   1.565   4.714   6.089 -0.4137  0.4051  0.2876
14820TIP3    H165951   1.524   4.627   6.095  1.5607 -0.5211  0.9819
14820TIP3    H265952   1.522   4.766   6.157 -1.3206 -0.1594  0.1517
14821TIP3   OH265953   1.516   5.299   1.718 -0.4217 -0.0331 -0.0536
14821TIP3    H165954   1.425   5.319   1.696 -0.5609 -0.3264  0.2388
14821TIP3    H265955   1.525   5.328   1.809 -0.1385  0.2606 -0.1745
14822TIP3   OH265956   1.594   4.830   4.435 -0.6793  0.7786 -0.0437
14822TIP3    H165957   1.665   4.782   4.391 -0.7009  0.5244  0.1964
14822TIP3    H265958   1.591   4.793   4.523 -1.2133  0.6755 -0.1013
14823TIP3   OH265959   4.245   3.438  12.641 -0.0002  0.0782 -0.5591
14823TIP3    H165960   4.335   3.427  12.673 -1.0069 -1.7257  1.8207
14823TIP3    H265961   4.216   3.521  12.679 -0.0461 -0.4128  0.5164
14824TIP3   OH265962   0.581   6.318   2.939 -0.1470  0.0506 -0.1653
14824TIP3    H165963   0.675   6.307   2.952  0.4257  4.0365 -0.2422
14824TIP3    H265964   0.572   6.349   2.849 -1.9665 -3.9719 -1.5080
14825TIP3   OH265965   3.116   1.468  13.168 -0.1819  0.4636 -0.3110
14825TIP3    H165966   3.163   1.513  13.238 -0.8055  0.2437  0.2581
14825TIP3    H265967   3.025   1.464  13.200 -0.4795  0.4297 -1.1614
14826TIP3   OH265968   4.960   1.197   3.001  0.2512  0.0089  0.6122
14826TIP3    H165969   4.932   1.229   3.087  1.4229  1.1926  0.5792
14826TIP3    H265970   5.019   1.124   3.020 -2.5393 -2.3111  0.6865
14827TIP3   OH265971   5.434   2.666   5.746 -0.1799  0.2665  0.1305
14827TIP3    H165972   5.432   2.624   5.659  0.6570  1.9054 -0.6996
14827TIP3    H265973   5.521   2.644   5.780 -0.4275 -0.1928  0.4663
14828TIP3   OH265974   1.932   1.243   1.942  0.6566  0.2079  0.4207
14828TIP3    H165975   1.983   1.163   1.948  0.1616 -0.1394  0.0231
14828TIP3    H265976   1.998   1.313   1.937  1.1361 -0.3820 -2.2936
14829TIP3   OH265977   6.362   4.181  11.839 -0.0182 -0.2705 -0.0283
14829TIP3    H165978   6.315   4.194  11.757 -0.8885  0.0583  0.5223
14829TIP3    H265979   6.421   4.107  11.822 -1.8546 -1.7102 -0.2405
14830TIP3   OH265980   3.239   1.996   4.010 -0.3005 -0.0871  0.1202
14830TIP3    H165981   3.274   2.082   3.986 -0.5728  0.2539  0.9017
14830TIP3    H265982   3.232   2.000   4.106  0.9045 -1.4434  0.2894
14831TIP3   OH265983   5.087   2.151   2.069 -0.5265 -1.0145  0.1531
14831TIP3    H165984   5.083   2.243   2.092 -2.3285 -0.6763 -1.3466
14831TIP3    H265985   5.143   2.111   2.136  2.1281  1.5285 -0.4956
14832TIP3   OH265986   0.593   1.742   1.613 -0.5731  0.3234  0.5817
14832TIP3    H165987   0.526   1.676   1.633  0.2184 -0.2964  1.2545
14832TIP3    H265988   0.617   1.779   1.698 -0.2664  0.7352  0.3191
14833TIP3   OH265989   2.363   0.604   0.820  0.1686  0.4481  0.1425
14833TIP3    H165990   2.394   0.587   0.910  1.2043 -1.7552 -0.5841
14833TIP3    H265991   2.436   0.576   0.765 -1.5287 -0.8391 -1.4877
14834TIP3   OH265992   0.167   3.650  15.424  0.4668  0.6910  0.1979
14834TIP3    H165993   0.161   3.574  15.367 -1.9813 -0.1884  1.5742
14834TIP3    H265994   0.095   3.640  15.486  1.0111  3.3624  1.3451
14835TIP3   OH265995   5.608   6.144   5.001 -0.1428 -1.0966  0.1926
14835TIP3    H165996   5.691   6.129   5.045  0.6955  0.5873 -0.7668
14835TIP3    H265997   5.606   6.079   4.930  0.5502 -0.8424 -0.0584
14836TIP3   OH265998   2.022   2.453   3.306 -0.4422 -0.5937 -0.4230
14836TIP3    H165999   2.075   2.486   3.233 -0.5647  0.4689 -0.0487
14836TIP3    H266000   2.020   2.359   3.293  0.9845 -0.5865 -0.8272
14837TIP3   OH266001   2.634   4.006  13.217 -0.2469  0.1800 -0.5433
14837TIP3    H166002   2.609   3.981  13.306  1.2524  0.1434 -0.1218
14837TIP3    H266003   2.717   3.961  13.202  1.5047  3.2778 -0.5334
14838TIP3   OH266004   0.867   3.116   2.716 -0.5805  0.4650  0.2556
14838TIP3    H166005   0.918   3.046   2.759 -0.9330 -0.2363 -0.4563
14838TIP3    H266006   0.922   3.193   2.723  0.2104 -0.0902  0.2630
14839TIP3   OH266007   2.526   2.768   4.783  0.2595 -0.1874  0.5651
14839TIP3    H166008   2.617   2.752   4.759  0.1085  1.1900 -1.0913
14839TIP3    H266009   2.512   2.861   4.761 -1.1744 -0.0505  1.9839
14840TIP3   OH266010   0.827   3.355   0.217  0.1645 -0.5153 -0.1694
14840TIP3    H166011   0.849   3.318   0.131 -0.3974 -0.1008 -0.4994
14840TIP3    H266012   0.791   3.441   0.196  0.7647 -0.0926  0.5420
14841TIP3   OH266013   2.131   1.806   3.350  0.0232  0.9891 -0.8095
14841TIP3    H166014   2.151   1.772   3.437  0.3549  1.2999 -0.7613
14841TIP3    H266015   2.207   1.860   3.327  0.1663  0.5022 -1.5004
14842TIP3   OH266016   3.632   4.522  13.807  0.3279 -0.1993  0.1463
14842TIP3    H166017   3.712   4.573  13.820  0.6495 -0.4927 -0.6324
14842TIP3    H266018   3.562   4.576  13.845  0.9445 -0.1051  1.1457
14843TIP3   OH266019   1.428   1.149  17.024  0.0668  0.3085  0.3110
14843TIP3    H166020   1.369   1.152  16.949  1.4118 -1.6405 -0.8871
14843TIP3    H266021   1.389   1.084  17.083  0.5053 -0.3074 -0.0641
14844TIP3   OH266022   0.717   3.037   3.375 -0.1419 -0.6451 -0.2017
14844TIP3    H166023   0.702   2.942   3.372 -2.2976 -0.2794 -2.0334
14844TIP3    H266024   0.658   3.069   3.442  0.3731 -0.5591  0.2121
14845TIP3   OH266025   1.568   5.561   6.548 -0.4669  0.6807  0.9078
14845TIP3    H166026   1.560   5.490   6.484  0.8876 -0.1940  1.6828
14845TIP3    H266027   1.530   5.526   6.628 -2.6270  1.9598  0.4751
14846TIP3   OH266028   3.593   2.282  11.428 -0.1030  0.3232  0.2301
14846TIP3    H166029   3.557   2.263  11.342  0.9920  0.3203 -0.2332
14846TIP3    H266030   3.516   2.303  11.482 -0.7144  1.3004 -0.9928
14847TIP3   OH266031   2.131   4.007  10.607 -0.6104  1.0051 -0.2824
14847TIP3    H166032   2.148   4.094  10.569  0.0977  1.0748  0.1764
14847TIP3    H266033   2.200   3.996  10.672 -0.8693  0.2108 -0.1404
14848TIP3   OH266034   3.631   0.383  13.747 -0.2266 -0.3238  0.3969
14848TIP3    H166035   3.716   0.428  13.747 -0.4304  0.1640 -2.5899
14848TIP3    H266036   3.567   0.453  13.737 -0.7566 -0.9489 -0.6907
14849TIP3   OH266037   2.427   1.140  14.896 -0.4106  0.0036 -0.2198
14849TIP3    H166038   2.507   1.182  14.928  1.3062 -3.3939  0.1362
14849TIP3    H266039   2.358   1.171  14.954  1.5281 -0.8882  2.6483
14850TIP3   OH266040   0.924   0.628   3.706 -0.0546  0.3666 -0.0700
14850TIP3    H166041   0.927   0.713   3.749  0.6266 -0.7484  2.1758
14850TIP3    H266042   1.000   0.580   3.740  0.1142 -0.8334 -1.9980
14851TIP3   OH266043   2.323   2.464  14.263 -0.4574  0.1469  0.2913
14851TIP3    H166044   2.324   2.369  14.254 -0.7557  0.3226 -1.9206
14851TIP3    H266045   2.257   2.481  14.329 -1.4159 -1.1185 -0.3218
14852TIP3   OH266046   1.684   3.386   0.577  0.3850 -0.2001  0.3011
14852TIP3    H166047   1.656   3.382   0.669  1.9880  0.2017  0.8275
14852TIP3    H266048   1.653   3.304   0.539  0.6040 -0.8535  1.4842
14853TIP3   OH266049   2.154   6.051  15.114  0.3673 -0.7680  0.0823
14853TIP3    H166050   2.067   6.066  15.076  0.3315  1.2715  0.9045
14853TIP3    H266051   2.215   6.067  15.042  0.1059 -1.2069 -0.2365
14854TIP3   OH266052   5.147   2.045   0.815  0.1623 -0.4230  0.2899
14854TIP3    H166053   5.089   1.970   0.804  0.6517 -0.9227  1.0687
14854TIP3    H266054   5.218   2.013   0.871 -0.0788  0.8540  1.3683
14855TIP3   OH266055   3.919   3.882  16.597  0.5171  0.1913  0.3605
14855TIP3    H166056   3.966   3.925  16.526  0.1630 -0.5607 -0.3376
14855TIP3    H266057   3.971   3.804  16.616 -0.5170 -0.7348 -0.5309
14856TIP3   OH266058   1.909   4.143  13.685 -0.1933  0.3469  0.6203
14856TIP3    H166059   1.915   4.047  13.680  1.5939  0.5395 -1.2926
14856TIP3    H266060   1.997   4.174  13.664 -1.2959  2.4796 -1.0585
14857TIP3   OH266061   0.924   6.716   6.336  0.1295  0.3176  0.5997
14857TIP3    H166062   0.952   6.751   6.252  0.0256  0.1667  0.5017
14857TIP3    H266063   1.004   6.706   6.387  0.0169  2.1486  1.1763
14858TIP3   OH266064   1.798   4.877  12.458 -0.5946  0.2777  0.5376
14858TIP3    H166065   1.814   4.954  12.403 -0.7731  0.7539  1.1553
14858TIP3    H266066   1.877   4.823  12.446  0.4062  1.4672  1.6361
14859TIP3   OH266067   0.419   3.509   4.856 -0.7236  0.4913  0.4135
14859TIP3    H166068   0.429   3.602   4.839 -1.5375  0.4728 -0.2211
14859TIP3    H266069   0.417   3.468   4.769  1.5908 -0.3468  0.7281
14860TIP3   OH266070   1.457   2.173  10.809  0.6282  0.2864 -0.0300
14860TIP3    H166071   1.522   2.220  10.859  1.0414  0.7387 -0.9804
14860TIP3    H266072   1.453   2.086  10.850  1.3444  0.4732  0.4360
14861TIP3   OH266073   2.935   1.354   5.252  0.4491 -0.1346 -0.5438
14861TIP3    H166074   2.914   1.263   5.228  1.6675 -0.2793 -1.0547
14861TIP3    H266075   2.852   1.400   5.240 -0.6548 -1.5117  1.4210
14862TIP3   OH266076   3.344   3.193   4.359  0.7830 -0.0092  0.4564
14862TIP3    H166077   3.380   3.281   4.347  1.3360 -0.2289  0.4418
14862TIP3    H266078   3.373   3.145   4.281 -1.3226  0.3669 -0.5696
14863TIP3   OH266079   2.115   3.761  16.999  0.4855 -0.0646 -0.2010
14863TIP3    H166080   2.142   3.790  16.912 -0.6996  1.1877 -0.1653
14863TIP3    H266081   2.144   3.831  17.058 -1.2165  0.4579  0.0486
14864TIP3   OH266082   1.312   2.152  12.174 -0.1531  0.6556  0.5306
14864TIP3    H166083   1.400   2.128  12.146 -0.3385  1.2008 -0.5150
14864TIP3    H266084   1.298   2.240  12.138 -1.2770  0.4088  0.3652
14865TIP3   OH266085   0.440   1.703   3.747 -0.6157 -0.1504  0.3228
14865TIP3    H166086   0.534   1.706   3.761 -0.5863 -1.7280  0.5164
14865TIP3    H266087   0.402   1.736   3.828 -0.2666 -1.4297  1.0169
14866TIP3   OH266088   4.412   2.882  16.931  0.2481  0.2579 -0.7525
14866TIP3    H166089   4.324   2.887  16.893  0.5103  1.2831 -1.2236
14866TIP3    H266090   4.470   2.916  16.863  1.1302 -1.3489 -0.8249
14867TIP3   OH266091   2.629   1.516   6.588  0.2121 -0.5510  0.0696
14867TIP3    H166092   2.699   1.472   6.636 -0.7659 -0.9717  1.1265
14867TIP3    H266093   2.590   1.447   6.534  1.5719  0.0083 -1.6559
14868TIP3   OH266094   0.956   4.812  14.761  0.5306 -0.0591 -0.1946
14868TIP3    H166095   0.932   4.841  14.849  3.8420 -1.2431  1.1682
14868TIP3    H266096   0.872   4.799  14.717 -1.2167  0.1604  2.8997
14869TIP3   OH266097   5.296   3.398  15.802 -0.6264 -0.0861  0.2349
14869TIP3    H166098   5.329   3.438  15.721 -0.3201  0.8085  0.7994
14869TIP3    H266099   5.212   3.359  15.777  0.2387 -1.2613 -0.9036
14870TIP3   OH266100   0.406   6.198  11.439  0.3078  0.1706  0.2191
14870TIP3    H166101   0.457   6.195  11.521 -0.2187  1.2957  0.5953
14870TIP3    H266102   0.334   6.137  11.454  0.9352 -0.6173  0.0881
14871TIP3   OH266103   1.927   4.341  10.839  0.1791 -0.3581 -0.4299
14871TIP3    H166104   1.884   4.357  10.755  0.6865  0.6423 -0.5062
14871TIP3    H266105   2.015   4.378  10.828  0.8169 -1.7086 -0.0207
14872TIP3   OH266106   4.508   4.496  16.644  0.1386  0.3099  0.2907
14872TIP3    H166107   4.529   4.466  16.732  1.4410 -0.2250 -0.2012
14872TIP3    H266108   4.558   4.577  16.634 -0.9539  1.0210  0.4755
14873TIP3   OH266109   2.656   4.716   6.486  0.2264 -0.2236  0.3040
14873TIP3    H166110   2.563   4.740   6.477  0.0167 -0.8765  0.7315
14873TIP3    H266111   2.657   4.651   6.556  1.1770  0.8180  1.2895
14874TIP3   OH266112   4.898   3.887  13.933 -0.2162  0.0178  0.2168
14874TIP3    H166113   4.948   3.953  13.884 -0.2127  0.7591  1.2100
14874TIP3    H266114   4.946   3.806  13.918  1.1493  0.6777  0.9420
14875TIP3   OH266115   5.538   3.636  14.577  0.0573 -0.2111 -0.4199
14875TIP3    H166116   5.541   3.542  14.595 -2.0321 -0.4841 -1.3104
14875TIP3    H266117   5.544   3.678  14.662  2.2507 -1.0918 -0.1011
14876TIP3   OH266118   5.902   1.109  15.364  0.6191 -0.1994 -0.1217
14876TIP3    H166119   5.918   1.107  15.270 -3.0379  1.5958 -0.8619
14876TIP3    H266120   5.936   1.194  15.393 -0.0740  0.0993 -0.1856
14877TIP3   OH266121   6.132   3.754   0.936  0.7355 -1.0081  0.7738
14877TIP3    H166122   6.094   3.769   1.023  1.2773 -2.3020  1.2547
14877TIP3    H266123   6.126   3.838   0.892  0.2935 -0.3800  2.0097
14878TIP3   OH266124   0.382   0.078   1.262 -0.4589  0.4515  0.3688
14878TIP3    H166125   0.464   0.087   1.311  0.0439  1.2218 -0.6189
14878TIP3    H266126   0.406   0.094   1.171 -1.3722 -1.0792 -0.1698
14879TIP3   OH266127   1.070   3.593  12.644 -0.0200  0.9790 -1.2642
14879TIP3    H166128   1.115   3.662  12.595 -0.5914  1.0479 -1.6935
14879TIP3    H266129   0.977   3.607  12.625 -0.0913 -0.3102 -1.8543
14880TIP3   OH266130   2.402   5.800  14.430 -0.4201  0.0229  0.1597
14880TIP3    H166131   2.493   5.807  14.457 -0.7807  0.8882  1.1930
14880TIP3    H266132   2.385   5.706  14.426  0.1107 -0.1392  1.3903
14881TIP3   OH266133   2.182   6.457   4.762 -0.0109  0.1947 -0.3562
14881TIP3    H166134   2.225   6.525   4.711 -2.9762  1.9138 -0.7009
14881TIP3    H266135   2.210   6.472   4.852 -1.5730  2.7085 -0.2426
14882TIP3   OH266136   2.870   5.839  12.297 -0.3632 -0.1226  0.0533
14882TIP3    H166137   2.950   5.807  12.338  0.9284 -0.1511 -2.4679
14882TIP3    H266138   2.875   5.810  12.206 -2.7313  0.7889 -0.4021
14883TIP3   OH266139   2.820   0.516  14.717  0.6255  0.0369 -0.4333
14883TIP3    H166140   2.894   0.531  14.658  0.8826  0.2820 -0.0507
14883TIP3    H266141   2.750   0.571  14.682  0.2552 -1.0659 -1.4716
14884TIP3   OH266142   5.493   1.814   2.017  0.1341  0.2768  0.0430
14884TIP3    H166143   5.576   1.768   2.016  0.7175  1.3079 -1.6183
14884TIP3    H266144   5.503   1.881   2.085  0.3080 -0.2196  0.5075
14885TIP3   OH266145   0.903   1.895  15.657 -0.6999  0.3051 -0.4174
14885TIP3    H166146   0.846   1.971  15.670 -0.7323  0.0358  1.0797
14885TIP3    H266147   0.990   1.926  15.683 -0.9062 -0.4751  1.2719
14886TIP3   OH266148   4.138   5.288   5.551  0.4734  0.3713  0.4005
14886TIP3    H166149   4.230   5.313   5.548  0.3588  0.7765  0.2383
14886TIP3    H266150   4.091   5.364   5.516 -0.0311  0.7668  1.8881
14887TIP3   OH266151   2.869   0.477  10.727  0.6886  0.3666 -0.8687
14887TIP3    H166152   2.780   0.446  10.710  0.6681  1.7672 -3.6451
14887TIP3    H266153   2.925   0.417  10.677  1.2346  0.2205 -0.0948
14888TIP3   OH266154   6.574   2.632  15.693  0.6145  0.1625  0.0898
14888TIP3    H166155   6.493   2.659  15.737  0.3078  1.0399 -0.9801
14888TIP3    H266156   6.548   2.615  15.603  1.0188 -2.7745  0.4807
14889TIP3   OH266157   4.285   2.397   0.442  0.2626  0.3974 -0.9476
14889TIP3    H166158   4.296   2.447   0.361 -1.3056 -0.8402 -1.9392
14889TIP3    H266159   4.325   2.453   0.509  0.1837  2.1552 -2.3144
14890TIP3   OH266160   3.466   1.683   6.100 -0.0214  0.4216  0.4257
14890TIP3    H166161   3.451   1.744   6.172  0.5440 -1.7024  2.3975
14890TIP3    H266162   3.522   1.730   6.039  1.5384  1.3953  2.5787
14891TIP3   OH266163   5.518   5.634   2.940 -0.2185  0.6633 -0.4744
14891TIP3    H166164   5.556   5.547   2.955 -0.2494  1.0133  1.7391
14891TIP3    H266165   5.428   5.616   2.912 -0.3880 -0.0207  0.4879
14892TIP3   OH266166   4.535   0.653  13.927 -0.2592  0.3027  0.1313
14892TIP3    H166167   4.488   0.615  14.001 -1.6441  1.3481 -0.2068
14892TIP3    H266168   4.471   0.708  13.882  1.0289  1.0434 -0.8584
14893TIP3   OH266169   6.086   1.347   5.004  0.1562 -0.1294  0.3865
14893TIP3    H166170   6.100   1.254   5.022  0.9797  0.3621  2.4728
14893TIP3    H266171   6.069   1.352   4.910  1.7638 -2.2003 -0.0457
14894TIP3   OH266172   3.976   3.055  14.258  0.1162  0.0956  0.2095
14894TIP3    H166173   4.071   3.043  14.256 -0.0508 -1.2134 -0.0046
14894TIP3    H266174   3.947   3.034  14.169 -0.4143  0.1481  0.3683
14895TIP3   OH266175   3.886   6.656  15.971 -0.0063  0.4785 -0.2848
14895TIP3    H166176   3.850   6.711  15.901 -0.8933 -1.3471 -1.2878
14895TIP3    H266177   3.953   6.711  16.012 -0.5434  2.1398 -1.5583
14896TIP3   OH266178   3.594   1.129  11.395 -0.3470  0.3110  0.3070
14896TIP3    H166179   3.558   1.066  11.333  0.7042 -2.2507  2.1794
14896TIP3    H266180   3.611   1.207  11.344  0.1860 -1.6055 -2.5466
14897TIP3   OH266181   2.829   6.664  16.145  0.2686 -0.0948 -0.0835
14897TIP3    H166182   2.833   6.701  16.234  1.9570  1.0627 -0.5993
14897TIP3    H266183   2.834   6.740  16.088 -2.8147 -0.6923 -1.2095
14898TIP3   OH266184   6.191   3.960   2.245 -0.6875  0.2094 -0.0518
14898TIP3    H166185   6.286   3.949   2.245 -0.9905 -3.1084  0.8134
14898TIP3    H266186   6.168   3.975   2.153  0.6558  1.1856 -0.2466
14899TIP3   OH266187   1.968   1.594   5.467  0.0335  0.1212 -0.7810
14899TIP3    H166188   2.019   1.624   5.541 -0.1422 -0.6818 -0.3253
14899TIP3    H266189   1.997   1.503   5.453  0.2209  0.3325 -1.8201
14900TIP3   OH266190   1.189   4.634   0.156  0.4146 -0.8893 -0.4011
14900TIP3    H166191   1.151   4.595   0.078 -0.6070 -0.4299 -0.1406
14900TIP3    H266192   1.128   4.703   0.181  1.3030 -0.2876  0.1545
14901TIP3   OH266193   6.723   0.216   6.480  0.0179  0.1058 -0.2437
14901TIP3    H166194   6.801   0.250   6.437  0.7174 -0.6177  0.4409
14901TIP3    H266195   6.756   0.162   6.552 -1.0588 -1.8555 -1.1655
14902TIP3   OH266196   5.004   4.782  16.463 -0.1861 -0.5659 -0.4383
14902TIP3    H166197   5.074   4.767  16.399  2.5456  1.8342  1.8448
14902TIP3    H266198   4.950   4.850  16.423  0.0260 -0.8802 -1.2695
14903TIP3   OH266199   3.858   6.135  11.312 -0.3243  0.0824 -0.6065
14903TIP3    H166200   3.824   6.158  11.225  0.6048 -0.4189 -1.1008
14903TIP3    H266201   3.797   6.177  11.373 -1.4899 -0.2941 -1.4958
14904TIP3   OH266202   3.858   1.932   2.492  0.2045 -0.0211  0.0222
14904TIP3    H166203   3.924   1.985   2.447  0.5945  0.1422  0.7826
14904TIP3    H266204   3.797   1.906   2.423  0.7084  0.3665 -0.5719
14905TIP3   OH266205   0.404   1.578  15.997 -0.4363  0.4211 -0.7137
14905TIP3    H166206   0.313   1.604  15.978  0.0669  0.9824 -2.4141
14905TIP3    H266207   0.457   1.649  15.961  0.7964 -1.0762 -1.8987
14906TIP3   OH266208   2.005   2.369  15.096 -0.0354 -0.4242 -0.2639
14906TIP3    H166209   2.057   2.350  15.175  0.5658 -0.4909 -0.6747
14906TIP3    H266210   1.945   2.438  15.123 -1.5280 -2.1641  0.9721
14907TIP3   OH266211   4.434   6.220  11.551  0.2191  0.1715  0.1231
14907TIP3    H166212   4.525   6.250  11.547 -0.1452  1.1248 -1.5284
14907TIP3    H266213   4.440   6.125  11.551  1.1993  0.2215 -0.8465
14908TIP3   OH266214   1.232   6.280   4.361  0.3172  0.2843 -1.1760
14908TIP3    H166215   1.296   6.230   4.310  3.1764  0.2299  2.2286
14908TIP3    H266216   1.248   6.371   4.336 -0.0809  0.0701 -2.2387
14909TIP3   OH266217   2.926   6.152  14.536 -0.0905  0.3265 -0.5259
14909TIP3    H166218   2.983   6.226  14.559  0.8735 -0.3097 -0.8601
14909TIP3    H266219   2.907   6.165  14.443  0.4134 -0.0676 -0.6856
14910TIP3   OH266220   3.281   6.631   6.093 -0.2639 -0.6550 -0.0104
14910TIP3    H166221   3.328   6.549   6.080  0.3412 -0.4924  1.0496
14910TIP3    H266222   3.212   6.610   6.155  0.5056 -0.1525  1.0294
14911TIP3   OH266223   3.105   2.467  14.834  0.0836  0.0056  0.3329
14911TIP3    H166224   3.183   2.473  14.779 -0.2088  0.2394 -0.0606
14911TIP3    H266225   3.036   2.435  14.776 -0.7615  2.3094  0.0107
14912TIP3   OH266226   0.481   0.464   3.683  0.3568  0.1068  0.0403
14912TIP3    H166227   0.390   0.491   3.669  0.9959  2.5960  0.3655
14912TIP3    H266228   0.508   0.424   3.601 -1.4918 -2.1060  0.4613
14913TIP3   OH266229   6.811   2.805  11.041  0.8942 -0.4430  0.1558
14913TIP3    H166230   6.896   2.784  11.003  0.7861  0.4383 -0.6014
14913TIP3    H266231   6.784   2.886  10.997 -0.0285 -0.3451  0.8678
14914TIP3   OH266232   0.891   4.968   3.207 -0.0671 -0.1377  0.1418
14914TIP3    H166233   0.880   4.902   3.139  2.1194  0.5307 -0.9294
14914TIP3    H266234   0.807   4.971   3.253 -1.2382 -1.3240 -1.8819
14915TIP3   OH266235   5.208   3.512   5.452 -0.4715  0.8362 -0.1366
14915TIP3    H166236   5.150   3.493   5.379  0.5571  1.9850 -1.2802
14915TIP3    H266237   5.215   3.608   5.453  1.4176  0.7244 -0.0356
14916TIP3   OH266238   2.229   5.871  16.885  0.4669  0.1071 -0.9385
14916TIP3    H166239   2.255   5.911  16.968 -1.4792 -1.2998  0.4014
14916TIP3    H266240   2.311   5.850  16.841  1.5026  3.0788 -0.4587
14917TIP3   OH266241   3.693   5.718   4.704  0.1628 -0.6236 -0.2103
14917TIP3    H166242   3.694   5.733   4.609 -0.6349 -1.1196 -0.3040
14917TIP3    H266243   3.614   5.762   4.735  0.3189 -0.6255  0.1945
14918TIP3   OH266244   2.733   6.034   3.721  0.5886  0.8254  0.0791
14918TIP3    H166245   2.805   6.010   3.779  0.2056 -0.3700  0.0824
14918TIP3    H266246   2.759   6.000   3.635 -0.2571 -0.2199  0.2158
14919TIP3   OH266247   4.766   6.560   5.321  0.7888 -0.2119 -0.1475
14919TIP3    H166248   4.746   6.485   5.377  2.5248 -1.6086 -1.3346
14919TIP3    H266249   4.709   6.549   5.245  2.0754 -1.1864 -1.0039
14920TIP3   OH266250   3.205   2.787   5.132 -0.1275  0.3710 -0.2026
14920TIP3    H166251   3.124   2.826   5.101 -0.8240 -1.1234 -0.3032
14920TIP3    H266252   3.198   2.694   5.109  0.4254 -0.2941  2.1775
14921TIP3   OH266253   3.422   2.238  16.262 -0.1195  0.1402 -0.1630
14921TIP3    H166254   3.448   2.281  16.181  0.5583 -1.1749 -0.6726
14921TIP3    H266255   3.502   2.195  16.292  0.0838  2.0545  2.1520
14922TIP3   OH266256   3.522   4.447  13.290 -0.1486 -0.4214  0.3278
14922TIP3    H166257   3.571   4.411  13.363 -1.0289 -1.0587  0.6102
14922TIP3    H266258   3.563   4.533  13.273 -1.0188  0.4842  2.6488
14923TIP3   OH266259   0.859   5.761  10.322 -0.0938  0.0142  0.8247
14923TIP3    H166260   0.928   5.827  10.333  0.0410 -0.0588  0.4579
14923TIP3    H266261   0.777   5.811  10.327 -0.0972 -0.2097  3.4199
14924TIP3   OH266262   6.527   3.570  11.398 -0.3045 -0.1162 -0.0415
14924TIP3    H166263   6.454   3.631  11.391 -0.7079 -0.4390  1.1831
14924TIP3    H266264   6.509   3.519  11.477  1.2615 -0.1691  0.3122
14925TIP3   OH266265   3.589   3.784  15.494 -0.0629  0.3975 -0.0165
14925TIP3    H166266   3.522   3.837  15.538  0.1970  0.7187  0.0008
14925TIP3    H266267   3.594   3.704  15.546  0.7109  1.0566  0.9514
14926TIP3   OH266268   3.732   3.576  13.108 -0.2080  0.2728 -0.0989
14926TIP3    H166269   3.656   3.518  13.117  0.7569 -0.9554  0.2700
14926TIP3    H266270   3.744   3.613  13.196 -0.8128  1.0476 -0.3312
14927TIP3   OH266271   5.201   1.941   0.270  0.0951 -0.0342 -0.5450
14927TIP3    H166272   5.249   1.858   0.268 -0.8453 -0.5960  0.0072
14927TIP3    H266273   5.249   1.997   0.210  1.2848 -0.6827 -0.2248
14928TIP3   OH266274   2.420   3.445  15.497 -0.3397  0.5638 -0.0517
14928TIP3    H166275   2.386   3.402  15.575 -0.9547  0.9743 -0.0846
14928TIP3    H266276   2.514   3.426  15.498 -0.4865 -0.1610  0.3152
14929TIP3   OH266277   5.797   1.816   0.582  0.6440 -0.4034 -0.2455
14929TIP3    H166278   5.871   1.872   0.557  0.4798  0.1068  0.3860
14929TIP3    H266279   5.836   1.748   0.637  0.7045 -0.3557 -0.2288
14930TIP3   OH266280   3.893   0.620   6.074 -0.2031  0.3124 -0.1678
14930TIP3    H166281   3.954   0.673   6.126  2.6351 -1.3322 -1.6929
14930TIP3    H266282   3.919   0.530   6.091 -3.9765 -0.6307  1.1823
14931TIP3   OH266283   2.892   2.201  14.758  0.1289 -0.1573 -0.5714
14931TIP3    H166284   2.933   2.174  14.840 -0.9520  1.7063  0.6279
14931TIP3    H266285   2.798   2.196  14.775 -0.1118  1.7021 -1.1701
14932TIP3   OH266286   0.284   0.613   1.598 -0.0952 -0.0602 -0.3480
14932TIP3    H166287   0.375   0.602   1.572 -0.3698  0.5183 -1.5448
14932TIP3    H266288   0.261   0.529   1.639  0.2517 -1.0844 -2.1959
14933TIP3   OH266289   5.931   1.612  17.284  0.3894 -0.4149  0.0931
14933TIP3    H166290   5.988   1.545  17.321 -1.3961 -1.4078  1.0328
14933TIP3    H266291   5.926   1.680  17.351  1.0355  0.0361 -0.2964
14934TIP3   OH266292   4.010   4.612   2.866  0.6781  0.1027 -0.3749
14934TIP3    H166293   3.931   4.599   2.812  1.5397 -0.0168 -1.6233
14934TIP3    H266294   4.032   4.704   2.856  0.6780  0.1469  0.0110
14935TIP3   OH266295   4.773   4.242  11.194 -0.2709  0.1390 -0.1403
14935TIP3    H166296   4.692   4.282  11.227 -0.1971  0.0928  0.0968
14935TIP3    H266297   4.776   4.267  11.101 -0.5497  0.1499 -0.1451
14936TIP3   OH266298   5.696   5.307  10.931  0.2709  0.3327 -0.1343
14936TIP3    H166299   5.670   5.228  10.883 -1.0582  0.8276 -0.2573
14936TIP3    H266300   5.701   5.375  10.863 -0.9331  0.8778  0.3071
14937TIP3   OH266301   1.150   2.027   3.820 -0.4455  0.2718  0.0789
14937TIP3    H166302   1.076   2.083   3.845 -0.6710  0.6754 -1.4452
14937TIP3    H266303   1.109   1.945   3.792 -0.2138 -0.0798  0.7717
14938TIP3   OH266304   1.390   5.683  12.441  0.4638 -0.7722  0.1970
14938TIP3    H166305   1.306   5.679  12.394  0.6486 -0.6535 -0.1431
14938TIP3    H266306   1.415   5.592  12.453 -0.5818 -0.8651  1.8548
14939TIP3   OH266307   0.642   5.714  16.205 -0.3515  0.1213  1.0047
14939TIP3    H166308   0.568   5.703  16.265  0.7305 -0.4445  2.2629
14939TIP3    H266309   0.693   5.785  16.243  0.0141  0.1831  0.4066
14940TIP3   OH266310   0.194   2.567   3.893  0.1428 -0.5567  0.2852
14940TIP3    H166311   0.231   2.549   3.979 -0.0597 -1.3935  0.2036
14940TIP3    H266312   0.198   2.483   3.847  0.0858 -0.1583 -0.4574
14941TIP3   OH266313   0.721   5.740   5.489 -0.0442  0.2343  0.0576
14941TIP3    H166314   0.641   5.737   5.436 -0.3548 -0.6665  0.5444
14941TIP3    H266315   0.747   5.832   5.489 -0.7168  0.4314 -0.6518
14942TIP3   OH266316   6.313   5.243   2.317  0.4115 -0.4082  0.1828
14942TIP3    H166317   6.290   5.245   2.409  1.7403  1.0140  0.5040
14942TIP3    H266318   6.317   5.336   2.291 -0.8398 -0.8166 -1.5196
14943TIP3   OH266319   3.094   6.670  14.558  0.1255 -0.5493  0.0776
14943TIP3    H166320   3.151   6.690  14.632 -0.3369  0.4529  0.1623
14943TIP3    H266321   3.072   6.577  14.569 -0.0443 -0.3665  1.2652
14944TIP3   OH266322   1.470   2.047   1.514  0.6054 -0.0737  0.8275
14944TIP3    H166323   1.411   2.048   1.589 -0.0815 -0.0599  0.2833
14944TIP3    H266324   1.492   2.138   1.499  2.0714 -0.2051  2.0566
14945TIP3   OH266325   6.293   6.318   3.733  0.0608  0.2828 -0.4744
14945TIP3    H166326   6.318   6.226   3.731  0.2712  0.3245  0.1723
14945TIP3    H266327   6.373   6.365   3.756 -0.1074  0.6039 -0.5427
14946TIP3   OH266328   5.899   0.673   4.789  0.5753 -0.1306 -0.2211
14946TIP3    H166329   5.812   0.712   4.786  1.4301  1.9042  0.8360
14946TIP3    H266330   5.922   0.671   4.881  2.3821  1.0283 -0.6181
14947TIP3   OH266331   0.702   2.488   5.817  0.1013  0.3129  0.5241
14947TIP3    H166332   0.721   2.425   5.886  0.5732  0.6879  0.7378
14947TIP3    H266333   0.628   2.539   5.849 -1.1799 -1.0220 -0.2245
14948TIP3   OH266334   3.467   5.674  13.456 -0.2247 -0.1953  0.5906
14948TIP3    H166335   3.543   5.632  13.415  1.0093  1.4860  1.0860
14948TIP3    H266336   3.432   5.732  13.387 -1.1221 -1.0293  0.3355
14949TIP3   OH266337   1.577   0.793   0.499 -0.7272 -0.4821  0.3029
14949TIP3    H166338   1.579   0.831   0.411  1.3351 -0.6418  0.2364
14949TIP3    H266339   1.603   0.865   0.557 -1.1614 -0.6193  0.6691
14950TIP3   OH266340   1.177   1.769   3.552  1.0816 -0.7539  0.2196
14950TIP3    H166341   1.089   1.781   3.589  0.7113  3.0380 -1.5753
14950TIP3    H266342   1.189   1.675   3.550 -2.9995 -1.4005  0.4431
14951TIP3   OH266343   3.115   3.997   4.902  0.5065  0.2006 -0.2231
14951TIP3    H166344   3.125   3.908   4.935 -2.4523 -0.0774  0.0441
14951TIP3    H266345   3.133   3.990   4.809 -0.0322 -0.7529 -0.2673
14952TIP3   OH266346   1.626   2.657   0.455  0.2528 -0.3341 -0.6096
14952TIP3    H166347   1.631   2.580   0.511 -1.8495  1.1537  1.7671
14952TIP3    H266348   1.679   2.723   0.500  0.6538  0.1291 -1.7373
14953TIP3   OH266349   1.067   4.114   0.130  0.0506 -0.0431  0.6475
14953TIP3    H166350   1.033   4.190   0.177 -0.2025  0.2311  0.0247
14953TIP3    H266351   1.058   4.042   0.192  0.5380  0.4807  1.3311
14954TIP3   OH266352   6.344   2.436  14.821 -0.0089  0.3856 -0.0176
14954TIP3    H166353   6.268   2.384  14.846  1.0535 -0.9039  0.5910
14954TIP3    H266354   6.313   2.526  14.822 -1.2878 -0.0513  1.1425
14955TIP3   OH266355   6.422   2.796  14.645 -0.2599  0.0294  0.1768
14955TIP3    H166356   6.412   2.891  14.637 -2.2053 -0.0710  1.0763
14955TIP3    H266357   6.333   2.762  14.630  0.2913 -1.5978  0.5264
14956TIP3   OH266358   6.377   5.014  15.263 -0.4914  0.2437  0.6086
14956TIP3    H166359   6.289   5.050  15.263 -0.8977 -0.7251  1.2620
14956TIP3    H266360   6.375   4.944  15.199  0.1341  0.9880 -0.2381
14957TIP3   OH266361   3.237   6.370   3.787 -0.2361 -0.1104  0.0062
14957TIP3    H166362   3.222   6.279   3.762 -0.1575  0.3481 -1.7293
14957TIP3    H266363   3.200   6.422   3.716  0.6797  1.2035  0.4544
14958TIP3   OH266364   4.647   0.736  16.721  0.3286  0.3040  0.1554
14958TIP3    H166365   4.620   0.799  16.654 -0.3463 -0.6826 -0.5172
14958TIP3    H266366   4.649   0.652  16.675  2.5579  0.0263  0.6966
14959TIP3   OH266367   5.785   4.218  15.955  0.4265 -0.0871  0.1209
14959TIP3    H166368   5.856   4.182  15.902 -0.6494  0.3670 -1.6553
14959TIP3    H266369   5.774   4.307  15.924 -1.7579 -0.5409 -0.5155
14960TIP3   OH266370   4.237   4.875   3.407 -0.0036 -0.2991 -0.2069
14960TIP3    H166371   4.159   4.820   3.420 -0.8219  1.1863  1.3230
14960TIP3    H266372   4.220   4.922   3.326 -0.3823 -0.5042 -0.2497
14961TIP3   OH266373   0.614   5.457  13.759 -0.0666  0.1826  0.2477
14961TIP3    H166374   0.609   5.368  13.725  0.3284  0.8803 -1.6759
14961TIP3    H266375   0.705   5.467  13.787 -0.1580 -0.0751  0.6431
14962TIP3   OH266376   1.853   1.281   1.495 -0.0693  0.0844  0.6090
14962TIP3    H166377   1.913   1.250   1.563 -0.8016 -2.3854  0.1770
14962TIP3    H266378   1.906   1.343   1.443  0.7070  1.4181  2.9313
14963TIP3   OH266379   4.635   2.309   1.479 -0.1265 -0.0657 -0.2049
14963TIP3    H166380   4.621   2.390   1.429  0.1330  0.8015  1.1098
14963TIP3    H266381   4.693   2.256   1.424  1.1869  1.4052 -0.2673
14964TIP3   OH266382   0.787   0.611  14.588 -0.0603  0.1608  0.3196
14964TIP3    H166383   0.714   0.651  14.636 -0.5085  0.5597 -0.6780
14964TIP3    H266384   0.814   0.537  14.643 -1.7909 -0.5235  0.2926
14965TIP3   OH266385   1.357   5.577   4.674 -0.2108 -0.0426  0.5113
14965TIP3    H166386   1.378   5.485   4.689 -0.7057 -0.2260  0.0761
14965TIP3    H266387   1.404   5.624   4.743  2.0861 -0.3943 -0.7821
14966TIP3   OH266388   1.270   3.907  12.311  0.3099  0.8456  0.8040
14966TIP3    H166389   1.284   3.997  12.280 -2.2835  1.5103  1.4560
14966TIP3    H266390   1.230   3.863  12.236 -0.8451  0.9525  1.3552
14967TIP3   OH266391   0.961   6.388  16.718  0.1617 -0.7945  0.1621
14967TIP3    H166392   0.998   6.331  16.650 -1.3794 -1.7016  0.0658
14967TIP3    H266393   0.949   6.473  16.674  2.1435 -0.4590  0.2088
14968TIP3   OH266394   5.252   4.914  12.013 -0.0277  0.4857 -0.3427
14968TIP3    H166395   5.336   4.955  12.034  0.9017 -0.4152 -2.2911
14968TIP3    H266396   5.228   4.952  11.929 -1.2546  0.2062 -0.1212
14969TIP3   OH266397   2.530   5.217   5.387  0.1282 -0.3364 -0.1227
14969TIP3    H166398   2.568   5.140   5.343  1.8252 -0.0192  0.7551
14969TIP3    H266399   2.438   5.194   5.400  0.4600 -1.9445 -0.4885
14970TIP3   OH266400   6.531   3.474   3.837 -0.1625 -0.1575 -0.2482
14970TIP3    H166401   6.624   3.484   3.814 -0.1625  1.0603  0.2176
14970TIP3    H266402   6.502   3.398   3.786  1.4213 -1.3857  0.6250
14971TIP3   OH266403   2.024   2.706  16.843 -0.4428 -0.6072  0.2655
14971TIP3    H166404   2.015   2.792  16.882  0.0291 -0.0474 -0.8269
14971TIP3    H266405   1.974   2.711  16.761  0.6080 -0.9523 -0.4173
14972TIP3   OH266406   6.714   3.679  13.623 -0.1978 -0.0360  0.0247
14972TIP3    H166407   6.644   3.685  13.558 -0.9236  0.2390  0.8212
14972TIP3    H266408   6.764   3.602  13.597 -0.4379  0.1067 -0.9008
14973TIP3   OH266409   3.196   4.371   4.843  0.3627 -0.1561 -0.6105
14973TIP3    H166410   3.250   4.449   4.834 -0.2255  0.5742  1.8568
14973TIP3    H266411   3.143   4.369   4.763  0.9335  1.5223 -1.0525
14974TIP3   OH266412   0.205   3.432   1.085  0.0144  0.1954 -0.5699
14974TIP3    H166413   0.124   3.473   1.056  0.5810  0.7174 -1.4355
14974TIP3    H266414   0.212   3.352   1.034  0.2974  0.4051 -0.8634
14975TIP3   OH266415   3.902   1.907   1.114  0.1905  0.2209  0.1246
14975TIP3    H166416   3.921   1.972   1.181  0.1023  1.5064 -1.0727
14975TIP3    H266417   3.811   1.881   1.131  0.4488 -0.1172  1.0265
14976TIP3   OH266418   0.042   4.547  12.509 -0.2589  0.7930  0.3064
14976TIP3    H166419  -0.037   4.567  12.559 -0.3268  1.7607 -0.1795
14976TIP3    H266420   0.035   4.602  12.431  1.1197  1.2136  0.4808
14977TIP3   OH266421   6.068   6.797   3.771  0.2312 -0.0502  0.0059
14977TIP3    H166422   6.070   6.715   3.722  0.3132 -0.8464  1.3371
14977TIP3    H266423   6.120   6.781   3.849 -1.2305  0.6846  1.1644
14978TIP3   OH266424   3.919   1.321   2.967  0.2085 -0.1006 -0.0565
14978TIP3    H166425   3.945   1.405   2.930 -0.1024 -0.1913 -0.4809
14978TIP3    H266426   3.946   1.257   2.901 -1.3725 -0.1735 -0.6547
14979TIP3   OH266427   6.572   2.444  16.261 -0.8968 -0.4276  0.1296
14979TIP3    H166428   6.506   2.513  16.262 -1.5851 -1.0635 -0.9995
14979TIP3    H266429   6.522   2.363  16.260 -0.1175 -0.9033 -1.6617
14980TIP3   OH266430   6.188   0.336   0.114 -0.3018  0.1376  0.1347
14980TIP3    H166431   6.154   0.247   0.114 -0.0077  0.0274  0.4693
14980TIP3    H266432   6.148   0.377   0.036  0.9303 -0.8045 -1.0133
14981TIP3   OH266433   3.492   6.352   3.474 -0.2423  0.4999 -0.1244
14981TIP3    H166434   3.540   6.433   3.455  0.8819  0.1198  1.0108
14981TIP3    H266435   3.472   6.358   3.568  1.2404 -1.2392  0.3381
14982TIP3   OH266436   3.903   5.584  15.012  0.2274 -0.2946 -0.3610
14982TIP3    H166437   3.934   5.563  15.100  2.0570 -0.3795 -1.0136
14982TIP3    H266438   3.854   5.506  14.984 -2.3687  0.6079  1.4420
14983TIP3   OH266439   2.618   4.096   2.758 -0.4275 -0.6813 -0.7522
14983TIP3    H166440   2.526   4.069   2.759  0.0533 -2.3274  1.4381
14983TIP3    H266441   2.667   4.015   2.748  0.8085  0.2529 -2.5228
14984TIP3   OH266442   3.372   3.630  14.084  0.1875  0.9139 -0.5060
14984TIP3    H166443   3.338   3.715  14.056 -1.9925  0.3467  0.3012
14984TIP3    H266444   3.297   3.587  14.124  1.6410 -0.8226  0.4031
14985TIP3   OH266445   4.210   0.844   2.230 -0.0326 -0.2997 -0.0984
14985TIP3    H166446   4.223   0.756   2.266  1.1155 -0.1443 -0.1249
14985TIP3    H266447   4.295   0.869   2.194 -1.1016 -0.3716 -2.7985
14986TIP3   OH266448   1.101   4.372  10.877  0.1226 -0.5871 -0.3720
14986TIP3    H166449   1.058   4.403  10.798  2.1690  0.4123 -1.1382
14986TIP3    H266450   1.193   4.360  10.852  0.9061  0.1520  1.9266
14987TIP3   OH266451   1.039   5.511   0.769 -0.0716  0.6180 -0.6293
14987TIP3    H166452   0.983   5.434   0.765 -0.3494  0.8149 -0.5329
14987TIP3    H266453   1.123   5.482   0.732  0.1060  0.0218  0.2204
14988TIP3   OH266454   1.665   1.993  14.565  0.4431  0.3959  0.0368
14988TIP3    H166455   1.628   1.961  14.482 -0.7506 -0.1559  0.7624
14988TIP3    H266456   1.700   2.079  14.544  1.0261 -0.1420 -1.2696
14989TIP3   OH266457   0.834   4.774   2.135 -0.2604 -0.0636 -0.2367
14989TIP3    H166458   0.751   4.810   2.105  0.0070 -0.8886 -2.0056
14989TIP3    H266459   0.813   4.685   2.163  0.2822 -0.8414 -2.1941
14990TIP3   OH266460   5.601   0.866  12.299  0.6113  0.5495  0.0643
14990TIP3    H166461   5.591   0.771  12.289  1.1224  0.3199  1.6160
14990TIP3    H266462   5.592   0.900  12.210  0.3839 -0.9498 -0.5071
14991TIP3   OH266463   3.172   0.148  13.308 -0.0476 -0.0453  0.0943
14991TIP3    H166464   3.267   0.142  13.301 -0.0557  0.0873 -0.1520
14991TIP3    H266465   3.141   0.057  13.297 -0.0205  0.0763 -1.0979
14992TIP3   OH266466   0.704   3.080  13.067 -0.1674 -0.4540 -0.2056
14992TIP3    H166467   0.639   3.064  13.136  1.4685  0.3437  1.5389
14992TIP3    H266468   0.725   2.993  13.034 -1.7150 -0.7631 -0.4060
14993TIP3   OH266469   3.303   0.807  16.441  0.5418 -0.1725  0.0055
14993TIP3    H166470   3.359   0.752  16.496  0.4422 -1.0688 -0.7743
14993TIP3    H266471   3.226   0.824  16.495  0.6363 -0.6898  0.3125
14994TIP3   OH266472   4.593   5.631   0.150 -0.2670  0.0188 -0.2351
14994TIP3    H166473   4.571   5.650   0.242  0.6947 -0.4676  0.1094
14994TIP3    H266474   4.684   5.661   0.141 -0.0672 -0.7315 -0.7892
14995TIP3   OH266475   1.961   3.763   3.727  0.0100  0.4250  0.2758
14995TIP3    H166476   1.881   3.805   3.697  0.9724  1.2329 -1.1994
14995TIP3    H266477   1.933   3.676   3.757 -1.7086  1.4021  1.6432
14996TIP3   OH266478   4.494   4.097   5.837 -0.0518  0.0682  0.0308
14996TIP3    H166479   4.443   4.161   5.786 -0.0504  1.1406  1.3448
14996TIP3    H266480   4.436   4.073   5.909  1.0131  0.7601  1.1426
14997TIP3   OH266481   6.102   3.542  15.604 -0.5416  0.2028  0.1462
14997TIP3    H166482   6.080   3.453  15.579 -1.2388  0.2327  0.6487
14997TIP3    H266483   6.130   3.536  15.695  1.8858  0.1111 -0.5735
14998TIP3   OH266484   3.496   6.112  12.661 -0.1783  0.2386 -0.1593
14998TIP3    H166485   3.581   6.146  12.689  1.0479 -0.4666 -2.8196
14998TIP3    H266486   3.475   6.042  12.724  1.6489 -0.1931 -0.0160
14999TIP3   OH266487   4.865   6.121  11.741  0.1709 -0.2576 -0.1822
14999TIP3    H166488   4.948   6.120  11.694  0.5756  2.4225  0.3652
14999TIP3    H266489   4.805   6.167  11.682 -0.1665  0.2983  0.5773
15000TIP3   OH266490   2.486   2.597   2.189 -0.0761  0.0284 -0.1185
15000TIP3    H166491   2.530   2.516   2.216 -1.2064 -0.5100  0.1158
15000TIP3    H266492   2.464   2.640   2.271 -2.3069 -0.9611 -0.1682
15001TIP3   OH266493   5.257   4.042  16.493 -0.0468  0.2190  0.2558
15001TIP3    H166494   5.249   4.132  16.461  0.3572  0.1112 -0.1550
15001TIP3    H266495   5.342   4.012  16.461  1.0518  0.6075  2.7255
15002TIP3   OH266496   2.769   1.267  13.742  0.2404 -0.1897  0.2135
15002TIP3    H166497   2.815   1.340  13.701 -0.7509 -0.9454 -2.3864
15002TIP3    H266498   2.838   1.212  13.779  1.1725  0.6428 -0.2760
15003TIP3   OH266499   0.707   3.506   0.843  0.3228 -0.3136 -0.1246
15003TIP3    H166500   0.678   3.581   0.792 -1.3524 -0.6558  0.2588
15003TIP3    H266501   0.772   3.541   0.903 -0.2398  0.7895 -0.1376
15004TIP3   OH266502   5.916   3.251   0.725 -0.6727 -0.4010  0.4350
15004TIP3    H166503   5.997   3.234   0.677 -0.5864  0.0325  0.4208
15004TIP3    H266504   5.871   3.317   0.673 -1.3422 -1.1056  0.1042
15005TIP3   OH266505   4.577   4.201   2.673 -0.1787 -0.2651 -0.4118
15005TIP3    H166506   4.495   4.152   2.666  0.5514 -1.4500 -0.6609
15005TIP3    H266507   4.621   4.188   2.589  1.1345 -1.1831  0.4078
15006TIP3   OH266508   2.902   2.497   0.719 -0.0773 -0.0358  0.5278
15006TIP3    H166509   2.903   2.580   0.671 -1.0377  0.0370  0.6130
15006TIP3    H266510   2.875   2.432   0.653  0.9836 -0.3387  0.3817
15007TIP3   OH266511   0.618   4.785   5.981 -0.1689  0.5882  0.2553
15007TIP3    H166512   0.537   4.764   6.028 -0.2116 -0.6101 -0.3214
15007TIP3    H266513   0.601   4.757   5.891  0.8271  0.4845  0.0952
15008TIP3   OH266514   0.230   3.478  17.232 -0.0062 -0.9659 -0.3589
15008TIP3    H166515   0.299   3.524  17.184  1.8534 -1.4115  1.7976
15008TIP3    H266516   0.217   3.530  17.312 -1.6605 -1.2832 -0.4013
15009TIP3   OH266517   6.003   2.413   2.730  0.3000  0.3743  0.0304
15009TIP3    H166518   5.917   2.451   2.747 -0.5595 -1.0627 -1.0187
15009TIP3    H266519   6.041   2.400   2.817 -1.2306 -0.5223  0.5753
15010TIP3   OH266520   2.187   3.604  14.385  0.6513  0.5799 -0.3349
15010TIP3    H166521   2.250   3.606  14.457 -0.4577 -0.9279  0.6988
15010TIP3    H266522   2.201   3.518  14.344 -1.6667 -0.3765  0.7780
15011TIP3   OH266523   6.791   2.989   2.785 -0.1855 -0.4170 -0.3436
15011TIP3    H166524   6.856   3.005   2.716 -0.1405 -0.1839 -0.2448
15011TIP3    H266525   6.817   3.046   2.857  0.4910 -1.5378  0.3311
15012TIP3   OH266526   1.912   2.452  13.546 -0.5268 -0.3145 -0.2068
15012TIP3    H166527   1.819   2.446  13.565 -0.8337 -0.4698 -1.6932
15012TIP3    H266528   1.955   2.445  13.632 -1.8662 -0.2997  0.4742
15013TIP3   OH266529   0.687   5.291   3.375  0.0286 -0.5178  0.3122
15013TIP3    H166530   0.766   5.340   3.349  1.5566 -2.7050  0.6373
15013TIP3    H266531   0.646   5.345   3.441  1.7532  0.2846  0.7703
15014TIP3   OH266532   6.388   5.090   2.778  0.4736 -0.0653 -0.8349
15014TIP3    H166533   6.350   5.043   2.703  0.5190 -0.1145 -0.8269
15014TIP3    H266534   6.314   5.137   2.816  0.3080 -0.6017 -0.4870
15015TIP3   OH266535   1.300   6.809  13.300 -0.0140  0.2431 -0.0961
15015TIP3    H166536   1.239   6.739  13.274  1.2225 -1.3370  1.1661
15015TIP3    H266537   1.354   6.823  13.222 -0.9965  0.6056 -0.7243
15016TIP3   OH266538   1.746   6.225   0.124  0.4133  0.4108 -0.2987
15016TIP3    H166539   1.715   6.151   0.176  0.2465  0.8852  0.2916
15016TIP3    H266540   1.669   6.281   0.113  0.6383  0.7170 -0.3477
15017TIP3   OH266541   5.423   6.349  11.899  0.0589 -0.5480  0.0681
15017TIP3    H166542   5.510   6.352  11.938 -0.3141 -0.7328  0.9487
15017TIP3    H266543   5.430   6.399  11.818  1.2560 -1.4974 -0.4219
15018TIP3   OH266544   1.270   4.125   1.560  0.4449  0.5068  0.0704
15018TIP3    H166545   1.322   4.087   1.632  1.8978  1.1525 -0.6100
15018TIP3    H266546   1.190   4.157   1.603  1.2204  0.7426  1.3975
15019TIP3   OH266547   3.621   2.332   1.663 -0.1538  0.6327 -0.0230
15019TIP3    H166548   3.691   2.387   1.626 -1.7382  2.1504 -0.8443
15019TIP3    H266549   3.632   2.340   1.757  0.4944  1.2470 -0.1430
15020TIP3   OH266550   5.783   5.079  12.798 -0.3468 -0.2213  0.2568
15020TIP3    H166551   5.810   5.089  12.889  0.5893  0.5456 -0.0994
15020TIP3    H266552   5.777   5.169  12.765 -2.2744 -0.4261  0.0213
15021TIP3   OH266553   3.219   5.281   0.482  0.5263 -0.5836 -0.6053
15021TIP3    H166554   3.212   5.351   0.548  0.7235 -2.4671  1.4839
15021TIP3    H266555   3.286   5.312   0.422  1.0245  0.7914  0.6100
15022TIP3   OH266556   3.995   3.944  16.095  0.3703  0.3262  0.2048
15022TIP3    H166557   3.933   4.016  16.104 -1.3440 -1.2599  1.6848
15022TIP3    H266558   4.050   3.968  16.021 -0.0772  3.1884  0.7427
15023TIP3   OH266559   3.211   1.500   2.954 -0.3667  0.4831 -0.0545
15023TIP3    H166560   3.270   1.477   2.882 -0.1811  2.3129 -0.5201
15023TIP3    H266561   3.201   1.419   3.004  0.0637 -0.6307 -1.7424
15024TIP3   OH266562   2.758   4.520  16.322 -0.4264 -0.1555 -0.2615
15024TIP3    H166563   2.836   4.481  16.283 -1.2544 -0.5823 -1.5209
15024TIP3    H266564   2.703   4.445  16.345 -0.2799  0.1219  1.0493
15025TIP3   OH266565   3.303   1.877   2.369 -0.0753 -0.1580  0.8724
15025TIP3    H166566   3.230   1.936   2.350 -0.8339 -0.3072  3.2593
15025TIP3    H266567   3.366   1.932   2.415  0.1594 -0.6814  1.1732
15026TIP3   OH266568   5.094   4.233   0.234  0.1783 -0.0002  0.2016
15026TIP3    H166569   5.091   4.236   0.138 -0.3276 -1.4384  0.1623
15026TIP3    H266570   5.179   4.273   0.256  0.2154  0.5230 -0.8257
15027TIP3   OH266571   4.583   0.341  16.009  0.4168 -0.1839  0.0289
15027TIP3    H166572   4.640   0.290  15.951 -0.4872  0.1669 -1.2020
15027TIP3    H266573   4.597   0.432  15.981  0.2753  0.0247  0.6355
15028TIP3   OH266574   5.959   4.796  12.903 -0.4669  0.0393 -0.0506
15028TIP3    H166575   6.037   4.809  12.957  0.5958 -3.5035 -0.5492
15028TIP3    H266576   5.981   4.836  12.819  0.4321 -0.0897  0.1192
15029TIP3   OH266577   1.163   0.712   0.376  0.3464 -0.2412 -0.2100
15029TIP3    H166578   1.236   0.714   0.438  0.7391  0.3436 -0.6856
15029TIP3    H266579   1.198   0.665   0.301  0.8085  1.5408 -1.1423
15030TIP3   OH266580   0.534   3.056   3.990  0.0575 -0.2305 -0.4250
15030TIP3    H166581   0.469   3.110   3.944 -0.2833  0.4125  0.7859
15030TIP3    H266582   0.596   3.119   4.025  0.8085 -0.7835 -0.7511
15031TIP3   OH266583   0.331   1.089  12.767 -0.0998  0.0902 -0.3176
15031TIP3    H166584   0.370   1.005  12.742 -1.8629 -0.8581  0.0441
15031TIP3    H266585   0.240   1.082  12.739 -0.6065  1.3307  0.9809
15032TIP3   OH266586   1.071   5.823   1.751  0.2357  0.3896  0.3646
15032TIP3    H166587   1.140   5.854   1.810  1.0378 -1.2449  0.2874
15032TIP3    H266588   0.999   5.799   1.809  0.3547  0.5008  0.5573
15033TIP3   OH266589   2.434   0.386  11.591  0.8561 -0.4527 -0.0596
15033TIP3    H166590   2.410   0.451  11.525 -0.3834 -0.6218  0.1936
15033TIP3    H266591   2.431   0.303  11.545  1.0295 -0.4615 -0.0529
15034TIP3   OH266592   0.390   2.645  11.257 -0.3814 -0.4652 -0.7890
15034TIP3    H166593   0.343   2.728  11.250 -0.0069 -0.1156  0.6585
15034TIP3    H266594   0.421   2.627  11.169 -0.4140  0.9731 -1.1034
15035TIP3   OH266595   2.228   1.294   3.316  0.2101 -0.2076  0.0386
15035TIP3    H166596   2.238   1.262   3.227  0.7255 -0.4054  0.1672
15035TIP3    H266597   2.179   1.376   3.306 -1.5965 -1.3093 -0.2323
15036TIP3   OH266598   1.695   0.668  16.574  0.2852  0.1611 -0.2635
15036TIP3    H166599   1.770   0.690  16.628  0.6656  0.0983 -0.7589
15036TIP3    H266600   1.638   0.617  16.631  1.3094 -1.0525 -0.3159
15037TIP3   OH266601   6.690   0.175  15.917 -0.4756 -0.1399  0.4769
15037TIP3    H166602   6.681   0.237  15.989  1.1843  0.8715 -0.1546
15037TIP3    H266603   6.602   0.167  15.881 -1.1107  0.1528  1.9503
15038TIP3   OH266604   3.860   4.422   4.247  0.1912  0.7472 -0.0595
15038TIP3    H166605   3.797   4.488   4.222 -1.0358 -0.3716  0.0328
15038TIP3    H266606   3.888   4.382   4.164 -1.3175 -0.6321  0.0640
15039TIP3   OH266607   0.282   6.065  12.545 -0.5646  0.0270  0.3735
15039TIP3    H166608   0.287   6.113  12.462  0.2659  0.3979  0.6391
15039TIP3    H266609   0.267   5.974  12.518  0.7504 -0.0299 -0.2351
15040TIP3   OH266610   5.183   0.051   6.182 -0.1307 -0.0063  0.4309
15040TIP3    H166611   5.251   0.013   6.237  1.5748 -1.5867 -2.6603
15040TIP3    H266612   5.104   0.000   6.203  0.7667 -1.3579  0.5848
15041TIP3   OH266613   6.190   3.979  13.388 -0.0933  0.5512  0.6103
15041TIP3    H166614   6.195   4.037  13.312 -0.3898 -0.9966 -0.6263
15041TIP3    H266615   6.129   4.022  13.448  0.4350  1.9815  0.1448
15042TIP3   OH266616   4.748   1.132  16.690  0.5043  0.2382 -0.0358
15042TIP3    H166617   4.792   1.161  16.610 -1.0297 -0.5249 -1.1714
15042TIP3    H266618   4.711   1.213  16.727 -1.2816  0.1966 -1.6635
15043TIP3   OH266619   4.189   6.677  16.650  0.2456  0.1090  0.5335
15043TIP3    H166620   4.142   6.597  16.674 -2.2848  1.3031 -0.2815
15043TIP3    H266621   4.193   6.675  16.555 -0.3025  1.2080  0.4822
15044TIP3   OH266622   1.546   1.887   6.672  0.0931 -0.1245  0.0367
15044TIP3    H166623   1.573   1.974   6.643  0.7629  0.4520  2.2776
15044TIP3    H266624   1.476   1.903   6.736 -0.6750 -1.2999 -0.4865
15045TIP3   OH266625   5.083   2.351   4.015 -0.2641 -0.0233  0.1976
15045TIP3    H166626   5.177   2.370   4.018  0.0640 -1.3651 -1.0547
15045TIP3    H266627   5.062   2.344   3.922 -0.8814 -3.0253  0.4936
15046TIP3   OH266628   1.412   5.421  12.467  0.5070 -0.3551 -0.3878
15046TIP3    H166629   1.444   5.342  12.510  0.3878  0.3690  1.0411
15046TIP3    H266630   1.356   5.389  12.396 -0.3276 -1.5495  0.7870
15047TIP3   OH266631   4.657   5.809  12.853 -0.1995  0.6428 -0.2254
15047TIP3    H166632   4.562   5.811  12.845 -0.2996  0.0527  0.6764
15047TIP3    H266633   4.673   5.812  12.948  0.6264 -0.8381 -0.2991
15048TIP3   OH266634   1.161   3.560  13.477 -0.3917 -0.6598 -0.2287
15048TIP3    H166635   1.160   3.529  13.567 -2.4059  1.1133  0.4037
15048TIP3    H266636   1.069   3.577  13.456  0.2256  0.8533 -1.9355
15049TIP3   OH266637   2.926   3.993  15.838 -0.3470  0.5292 -0.6376
15049TIP3    H166638   2.865   3.921  15.853 -0.9107  0.5827 -2.5614
15049TIP3    H266639   2.926   4.005  15.743  2.5635  0.5967 -0.6794
15050TIP3   OH266640   5.539   4.583  13.187  0.1143 -0.6341 -0.0776
15050TIP3    H166641   5.526   4.521  13.115  0.8093  0.2449 -0.9483
15050TIP3    H266642   5.580   4.659  13.148  0.6106 -0.1866  1.2673
15051TIP3   OH266643   1.265   0.682   2.951 -0.2331 -0.2701  0.3178
15051TIP3    H166644   1.224   0.684   2.865  0.0501  0.0112  0.1895
15051TIP3    H266645   1.352   0.719   2.937 -0.3237  0.1228  0.8010
15052TIP3   OH266646   3.566   4.806   3.757 -0.0168  0.2659  0.2416
15052TIP3    H166647   3.541   4.752   3.682 -0.7903  2.3853 -1.0704
15052TIP3    H266648   3.619   4.748   3.811 -3.1844 -2.6683  0.3462
15053TIP3   OH266649   0.935   1.390   5.605  0.6264 -0.1885  0.1720
15053TIP3    H166650   0.945   1.302   5.568  0.1929 -0.0773 -0.2154
15053TIP3    H266651   0.964   1.449   5.534  2.4263 -0.0637  0.9672
15054TIP3   OH266652   2.019   6.063  14.280  0.1815  0.0627 -0.3609
15054TIP3    H166653   2.054   5.976  14.299  1.6721  0.7474  0.1317
15054TIP3    H266654   1.970   6.087  14.359  1.0363  0.2836  0.1082
15055TIP3   OH266655   2.723   4.833  10.988 -0.6466  0.0135 -0.2981
15055TIP3    H166656   2.729   4.738  10.975 -1.7461  0.0301 -0.9707
15055TIP3    H266657   2.710   4.843  11.082 -1.6772 -0.5659 -0.3696
15056TIP3   OH266658   3.137   3.431  13.687  0.1400 -1.2017 -0.2098
15056TIP3    H166659   3.074   3.367  13.652 -1.5077  0.6928 -0.8069
15056TIP3    H266660   3.084   3.508  13.706  2.2094  0.2363 -0.1442
15057TIP3   OH266661   1.209   5.866  16.709 -0.2401 -0.6366 -0.0203
15057TIP3    H166662   1.181   5.894  16.623  0.3872 -1.0408 -0.3603
15057TIP3    H266663   1.146   5.798  16.734 -0.3620 -0.5892 -0.2015
15058TIP3   OH266664   3.171   1.578  12.908 -0.1819 -0.3185 -0.0031
15058TIP3    H166665   3.146   1.523  12.982  0.7666  0.4488  0.8999
15058TIP3    H266666   3.130   1.663  12.926  3.9075  1.3528  2.1317
15059TIP3   OH266667   3.365   6.000  15.209 -0.1121 -0.1098  0.3292
15059TIP3    H166668   3.444   5.995  15.155 -1.0575 -1.6793 -0.9349
15059TIP3    H266669   3.373   5.928  15.271 -0.8365 -0.6622 -0.2110
15060TIP3   OH266670   0.907   3.919  15.131  0.3619  0.1022  0.3457
15060TIP3    H166671   0.876   3.967  15.207  1.3205 -0.0278  0.8300
15060TIP3    H266672   0.980   3.866  15.164  2.0930  1.5542 -1.0797
15061TIP3   OH266673   5.495   4.649   2.205 -0.0099 -0.4067 -0.1582
15061TIP3    H166674   5.551   4.581   2.241 -1.1333 -1.3749 -0.2304
15061TIP3    H266675   5.454   4.609   2.129  0.0403  0.6598 -0.7637
15062TIP3   OH266676   2.559   0.175  15.590 -0.4019 -0.4785 -0.4663
15062TIP3    H166677   2.469   0.176  15.623 -0.2088 -1.0044  0.0917
15062TIP3    H266678   2.550   0.188  15.496 -0.8838  2.5980 -0.0548
15063TIP3   OH266679   6.448   0.330  11.332 -0.1943 -0.4672 -0.4783
15063TIP3    H166680   6.366   0.364  11.370  1.3059  0.7779  1.7543
15063TIP3    H266681   6.502   0.408  11.320  0.8917 -1.3615 -1.3853
15064TIP3   OH266682   5.636   0.493  13.851  0.8156  0.2704 -0.4359
15064TIP3    H166683   5.656   0.568  13.795 -0.6253  0.6800 -0.4248
15064TIP3    H266684   5.663   0.521  13.938 -1.8652  1.6924 -0.0290
15065TIP3   OH266685   6.103   6.779   0.890 -0.1358  0.0397 -0.7163
15065TIP3    H166686   6.015   6.745   0.907  0.3069 -1.1525 -0.7467
15065TIP3    H266687   6.162   6.714   0.929  0.7224  1.1811 -0.0697
15066TIP3   OH266688   0.680   2.720   6.048 -0.1417  0.3838  0.0186
15066TIP3    H166689   0.694   2.733   5.954 -1.9062 -1.6035 -0.5543
15066TIP3    H266690   0.655   2.806   6.081 -2.9075  0.3855 -1.9673
15067TIP3   OH266691   1.987   6.339  15.866 -0.4122 -0.4243 -0.8598
15067TIP3    H166692   1.975   6.417  15.921 -1.1708 -0.1462 -1.4133
15067TIP3    H266693   1.959   6.266  15.921 -0.1686 -0.2591 -0.5127
15068TIP3   OH266694   4.583   0.406  14.921 -0.4334  0.0090  0.7441
15068TIP3    H166695   4.661   0.353  14.933 -0.0965  0.4242  0.4045
15068TIP3    H266696   4.594   0.480  14.980 -1.5392 -0.9791  2.2345
15069TIP3   OH266697   0.609   0.189  12.573  0.3999 -0.4171  0.2650
15069TIP3    H166698   0.683   0.160  12.626  0.8151  1.2750  0.6576
15069TIP3    H266699   0.643   0.264  12.523 -0.7333 -0.3167 -0.3750
15070TIP3   OH266700   3.715   1.056   4.563 -0.3685 -0.3662 -0.2324
15070TIP3    H166701   3.656   1.038   4.490 -1.5854  2.6884 -0.0514
15070TIP3    H266702   3.658   1.056   4.640  0.0497  1.3788  0.0958
15071TIP3   OH266703   4.472   0.584  11.208 -0.5459  0.1589  0.0085
15071TIP3    H166704   4.550   0.530  11.205 -0.3721  0.2952  1.5153
15071TIP3    H266705   4.504   0.673  11.190 -0.4297  0.1385  0.1121
15072TIP3   OH266706   3.479   5.334  12.931 -0.6437  0.0180  0.0338
15072TIP3    H166707   3.461   5.402  12.995 -0.4477 -0.1439  0.2609
15072TIP3    H266708   3.454   5.253  12.974 -0.2793 -0.1152 -0.0016
15073TIP3   OH266709   6.659   3.579  14.292  0.1642 -0.9707  0.0299
15073TIP3    H166710   6.669   3.484  14.289  1.6737 -0.7759 -1.4461
15073TIP3    H266711   6.656   3.599  14.385 -0.0925 -2.4464  0.3612
15074TIP3   OH266712   3.909   6.607   3.580  0.2544  0.2800 -0.8388
15074TIP3    H166713   3.982   6.620   3.519  0.1357  1.3220 -0.7611
15074TIP3    H266714   3.884   6.695   3.607  1.2921 -0.2200  1.8997
15075TIP3   OH266715   3.618   5.782  13.713 -0.0958  1.3300  0.2210
15075TIP3    H166716   3.673   5.725  13.767  0.4522  1.3198 -0.3300
15075TIP3    H266717   3.561   5.721  13.666 -0.8290  1.3638  1.0599
15076TIP3   OH266718   1.238   4.861   2.169 -0.1443  0.0484 -0.2408
15076TIP3    H166719   1.241   4.797   2.240 -0.1664 -0.3289 -0.5792
15076TIP3    H266720   1.191   4.817   2.099  0.0698  0.3410 -0.5705
15077TIP3   OH266721   5.428   4.998  11.001 -0.0619 -0.6539 -0.1964
15077TIP3    H166722   5.475   4.952  11.070  1.3746  1.6537  0.4305
15077TIP3    H266723   5.492   5.006  10.929 -0.9074 -1.3079 -1.0301
15078TIP3   OH266724   0.275   2.038   6.315 -0.7496  0.8809  0.0657
15078TIP3    H166725   0.195   2.040   6.367 -1.2061  2.6059 -0.6820
15078TIP3    H266726   0.312   2.126   6.325  1.5083 -0.1412  1.1024
15079TIP3   OH266727   3.380   5.482   1.543 -0.2423  0.5814  0.4164
15079TIP3    H166728   3.429   5.502   1.622 -2.5852  2.7718  1.3888
15079TIP3    H266729   3.328   5.404   1.565 -0.2250  0.6662  0.7480
15080TIP3   OH266730   6.809   1.592   4.420  0.1777  0.0357  0.7736
15080TIP3    H166731   6.875   1.526   4.399 -0.4556 -0.4945  0.4362
15080TIP3    H266732   6.766   1.559   4.498 -0.8063 -0.4468  0.0348
15081TIP3   OH266733   6.555   3.578   1.421 -0.7281 -0.0335 -0.2095
15081TIP3    H166734   6.494   3.588   1.348 -0.0065  0.1753 -0.7921
15081TIP3    H266735   6.641   3.569   1.379 -0.2716  0.4010  0.6250
15082TIP3   OH266736   5.743   6.106  14.238 -0.1308  0.3051 -0.0008
15082TIP3    H166737   5.746   6.193  14.277 -0.3859  0.3722 -0.1276
15082TIP3    H266738   5.709   6.050  14.307  1.2050  0.0804  0.4798
15083TIP3   OH266739   2.200   3.469  13.210 -0.2961 -0.1008 -0.6755
15083TIP3    H166740   2.132   3.484  13.275  0.6500 -0.7277  0.4767
15083TIP3    H266741   2.201   3.549  13.157  1.4807  2.0012  2.4205
15084TIP3   OH266742   5.187   5.294   2.251 -0.4320  0.4376  0.3153
15084TIP3    H166743   5.165   5.386   2.232 -0.3577  0.6408  1.1719
15084TIP3    H266744   5.222   5.296   2.340  0.0674 -0.3543  0.1400
15085TIP3   OH266745   5.522   3.372  13.848  0.2244  0.4941  1.0166
15085TIP3    H166746   5.593   3.327  13.802 -1.2854 -0.5114 -0.4140
15085TIP3    H266747   5.538   3.465  13.833  1.1711  0.2759  0.6291
15086TIP3   OH266748   5.379   6.241   3.355  0.4498  0.2696 -0.1676
15086TIP3    H166749   5.294   6.286   3.361  1.0223  1.3608 -0.0674
15086TIP3    H266750   5.421   6.257   3.439  0.1694 -1.5109  0.3270
15087TIP3   OH266751   1.564   5.762  15.433  0.0573 -0.2502  0.4811
15087TIP3    H166752   1.584   5.688  15.376 -0.1218  1.2218 -1.5649
15087TIP3    H266753   1.480   5.795  15.400 -0.0017  0.6849  1.5561
15088TIP3   OH266754   6.628   6.291  16.559  0.0136  0.5749 -0.5378
15088TIP3    H166755   6.701   6.318  16.614 -0.4656 -0.3209  0.5724
15088TIP3    H266756   6.623   6.196  16.571 -1.4142  0.6365 -0.4677
15089TIP3   OH266757   4.738   3.987  15.503 -0.1547 -0.1144  0.2942
15089TIP3    H166758   4.807   3.933  15.540  0.6372  1.6518  1.4789
15089TIP3    H266759   4.667   3.926  15.484  0.5734 -1.5007  1.9161
15090TIP3   OH266760   0.432   4.379  12.443  0.0852 -0.1588  0.5651
15090TIP3    H166761   0.445   4.473  12.428  1.4134 -0.6306 -1.4310
15090TIP3    H266762   0.411   4.372  12.536  0.1187  2.1005  0.7635
15091TIP3   OH266763   4.391   3.650   3.555 -0.2758 -0.1498  0.1662
15091TIP3    H166764   4.474   3.699   3.558  1.4499 -2.7234 -2.4507
15091TIP3    H266765   4.410   3.569   3.601 -1.3389 -0.7715 -0.4884
15092TIP3   OH266766   1.013   2.270   2.691 -0.2919 -0.0480 -0.4612
15092TIP3    H166767   1.024   2.185   2.733 -0.7024  0.9527  1.7498
15092TIP3    H266768   1.102   2.306   2.687 -0.3339  0.1546  0.2596
15093TIP3   OH266769   4.491   4.576   0.017 -0.4602  0.6919 -0.0091
15093TIP3    H166770   4.564   4.620  -0.026 -0.1438  1.1914  1.0243
15093TIP3    H266771   4.527   4.493   0.047 -0.0615  1.3381  1.3217
15094TIP3   OH266772   2.194   2.036   1.410 -0.4883  0.0772 -0.1559
15094TIP3    H166773   2.129   2.076   1.353 -0.9277 -0.3139  0.0719
15094TIP3    H266774   2.277   2.076   1.383 -0.8091  0.5244 -0.4885
15095TIP3   OH266775   0.546   6.205   6.545 -0.5049  0.3696  0.1495
15095TIP3    H166776   0.627   6.165   6.516 -0.9489 -2.4405  2.4797
15095TIP3    H266777   0.535   6.282   6.490  3.5093  0.5819 -0.4582
15096TIP3   OH266778   2.769   5.388  12.487  0.2098 -0.1303 -0.4298
15096TIP3    H166779   2.781   5.387  12.582 -0.6373  1.4576 -0.2795
15096TIP3    H266780   2.831   5.323  12.454  1.4492  0.2352  1.1096
15097TIP3   OH266781   3.617   3.041  16.140  0.4839  0.2007  0.0134
15097TIP3    H166782   3.552   3.064  16.206 -0.3754  0.3215 -0.8665
15097TIP3    H266783   3.644   3.125  16.102  1.1866  0.1555  0.4064
15098TIP3   OH266784   5.434   4.771   5.429  0.2565 -0.6996  0.0546
15098TIP3    H166785   5.388   4.855   5.426 -0.4841 -1.0551  1.1681
15098TIP3    H266786   5.499   4.783   5.498  0.7835 -0.7266 -0.4384
15099TIP3   OH266787   5.806   6.516   4.468 -0.3467  0.3020  0.0767
15099TIP3    H166788   5.821   6.535   4.560 -1.3869 -0.8261  0.5001
15099TIP3    H266789   5.744   6.583   4.439  0.5805  1.1262 -0.0153
15100TIP3   OH266790   0.007   4.848  12.551 -0.7258 -0.2964 -0.3997
15100TIP3    H166791  -0.071   4.799  12.573 -1.9887  1.5675 -0.5891
15100TIP3    H266792   0.034   4.813  12.466 -2.5112  0.4042 -1.2679
15101TIP3   OH266793   6.648   2.068  11.769 -0.0403 -0.4631 -0.2663
15101TIP3    H166794   6.604   2.143  11.809 -1.4701 -1.7201  0.6094
15101TIP3    H266795   6.729   2.058  11.819  0.6890  1.1570 -1.1125
15102TIP3   OH266796   5.219   2.256  11.576 -0.4149  0.0268  0.4434
15102TIP3    H166797   5.173   2.218  11.651  1.6733 -0.1113  1.7033
15102TIP3    H266798   5.274   2.325  11.614  0.4718  0.1250 -0.9948
15103TIP3   OH266799   6.198   1.967  16.391 -0.2724  0.2891 -0.2920
15103TIP3    H166800   6.129   1.919  16.347  0.1344 -0.3329 -0.2614
15103TIP3    H266801   6.231   1.906  16.458 -0.0268  0.7543  0.0168
15104TIP3   OH266802   4.755   1.985   0.638 -0.2992  0.1783 -0.2366
15104TIP3    H166803   4.752   2.079   0.620  0.3810  0.6852  2.1579
15104TIP3    H266804   4.848   1.962   0.629 -0.4879 -0.3196 -0.9854
15105TIP3   OH266805   3.176   0.195   4.639  0.2283  0.0244  0.0416
15105TIP3    H166806   3.119   0.124   4.670 -0.0191  0.7909  1.4104
15105TIP3    H266807   3.231   0.155   4.572 -1.4740 -0.8965 -0.8382
15106TIP3   OH266808   4.662   6.471   0.636 -0.3463  0.0891  0.4426
15106TIP3    H166809   4.729   6.534   0.662  0.7615 -0.7486 -0.3323
15106TIP3    H266810   4.684   6.391   0.683 -0.7591 -0.2211  0.1173
15107TIP3   OH266811   5.689   6.030   3.791  0.2533  0.7185 -0.1449
15107TIP3    H166812   5.691   6.047   3.697 -1.3748 -0.9813 -0.5193
15107TIP3    H266813   5.610   5.978   3.804  0.4679  0.9252  2.1732
15108TIP3   OH266814   4.027   5.891   3.465  0.0885 -0.1824  0.7950
15108TIP3    H166815   4.037   5.819   3.527  0.0744 -0.6139  0.2989
15108TIP3    H266816   4.064   5.967   3.509  2.7301 -1.0842  0.2007
15109TIP3   OH266817   0.885   4.340  14.951 -0.5092 -0.3167 -0.1618
15109TIP3    H166818   0.916   4.265  15.003  0.3980 -0.9658 -1.6037
15109TIP3    H266819   0.934   4.334  14.869 -1.3690  1.1312 -0.7980
15110TIP3   OH266820   2.028   1.233  16.081  0.3871  0.2317  0.0304
15110TIP3    H166821   2.003   1.144  16.056  0.4519  0.3134 -0.3283
15110TIP3    H266822   1.946   1.283  16.077  0.2709  0.0954  0.6450
15111TIP3   OH266823   5.483   5.208   3.705  0.3076  0.1436  0.2980
15111TIP3    H166824   5.503   5.156   3.782 -2.8495  0.0542  1.1343
15111TIP3    H266825   5.416   5.158   3.658  0.5409  1.2675 -1.3087
15112TIP3   OH266826   0.446   0.336   2.248 -0.0085  0.6634 -0.5455
15112TIP3    H166827   0.508   0.375   2.186 -1.6412  1.1089 -1.9326
15112TIP3    H266828   0.451   0.242   2.231  0.2049  0.7115 -0.7458
15113TIP3   OH266829   4.985   6.578   5.604  0.2978 -0.2535  0.3343
15113TIP3    H166830   4.903   6.582   5.653  0.3224 -0.3981  0.3873
15113TIP3    H266831   5.051   6.558   5.671  0.3834 -0.0896  0.2994
15114TIP3   OH266832   0.479   1.746   0.669  0.3623  0.1640  0.6185
15114TIP3    H166833   0.500   1.688   0.743  1.3090 -1.0776 -0.5897
15114TIP3    H266834   0.406   1.799   0.700 -0.2660 -1.4118  1.9126
15115TIP3   OH266835   4.274   5.520  14.222  0.0842 -0.4876  0.4994
15115TIP3    H166836   4.274   5.615  14.209  1.8535 -0.6605 -1.0411
15115TIP3    H266837   4.203   5.487  14.166 -0.2057 -0.1184  0.6514
15116TIP3   OH266838   1.557   2.162   5.194  0.1166  0.0843 -0.1094
15116TIP3    H166839   1.600   2.080   5.219  0.5961  0.1814 -0.5930
15116TIP3    H266840   1.618   2.203   5.132 -0.2360  0.6836 -0.0686
15117TIP3   OH266841   5.516   3.670   4.889  0.2095 -0.7437  0.6002
15117TIP3    H166842   5.501   3.670   4.795  0.9958  0.1606  0.4721
15117TIP3    H266843   5.525   3.578   4.912  1.9563 -0.8795 -0.5257
15118TIP3   OH266844   2.282   6.089   2.291  0.3787 -0.1778 -0.0707
15118TIP3    H166845   2.295   6.044   2.375  1.1803  2.5796  1.3226
15118TIP3    H266846   2.190   6.113   2.291  0.2237 -0.7633 -0.2883
15119TIP3   OH266847   0.389   6.274   0.861  0.6856 -0.3516 -0.2537
15119TIP3    H166848   0.346   6.229   0.933  1.2548 -3.2737 -1.6758
15119TIP3    H266849   0.320   6.286   0.796  0.4494  1.2494  0.2508
15120TIP3   OH266850   4.733   3.119   5.665 -0.4159  0.2527 -0.1380
15120TIP3    H166851   4.789   3.171   5.723 -0.9959  0.4801  0.2188
15120TIP3    H266852   4.794   3.065   5.615 -0.0745 -2.1797  2.8304
15121TIP3   OH266853   0.800   3.943   1.588 -0.2146  0.0759 -0.1990
15121TIP3    H166854   0.732   4.007   1.566 -0.7783 -0.0909  0.9785
15121TIP3    H266855   0.874   3.996   1.619 -0.9128  0.1640  1.3967
15122TIP3   OH266856   1.908   1.129  13.690 -0.7746 -0.2879  0.3656
15122TIP3    H166857   1.998   1.109  13.717 -0.8828  3.3794  3.9889
15122TIP3    H266858   1.917   1.204  13.631 -1.3784 -0.6157 -0.1402
15123TIP3   OH266859   4.290   0.140  14.742  0.3711  0.4393  0.7225
15123TIP3    H166860   4.307   0.206  14.809  2.6694  0.6559 -0.0470
15123TIP3    H266861   4.367   0.083  14.745  0.3934  0.3323 -1.5966
15124TIP3   OH266862   2.048   0.295   6.374  0.1717  0.0094  0.0635
15124TIP3    H166863   2.047   0.213   6.324 -0.7129 -0.1954  0.4110
15124TIP3    H266864   1.956   0.314   6.392  0.2672  1.7536 -1.1036
15125TIP3   OH266865   0.798   0.775  16.237  0.2993  0.1015  0.1486
15125TIP3    H166866   0.727   0.721  16.203 -0.6986  0.8380  1.0068
15125TIP3    H266867   0.819   0.737  16.322  0.8198 -0.0109 -0.0253
15126TIP3   OH266868   6.184   3.368   5.950  0.3475 -0.1239  0.3496
15126TIP3    H166869   6.105   3.418   5.927  1.2422  0.9510 -0.4407
15126TIP3    H266870   6.234   3.427   6.006  2.7991  1.0594 -2.9699
15127TIP3   OH266871   5.623   1.604   3.940 -0.7159 -0.5189 -0.1777
15127TIP3    H166872   5.561   1.675   3.955 -0.5391 -0.4241  0.1066
15127TIP3    H266873   5.571   1.524   3.954 -0.6263 -0.4348  0.6735
15128TIP3   OH266874   2.757   2.603   2.710 -0.0731 -0.1959 -0.1695
15128TIP3    H166875   2.671   2.605   2.752  1.0412  0.3122  2.1518
15128TIP3    H266876   2.758   2.680   2.654 -1.8060 -1.2093 -1.6494
15129TIP3   OH266877   2.726   2.511   1.347  0.2392 -0.4017 -0.0531
15129TIP3    H166878   2.683   2.567   1.411 -0.5371  0.1824 -1.0737
15129TIP3    H266879   2.657   2.488   1.285  1.1689 -0.2750 -1.1472
15130TIP3   OH266880   2.981   1.259   4.066  0.4237 -0.8282 -0.4730
15130TIP3    H166881   2.949   1.328   4.007  2.0412 -0.0350 -0.4609
15130TIP3    H266882   3.073   1.281   4.080  0.0130 -0.9095  2.5218
15131TIP3   OH266883   2.670   4.265  16.730  0.0149 -0.1732  0.1945
15131TIP3    H166884   2.584   4.275  16.772  0.0428 -0.8913  0.4412
15131TIP3    H266885   2.695   4.174  16.749  0.6085 -0.1151 -0.2944
15132TIP3   OH266886   5.745   1.530   0.256  0.5586 -0.2403  0.1976
15132TIP3    H166887   5.762   1.612   0.211  1.1076 -1.0028 -1.0197
15132TIP3    H266888   5.811   1.526   0.325 -0.3027  0.9460  1.1175
15133TIP3   OH266889   3.555   0.251  10.723 -0.5924  0.1567 -0.2024
15133TIP3    H166890   3.599   0.306  10.658 -0.2088 -0.8964 -0.8514
15133TIP3    H266891   3.623   0.228  10.785 -1.0939  1.6708  0.9483
15134TIP3   OH266892   0.743   3.221   4.092 -0.0565  0.0710  0.2649
15134TIP3    H166893   0.717   3.302   4.137 -1.2125  0.1273 -0.4754
15134TIP3    H266894   0.809   3.248   4.029 -1.3926  0.6895 -0.9149
15135TIP3   OH266895   4.032   2.126   0.973 -0.7670 -0.3690  0.4404
15135TIP3    H166896   3.964   2.192   0.960 -1.3979 -1.1724 -0.4261
15135TIP3    H266897   3.984   2.044   0.987  0.0109 -0.8733  0.1976
15136TIP3   OH266898   5.987   1.292  12.224 -0.1216  0.1440 -0.2522
15136TIP3    H166899   6.011   1.242  12.146  1.6616  0.9543 -0.2503
15136TIP3    H266900   5.933   1.231  12.276  0.0203 -0.9460 -1.3573
15137TIP3   OH266901   5.507   4.867  14.545  0.0920  0.3542 -0.2143
15137TIP3    H166902   5.524   4.956  14.576 -1.1984  0.9508 -1.1754
15137TIP3    H266903   5.562   4.812  14.601 -0.6738  1.5616  1.7998
15138TIP3   OH266904   5.469   5.792  11.626  0.7892 -0.0495  0.4710
15138TIP3    H166905   5.502   5.705  11.646 -0.0127 -0.8634 -1.6166
15138TIP3    H266906   5.543   5.837  11.585 -0.2844 -1.5294 -3.2560
15139TIP3   OH266907   2.442   2.483  14.882  0.1069  0.5284 -0.4428
15139TIP3    H166908   2.419   2.575  14.888  0.3331  0.7425 -2.4685
15139TIP3    H266909   2.525   2.475  14.928  0.2860  1.4139 -0.6180
15140TIP3   OH266910   3.038   4.685   4.723  0.1408 -0.9130  0.1130
15140TIP3    H166911   3.087   4.763   4.747 -0.3177 -0.1954 -1.1991
15140TIP3    H266912   3.015   4.644   4.806  1.3285 -0.2468  0.7865
15141TIP3   OH266913   0.257   6.300   6.300  0.3916  0.6694 -0.2858
15141TIP3    H166914   0.293   6.389   6.308  3.0920 -0.4091 -0.0540
15141TIP3    H266915   0.287   6.255   6.378 -0.2602 -0.7014 -0.8161
15142TIP3   OH266916   2.324   2.014  15.537 -0.3944 -0.0325  0.2693
15142TIP3    H166917   2.315   2.069  15.458  1.0911  1.0313  0.8250
15142TIP3    H266918   2.363   2.072  15.602  0.7392 -1.6187  1.0234
15143TIP3   OH266919   1.312   2.624  17.121  0.3396 -0.3059 -0.7190
15143TIP3    H166920   1.315   2.693  17.054 -1.1838  0.2232 -0.2642
15143TIP3    H266921   1.219   2.605  17.131  0.6203 -1.0029  0.6195
15144TIP3   OH266922   5.465   6.402  10.323 -0.0885 -0.0490  0.2547
15144TIP3    H166923   5.493   6.434  10.237 -0.9376  0.7615  0.2661
15144TIP3    H266924   5.502   6.465  10.385 -1.0726  0.4673  0.3366
15145TIP3   OH266925   0.961   6.784   4.961 -0.3824  0.5282  0.4736
15145TIP3    H166926   0.989   6.814   5.047  0.6354  1.4364 -0.1767
15145TIP3    H266927   1.014   6.706   4.944 -0.2197  0.6491  0.4342
15146TIP3   OH266928   6.685   2.954  15.862  0.1135 -0.3903 -0.6092
15146TIP3    H166929   6.620   3.021  15.839  0.4148 -0.2535 -1.0636
15146TIP3    H266930   6.684   2.894  15.788  2.1419  0.8418 -1.6865
15147TIP3   OH266931   5.818   6.357  17.132  0.5354 -0.4249 -0.0089
15147TIP3    H166932   5.817   6.366  17.036  0.3376 -1.6043 -0.1266
15147TIP3    H266933   5.838   6.445  17.164 -0.8880  0.3043 -1.0810
15148TIP3   OH266934   3.380   0.209   5.064  0.2025  0.2382 -0.0536
15148TIP3    H166935   3.306   0.212   5.124  0.7805 -2.0659  0.8177
15148TIP3    H266936   3.367   0.131   5.011  1.0779  0.7984 -1.1410
15149TIP3   OH266937   2.436   0.978   2.716 -0.1169 -0.3962 -0.4895
15149TIP3    H166938   2.348   0.956   2.748  0.1351 -0.0473  0.4513
15149TIP3    H266939   2.486   0.898   2.727 -0.2840 -0.5583 -0.9067
15150TIP3   OH266940   4.902   0.726  15.726  0.5724 -0.4039  0.2313
15150TIP3    H166941   4.994   0.704  15.712  1.0261  1.4643  0.1459
15150TIP3    H266942   4.901   0.821  15.736 -1.5277 -0.2462 -1.1613
15151TIP3   OH266943   6.106   4.208   5.643 -0.4394  0.6162  0.3510
15151TIP3    H166944   6.157   4.240   5.568  0.6256  1.1872  1.3211
15151TIP3    H266945   6.022   4.254   5.636 -0.9724 -0.5699 -1.4368
15152TIP3   OH266946   4.455   2.273  11.613 -0.2521  0.0197  0.2750
15152TIP3    H166947   4.369   2.300  11.582 -0.1836  1.0989  0.9836
15152TIP3    H266948   4.438   2.192  11.663 -0.8053  0.0590  0.1540
15153TIP3   OH266949   2.396   2.464  11.918 -0.1683 -0.2181 -0.0365
15153TIP3    H166950   2.389   2.412  11.838  0.0744  1.0190 -0.8754
15153TIP3    H266951   2.357   2.548  11.895  2.4607  1.1205  0.2687
15154TIP3   OH266952   2.735   1.541  14.414 -0.4223 -0.4870  0.1219
15154TIP3    H166953   2.675   1.576  14.347 -1.0361 -0.6474  0.5795
15154TIP3    H266954   2.783   1.617  14.445 -0.5420 -0.3191 -0.0971
15155TIP3   OH266955   5.234   3.557   1.278 -0.2972 -0.4008 -0.0745
15155TIP3    H166956   5.314   3.609   1.273  0.4785 -1.5639  0.3082
15155TIP3    H266957   5.188   3.576   1.196 -0.2463  1.2535  0.2668
15156TIP3   OH266958   5.624   0.658  12.566 -0.4494  0.3491 -0.0349
15156TIP3    H166959   5.618   0.702  12.480  1.1397 -0.7010 -0.7106
15156TIP3    H266960   5.543   0.682  12.610 -1.3974  0.7509 -1.9118
15157TIP3   OH266961   2.399   6.268  14.320  0.0754  0.2843  0.0683
15157TIP3    H166962   2.447   6.262  14.237  0.3693 -0.7440  0.2979
15157TIP3    H266963   2.365   6.357  14.322 -1.6212 -0.2688 -2.0941
15158TIP3   OH266964   6.447   3.690   3.545  0.4553 -0.3888  0.2232
15158TIP3    H166965   6.371   3.668   3.600  0.0810 -0.7924 -0.4570
15158TIP3    H266966   6.450   3.786   3.547  1.1245 -0.4302  1.8779
15159TIP3   OH266967   0.922   0.453  14.148  0.0713 -0.3979 -0.3538
15159TIP3    H166968   0.910   0.544  14.120  1.6086 -0.6610 -1.9720
15159TIP3    H266969   1.008   0.453  14.191 -0.1146 -1.0052  0.0154
15160TIP3   OH266970   6.512   6.467  12.928  0.0918  0.5072 -0.2610
15160TIP3    H166971   6.434   6.447  12.980 -0.4750  0.7520 -1.0048
15160TIP3    H266972   6.585   6.442  12.984 -0.5425 -0.7252  0.0359
15161TIP3   OH266973   5.260   6.494   4.979  0.3575  0.2419  0.1907
15161TIP3    H166974   5.323   6.460   5.042  1.3093 -0.3714 -1.0623
15161TIP3    H266975   5.261   6.430   4.907  0.6431  1.8302 -1.2541
15162TIP3   OH266976   5.466   2.314   5.233  0.4512  0.2062 -0.3139
15162TIP3    H166977   5.483   2.304   5.327  0.9467  0.8184 -0.3304
15162TIP3    H266978   5.442   2.227   5.203 -0.6217  0.1872  0.5640
15163TIP3   OH266979   5.421   2.344  15.223  0.0859 -0.6831 -0.0284
15163TIP3    H166980   5.369   2.323  15.300 -1.0060  0.6699 -0.3609
15163TIP3    H266981   5.408   2.271  15.163 -1.8446 -0.1383 -0.2932
15164TIP3   OH266982   3.138   1.794  12.565  0.1663 -0.6830  0.0962
15164TIP3    H166983   3.176   1.707  12.556  0.8935 -0.1376 -2.3134
15164TIP3    H266984   3.184   1.832  12.641  2.6406 -0.9901 -1.2035
15165TIP3   OH266985   0.374   3.024  11.717  0.2269 -0.3554  0.3956
15165TIP3    H166986   0.303   3.086  11.734 -0.0878 -0.4793 -0.4278
15165TIP3    H266987   0.394   3.035  11.624  1.2136 -0.3990  0.5915
15166TIP3   OH266988   6.657   3.236  12.382 -0.3223  0.1664  0.0565
15166TIP3    H166989   6.591   3.228  12.313  0.9913  0.4550 -1.2536
15166TIP3    H266990   6.619   3.298  12.444 -0.5380  1.7880 -1.6245
15167TIP3   OH266991   0.552   4.413   3.160 -0.3650 -0.3888  0.1702
15167TIP3    H166992   0.574   4.383   3.248 -0.7000 -0.7317  0.1353
15167TIP3    H266993   0.588   4.502   3.156 -1.1004 -0.0441  0.9497
15168TIP3   OH266994   3.821   6.722  13.927  0.1242 -0.0626  0.4137
15168TIP3    H166995   3.879   6.717  14.003 -2.1857  0.3430  2.2731
15168TIP3    H266996   3.829   6.812  13.896 -1.4436  0.7716  2.3046
15169TIP3   OH266997   0.619   4.410   5.819  0.2573  0.3531 -0.4493
15169TIP3    H166998   0.546   4.459   5.857  0.6370  0.4191  0.2104
15169TIP3    H266999   0.668   4.475   5.769  0.5581  0.5723  0.1286
15170TIP3   OH267000   6.017   4.680   0.405 -0.3444  0.3479 -0.8615
15170TIP3    H167001   6.074   4.757   0.405 -0.2920  0.3126 -1.3870
15170TIP3    H267002   5.931   4.713   0.432 -0.2327  0.5211 -0.7183
15171TIP3   OH267003   0.263   4.226   3.811  0.0879  0.1735  0.2184
15171TIP3    H167004   0.259   4.200   3.903  0.1943  1.7703  0.6867
15171TIP3    H267005   0.196   4.173   3.769 -0.1229 -0.4033  1.2617
15172TIP3   OH267006   1.647   1.259   2.379 -0.3868 -0.2474 -0.1040
15172TIP3    H167007   1.674   1.252   2.288  0.4189 -1.0898  0.2024
15172TIP3    H267008   1.639   1.354   2.394 -1.5383 -0.1336 -1.3362
15173TIP3   OH267009   6.727   6.339   6.118 -0.2375  0.3958 -0.0101
15173TIP3    H167010   6.786   6.350   6.044  0.1215 -1.0595  0.0561
15173TIP3    H267011   6.645   6.309   6.079  0.2951 -1.4680  0.2829
15174TIP3   OH267012   4.718   0.323  16.733 -0.0682  0.4435  0.0890
15174TIP3    H167013   4.679   0.381  16.667  2.1833  0.8382 -0.9737
15174TIP3    H267014   4.799   0.293  16.692  2.0380  1.6973  3.1818
15175TIP3   OH267015   5.617   2.532   4.809 -0.5040  0.3323  0.2092
15175TIP3    H167016   5.532   2.500   4.781  0.3312 -1.6527 -0.1783
15175TIP3    H267017   5.665   2.547   4.728 -0.4098  1.2255  0.4292
15176TIP3   OH267018   3.858   5.442   1.606 -0.3951  0.4383  0.2937
15176TIP3    H167019   3.793   5.372   1.614  1.7715 -1.7884 -0.6893
15176TIP3    H267020   3.845   5.496   1.684 -3.4263  0.0923  0.0831
15177TIP3   OH267021   3.945   3.206  16.943  0.0919  0.1008  0.2096
15177TIP3    H167022   3.922   3.114  16.947  0.4651  0.0360  1.0348
15177TIP3    H267023   3.876   3.246  16.890 -0.8539 -0.4157  1.0330
15178TIP3   OH267024   4.194   3.373   3.653  0.1778  0.1466 -0.4810
15178TIP3    H167025   4.286   3.398   3.650  0.1995  0.1527  0.2812
15178TIP3    H267026   4.194   3.278   3.644  0.3038  0.0704  0.3355
15179TIP3   OH267027   1.712   5.661   3.101 -0.3125 -0.7569 -0.3719
15179TIP3    H167028   1.641   5.715   3.134  0.3723 -0.1950  0.1958
15179TIP3    H267029   1.671   5.577   3.080 -1.4798  0.1681 -1.8182
15180TIP3   OH267030   4.038   2.339   2.630 -0.2997 -1.0472 -0.7696
15180TIP3    H167031   4.130   2.320   2.649 -0.3212 -0.7355 -0.3248
15180TIP3    H267032   3.990   2.264   2.664 -0.2949 -0.7198 -0.0097
15181TIP3   OH267033   4.022   2.755   4.407  0.3170  0.3439  0.1854
15181TIP3    H167034   4.117   2.759   4.401  0.3835 -1.5696 -0.4488
15181TIP3    H267035   4.004   2.672   4.451 -1.0859  0.1741 -0.6779
15182TIP3   OH267036   5.710   0.208  14.544 -0.8088 -0.1038 -0.2182
15182TIP3    H167037   5.712   0.236  14.636 -0.4613 -0.5818 -0.0793
15182TIP3    H267038   5.651   0.270  14.502 -0.9416  0.1433  0.3237
15183TIP3   OH267039   3.852   2.307   6.158 -0.1354 -0.6642 -0.5747
15183TIP3    H167040   3.826   2.345   6.074 -2.4770  0.2313  0.5119
15183TIP3    H267041   3.844   2.213   6.145 -0.0954 -0.5491 -1.4825
15184TIP3   OH267042   3.776   4.323   0.843 -0.2782 -0.3849  0.2192
15184TIP3    H167043   3.740   4.396   0.792 -1.4721 -1.1317 -0.0447
15184TIP3    H267044   3.867   4.347   0.858 -0.3574  0.6445 -0.8162
15185TIP3   OH267045   1.463   1.445   4.769  0.1042  0.4462  0.1775
15185TIP3    H167046   1.427   1.511   4.710 -0.1329 -0.8940 -1.2262
15185TIP3    H267047   1.431   1.362   4.733 -0.5221 -0.3671  2.5494
15186TIP3   OH267048   2.583   3.623   0.675 -0.0396  0.1214 -0.1415
15186TIP3    H167049   2.603   3.713   0.647 -3.0847  0.9263  0.0524
15186TIP3    H267050   2.543   3.633   0.762  1.8783 -1.6656  0.9752
15187TIP3   OH267051   4.192   1.447  11.442  0.0696 -0.4790  0.8408
15187TIP3    H167052   4.260   1.419  11.503  0.4159 -0.5502  0.4263
15187TIP3    H267053   4.226   1.423  11.356 -0.8802 -1.3104  0.7012
15188TIP3   OH267054   2.444   3.036  10.757 -0.0575 -0.3454 -0.7049
15188TIP3    H167055   2.468   3.009  10.668  0.0287 -0.1213 -0.7528
15188TIP3    H267056   2.348   3.040  10.756 -0.0200  0.6753 -1.1012
15189TIP3   OH267057   0.040   0.341   1.085  0.1090 -0.5666 -0.6197
15189TIP3    H167058  -0.017   0.264   1.080  0.3183 -0.8539  0.9464
15189TIP3    H267059  -0.001   0.406   1.028 -0.7778 -1.4082 -0.9458
15190TIP3   OH267060   0.245   1.493  15.724 -0.2263  0.0518 -0.2597
15190TIP3    H167061   0.291   1.417  15.759 -2.3800 -2.0601 -1.8206
15190TIP3    H267062   0.312   1.546  15.681  1.2818 -1.0393  0.7417
15191TIP3   OH267063   4.587   6.362   5.773 -0.0866  0.6068 -0.4755
15191TIP3    H167064   4.579   6.330   5.863 -1.9647  4.2228  0.7100
15191TIP3    H267065   4.672   6.405   5.770  0.3511 -0.2584 -0.7069
15192TIP3   OH267066   2.878   5.147   1.706  0.5649 -0.1358 -0.2426
15192TIP3    H167067   2.961   5.100   1.693 -0.4368 -1.9178 -0.3758
15192TIP3    H267068   2.814   5.095   1.657 -0.9519  0.2167  1.3523
15193TIP3   OH267069   1.685   0.683  15.363  0.0276  0.3745 -0.1122
15193TIP3    H167070   1.751   0.749  15.342  0.0729  0.6891  0.9826
15193TIP3    H267071   1.735   0.611  15.401 -0.1608  0.2311 -0.1380
15194TIP3   OH267072   2.376   1.901   5.093  0.4541  0.4361  0.0882
15194TIP3    H167073   2.335   1.898   5.179  0.8925  1.1527  0.3245
15194TIP3    H267074   2.321   1.961   5.042  0.3270  0.1912 -0.0689
15195TIP3   OH267075   5.941   1.853  14.829 -0.1639 -0.5541  0.2812
15195TIP3    H167076   6.037   1.850  14.825 -0.2064 -0.1786 -1.1135
15195TIP3    H267077   5.922   1.900  14.910  0.8189 -1.7099  1.2095
15196TIP3   OH267078   0.093   2.055   0.365  0.0881  0.1232  0.2213
15196TIP3    H167079   0.009   2.008   0.366  0.2046 -0.1229 -1.0971
15196TIP3    H267080   0.108   2.076   0.273  0.7825  1.4389  0.6192
15197TIP3   OH267081   5.645   1.744   4.371 -0.0667  0.2662 -0.2821
15197TIP3    H167082   5.652   1.813   4.437  0.7367 -0.2203  0.1499
15197TIP3    H267083   5.725   1.753   4.319  0.0107 -0.3103 -0.2575
15198TIP3   OH267084   2.975   1.087   0.487 -0.0583  0.2009 -0.1923
15198TIP3    H167085   3.007   1.177   0.483 -1.2017  0.5709 -1.0145
15198TIP3    H267086   2.897   1.092   0.542  0.3161 -0.4217  0.3995
15199TIP3   OH267087   5.867   5.992   6.466 -0.4822 -0.1098 -0.0798
15199TIP3    H167088   5.823   5.913   6.497  1.7989 -1.0272  0.9369
15199TIP3    H267089   5.906   5.966   6.382  1.1075 -0.3588  0.7380
15200TIP3   OH267090   1.695   4.104   0.634 -0.1763  0.1489  0.5246
15200TIP3    H167091   1.776   4.127   0.589  0.9580 -2.7351  1.0173
15200TIP3    H267092   1.710   4.130   0.725 -0.7633  1.8547  0.1502
15201TIP3   OH267093   6.198   5.377  12.654  0.6416  0.1160 -0.6267
15201TIP3    H167094   6.186   5.326  12.574 -1.2537 -1.1522  0.4147
15201TIP3    H267095   6.286   5.355  12.684  0.2531 -1.7245 -0.7920
15202TIP3   OH267096   5.292   1.620   5.211  0.2369 -0.5143  0.2385
15202TIP3    H167097   5.225   1.650   5.273  1.0724  0.1801  0.8184
15202TIP3    H267098   5.357   1.691   5.210 -0.3032  0.0085 -2.2851
15203TIP3   OH267099   2.358   6.281  15.893  0.1737  0.4994 -0.1952
15203TIP3    H167100   2.355   6.335  15.972 -1.5240  1.4338 -0.8423
15203TIP3    H267101   2.422   6.213  15.911 -1.2072 -0.1424  2.5331
15204TIP3   OH267102   0.432   0.443   0.093  0.4605 -0.1947 -0.4670
15204TIP3    H167103   0.456   0.497   0.169  0.1046  0.0642 -0.5388
15204TIP3    H267104   0.508   0.447   0.036  0.8617 -0.6645  0.0324
15205TIP3   OH267105   1.536   2.604  10.555  0.0614  0.3933  0.1772
15205TIP3    H167106   1.485   2.530  10.521  0.0232  0.8022 -0.6495
15205TIP3    H267107   1.511   2.678  10.500  1.8876  0.4982 -0.5255
15206TIP3   OH267108   2.747   0.607   1.832 -0.6897  0.6400  0.1187
15206TIP3    H167109   2.819   0.549   1.853 -1.1114 -0.0157 -0.2368
15206TIP3    H267110   2.675   0.549   1.807 -1.2155  1.2957  0.0758
15207TIP3   OH267111   5.869   2.483   0.970  0.2038  0.3681  0.0787
15207TIP3    H167112   5.907   2.557   0.921 -0.5725  0.3630 -0.5511
15207TIP3    H267113   5.865   2.514   1.060  1.0496  0.6256  0.0367
15208TIP3   OH267114   1.066   2.770  15.099  0.1760  0.3197 -1.0412
15208TIP3    H167115   1.071   2.863  15.078  1.8387  0.4091 -0.3599
15208TIP3    H267116   0.978   2.744  15.072 -0.9004  2.4510  0.2490
15209TIP3   OH267117   1.460   3.062  11.032  0.1770 -0.1681 -0.0257
15209TIP3    H167118   1.392   3.010  10.989  1.4029 -1.1408 -0.7993
15209TIP3    H267119   1.411   3.130  11.079 -1.5797 -3.1158  2.5552
15210TIP3   OH267120   2.138   0.348   1.540  0.7025 -0.4075 -0.1502
15210TIP3    H167121   2.206   0.322   1.602  0.8635  1.7989  0.6702
15210TIP3    H267122   2.088   0.415   1.587 -1.4884 -1.3713 -1.0660
15211TIP3   OH267123   4.116   0.737   6.197  0.1327  0.4307 -0.4284
15211TIP3    H167124   4.048   0.793   6.235  2.8184  2.2372  1.9163
15211TIP3    H267125   4.189   0.797   6.179  1.1305 -1.4430 -2.9763
15212TIP3   OH267126   1.362   5.527  10.105  0.1592 -0.4531 -0.1079
15212TIP3    H167127   1.278   5.570  10.090 -0.0559 -1.0092 -0.5112
15212TIP3    H267128   1.341   5.434  10.111  0.9002 -0.7416 -1.5728
15213TIP3   OH267129   1.836   5.369  12.873 -0.0212 -0.0714 -0.0785
15213TIP3    H167130   1.873   5.436  12.931 -0.5318  0.5459 -0.4503
15213TIP3    H267131   1.906   5.348  12.812  0.0980  0.2237 -0.0441
15214TIP3   OH267132   1.893   1.348   0.142 -0.1853 -0.0075  0.1033
15214TIP3    H167133   1.913   1.380   0.230 -0.9159 -1.5762  0.8671
15214TIP3    H267134   1.977   1.326   0.104  0.1447  0.7829  0.3691
15215TIP3   OH267135   5.631   3.868   3.914 -0.1115  0.0425 -0.2454
15215TIP3    H167136   5.655   3.937   3.976 -3.4143  1.2818 -0.2199
15215TIP3    H267137   5.601   3.915   3.836 -1.3696 -1.3521 -0.6286
15216TIP3   OH267138   6.135   5.663  16.665 -0.4669  0.1598 -0.1105
15216TIP3    H167139   6.154   5.638  16.756  1.3918  0.4092 -0.4242
15216TIP3    H267140   6.166   5.589  16.613 -0.6600  0.4363 -0.6169
15217TIP3   OH267141   5.810   5.642   4.886 -0.2322  0.2881  0.1646
15217TIP3    H167142   5.856   5.653   4.803 -1.0755  0.6887 -0.2614
15217TIP3    H267143   5.856   5.700   4.947  1.6075 -1.4823  0.4856
15218TIP3   OH267144   0.001   2.414  15.907  0.0153  0.2974  0.6181
15218TIP3    H167145  -0.086   2.455  15.899  0.4774  1.0473 -0.7165
15218TIP3    H267146   0.040   2.423  15.820  0.6876 -1.7664  0.6739
15219TIP3   OH267147   3.726   1.706  14.794 -0.0148 -0.2211  0.1065
15219TIP3    H167148   3.720   1.714  14.698 -1.6373 -2.4877 -0.0283
15219TIP3    H267149   3.704   1.793  14.826 -1.7007  0.0147 -1.5481
15220TIP3   OH267150   3.872   2.785   5.860 -0.0210  0.8501 -0.1322
15220TIP3    H167151   3.948   2.830   5.824 -0.4444  1.9209  0.2788
15220TIP3    H267152   3.827   2.852   5.912 -0.3226 -0.2097  1.0104
15221TIP3   OH267153   3.837   5.734  11.390  0.1021  0.1676 -0.0178
15221TIP3    H167154   3.765   5.672  11.375 -0.4989  0.7139  0.5744
15221TIP3    H267155   3.888   5.731  11.309  0.7287 -1.9449  0.4327
15222TIP3   OH267156   0.019   3.038   5.606  0.1554 -0.2934  0.2465
15222TIP3    H167157  -0.022   3.069   5.687  0.0177  1.7015 -0.5705
15222TIP3    H267158  -0.054   3.016   5.549  0.1606  3.1453 -1.1655
15223TIP3   OH267159   0.028   5.491   3.932  0.2740 -0.0525  0.5819
15223TIP3    H167160  -0.048   5.538   3.965  0.4506 -0.2728  1.3046
15223TIP3    H267161  -0.008   5.435   3.863 -0.0079  0.7880  0.0411
15224TIP3   OH267162   1.327   3.836   0.275  0.2718  0.5386  0.0528
15224TIP3    H167163   1.337   3.828   0.180 -2.7638 -2.9456 -0.0470
15224TIP3    H267164   1.341   3.930   0.292  0.6214  1.2765 -3.8175
15225TIP3   OH267165   0.452   2.085  13.881  0.2873 -0.1544  0.4783
15225TIP3    H167166   0.379   2.031  13.909  1.4627 -0.6063  2.7892
15225TIP3    H267167   0.412   2.167  13.852 -1.1771 -0.6919  0.9527
15226TIP3   OH267168   1.811   2.894   6.125  0.4956  0.1477  1.2901
15226TIP3    H167169   1.796   2.809   6.167 -1.2523 -0.1688  0.0845
15226TIP3    H267170   1.892   2.883   6.076 -0.8022 -1.5464 -0.5787
15227TIP3   OH267171   2.144   5.727  12.303 -0.1650  0.0745 -0.0955
15227TIP3    H167172   2.215   5.692  12.249  0.1778  0.4901  0.0868
15227TIP3    H267173   2.123   5.812  12.263  0.6658  0.7729  0.9210
15228TIP3   OH267174   6.813   1.996   1.253 -0.1431 -0.2415  0.0504
15228TIP3    H167175   6.845   2.009   1.164 -0.2704  1.7116  0.2747
15228TIP3    H267176   6.890   2.007   1.309 -0.0701 -1.4261  0.1876
15229TIP3   OH267177   0.869   6.803  14.690  0.2331  1.1010 -0.4666
15229TIP3    H167178   0.835   6.721  14.727 -0.6728  2.3235  1.5024
15229TIP3    H267179   0.849   6.796  14.597 -1.4235 -0.1876 -0.0620
15230TIP3   OH267180   2.136   6.199   5.978 -0.2032  0.3441 -0.2380
15230TIP3    H167181   2.052   6.154   5.977 -0.1896  0.3241 -1.0858
15230TIP3    H267182   2.115   6.291   5.967  0.0498  0.0103 -4.4771
15231TIP3   OH267183   0.710   3.507  15.002 -0.1150  0.0110 -0.6242
15231TIP3    H167184   0.694   3.596  15.034 -2.8436 -0.8182  0.4704
15231TIP3    H267185   0.672   3.450  15.069  1.2714 -1.9900 -1.4807
15232TIP3   OH267186   0.186   6.571   6.178  0.4384 -0.2871  0.3353
15232TIP3    H167187   0.136   6.604   6.103 -0.9576 -0.1204  1.3263
15232TIP3    H267188   0.247   6.641   6.200 -2.0148  1.3911  1.9720
15233TIP3   OH267189   6.754   6.685  13.827 -0.8504 -0.1083 -0.3812
15233TIP3    H167190   6.677   6.733  13.857 -0.5628  0.3117 -0.2979
15233TIP3    H267191   6.790   6.645  13.906  0.9248  2.4610  0.2010
15234TIP3   OH267192   3.408   1.327  13.799 -0.4642 -0.4328 -0.1404
15234TIP3    H167193   3.436   1.236  13.787  0.2573 -0.4883  1.7579
15234TIP3    H267194   3.367   1.328  13.886 -0.1400  1.1264  0.0108
15235TIP3   OH267195   5.404   4.491   1.105  0.1139  0.8707  0.4543
15235TIP3    H167196   5.351   4.569   1.087 -2.5001 -0.6366  1.2928
15235TIP3    H267197   5.468   4.488   1.034  0.0267  3.5563  0.2113
15236TIP3   OH267198   4.413   5.416   5.831  0.2002  0.4420  0.0953
15236TIP3    H167199   4.469   5.355   5.782 -0.1329  0.3295 -0.1529
15236TIP3    H267200   4.427   5.501   5.787  0.0884  0.3909 -0.0406
15237TIP3   OH267201   5.397   4.605   5.102  0.1661 -0.2902  0.5068
15237TIP3    H167202   5.479   4.652   5.114  0.0821  0.1198 -0.4675
15237TIP3    H267203   5.340   4.667   5.056 -0.6430 -0.6207  1.0341
15238TIP3   OH267204   1.273   3.862  12.605  0.0721 -0.1633 -0.0001
15238TIP3    H167205   1.293   3.933  12.665  1.0606  0.5955 -1.1964
15238TIP3    H267206   1.309   3.890  12.521 -3.5741  0.0336 -1.6148
15239TIP3   OH267207   2.093   2.980   0.966 -0.4291  0.0380 -0.4099
15239TIP3    H167208   2.059   2.899   1.005 -0.5608 -0.0338 -0.6700
15239TIP3    H267209   2.168   3.003   1.021 -0.6190 -0.0549 -0.1103
15240TIP3   OH267210   3.375   2.187   1.660 -0.6779 -0.0730 -0.2128
15240TIP3    H167211   3.375   2.106   1.609 -1.2053  0.0946 -0.4858
15240TIP3    H267212   3.459   2.228   1.641  0.1828 -1.2279  1.0076
15241TIP3   OH267213   4.354   6.494  14.237  0.2955 -0.0995 -0.4330
15241TIP3    H167214   4.325   6.423  14.295 -0.4668  0.2133 -0.4321
15241TIP3    H267215   4.411   6.547  14.292 -0.1692  0.0123 -0.0507
15242TIP3   OH267216   6.477   2.779  12.546 -0.2598  0.2242 -0.1693
15242TIP3    H167217   6.509   2.868  12.560 -0.2441  0.1138  0.5146
15242TIP3    H267218   6.390   2.778  12.585 -0.6475  0.1968 -1.0076
15243TIP3   OH267219   4.113   5.706  10.688  0.4185  0.2225 -0.0859
15243TIP3    H167220   4.054   5.705  10.613  0.4586  1.1766 -0.1351
15243TIP3    H267221   4.146   5.795  10.691 -2.2421  1.1877  3.1364
15244TIP3   OH267222   3.012   3.984   4.006  0.0920 -0.4957  0.0801
15244TIP3    H167223   3.025   3.899   4.050  0.1669 -0.9744 -0.8672
15244TIP3    H267224   2.947   4.028   4.061 -1.3044 -1.8897 -0.4073
15245TIP3   OH267225   4.070   4.290  12.051 -0.0037  0.4742  0.2508
15245TIP3    H167226   4.078   4.383  12.068 -0.6331  1.0050 -2.1556
15245TIP3    H267227   4.137   4.271  11.984  0.5576 -0.9286  1.1764
15246TIP3   OH267228   0.843   6.044  15.463  0.0795 -0.3332  0.4126
15246TIP3    H167229   0.758   6.005  15.487  0.7969 -2.2192 -0.0495
15246TIP3    H267230   0.822   6.134  15.439 -1.7491 -0.6718  0.6731
15247TIP3   OH267231   1.306   3.793  13.562 -0.0933 -0.4491  0.1608
15247TIP3    H167232   1.273   3.748  13.639 -0.1982 -2.0954 -0.8111
15247TIP3    H267233   1.262   3.750  13.489  1.2090 -0.0108 -0.9128
15248TIP3   OH267234   5.700   4.349  15.361 -0.5158 -0.7061  0.0353
15248TIP3    H167235   5.635   4.288  15.394 -2.5085  0.5028 -1.5755
15248TIP3    H267236   5.650   4.426  15.335  1.8990  1.4621  1.5970
15249TIP3   OH267237   1.019   3.376  16.983  0.1362 -0.1543 -0.0776
15249TIP3    H167238   0.977   3.393  17.067  3.3649  0.5156  1.4819
15249TIP3    H267239   1.039   3.282  16.984 -2.2544 -0.7114 -1.3076
15250TIP3   OH267240   5.065   4.862   4.357 -0.3764  0.0705  0.1308
15250TIP3    H167241   5.101   4.787   4.310 -2.8470  0.2306 -2.0734
15250TIP3    H267242   5.033   4.825   4.439 -0.4604 -1.0650 -0.4079
15251TIP3   OH267243   3.179   0.508   2.531  0.0495 -0.4443 -0.1685
15251TIP3    H167244   3.234   0.473   2.461  0.3964 -0.0318 -0.1031
15251TIP3    H267245   3.134   0.582   2.491  0.4399 -0.0508  0.1113
15252TIP3   OH267246   0.468   6.436  16.264 -0.0005  0.2233  0.3679
15252TIP3    H167247   0.525   6.376  16.311 -1.7268 -3.4345 -1.9784
15252TIP3    H267248   0.379   6.409  16.289 -0.8259  1.9111 -0.6517
15253TIP3   OH267249   3.381   2.787   2.974 -0.6416 -0.7618  0.1997
15253TIP3    H167250   3.326   2.856   3.011  0.1127 -0.6554  1.1427
15253TIP3    H267251   3.394   2.814   2.883 -3.3657 -1.5685 -0.4598
15254TIP3   OH267252   1.393   3.048   6.104 -0.8218 -0.5695 -0.3698
15254TIP3    H167253   1.399   2.977   6.168 -0.3537 -1.2620 -1.1803
15254TIP3    H267254   1.457   3.026   6.037 -0.6376  0.6467 -0.6052
15255TIP3   OH267255   0.266   6.351   2.581 -0.1947  0.1223 -0.3193
15255TIP3    H167256   0.179   6.392   2.575 -0.9722 -1.2762  0.8614
15255TIP3    H267257   0.248   6.261   2.610  1.5398 -0.7512 -1.8708
15256TIP3   OH267258   2.241   2.585   1.968  0.1729 -0.3604 -0.6738
15256TIP3    H167259   2.258   2.618   2.057 -2.1948 -0.2823 -0.2233
15256TIP3    H267260   2.207   2.661   1.921  0.0309 -0.7788 -1.2470
15257TIP3   OH267261   1.309   4.335   5.444  0.0919  0.0127 -0.4568
15257TIP3    H167262   1.316   4.266   5.378 -1.7632 -0.8093  0.1568
15257TIP3    H267263   1.307   4.288   5.528  1.7375  1.0039  0.1682
15258TIP3   OH267264   4.521   1.314   4.505  0.1941 -0.3765 -0.2239
15258TIP3    H167265   4.513   1.250   4.575  2.4440 -0.7325 -0.2680
15258TIP3    H267266   4.493   1.397   4.545 -3.8036 -1.4860 -0.4754
15259TIP3   OH267267   0.889   0.025   4.090 -0.0382 -0.3483  0.0012
15259TIP3    H167268   0.918   0.035   4.181  0.6890 -1.4896 -0.0981
15259TIP3    H267269   0.798  -0.005   4.097 -0.8790  2.1860  0.3178
15260TIP3   OH267270   5.643   3.298  11.754 -0.3236  0.1859  0.3650
15260TIP3    H167271   5.685   3.366  11.807 -0.9691  1.9043 -1.2583
15260TIP3    H267272   5.701   3.288  11.678 -1.7560  1.0938 -0.8798
15261TIP3   OH267273   4.608   1.523   1.523  0.8499 -0.1767 -0.4482
15261TIP3    H167274   4.675   1.587   1.546 -1.1857  1.4270  1.2403
15261TIP3    H267275   4.548   1.570   1.465 -0.0324 -0.9115 -0.1484
15262TIP3   OH267276   1.309   3.973   5.634  0.4087 -0.7380  0.7275
15262TIP3    H167277   1.289   3.993   5.542  2.2678 -0.8201  0.2864
15262TIP3    H267278   1.233   4.006   5.682  0.1835  0.8981 -0.6796
15263TIP3   OH267279   2.856   3.605   5.637 -0.7033 -0.0966 -0.1369
15263TIP3    H167280   2.776   3.622   5.687 -1.1789 -0.5596 -0.7319
15263TIP3    H267281   2.887   3.691   5.612 -1.1419  0.0774 -0.0930
15264TIP3   OH267282   2.052   3.191   0.099 -0.3326 -0.5368  0.4925
15264TIP3    H167283   1.995   3.116   0.117 -1.2958 -0.1144 -0.7254
15264TIP3    H267284   2.133   3.170   0.144 -1.3192 -1.3227  1.9446
15265TIP3   OH267285   5.429   4.222   2.807 -0.0944  0.6516  0.0016
15265TIP3    H167286   5.431   4.150   2.744  0.6647  2.0128 -1.5494
15265TIP3    H267287   5.514   4.218   2.851 -0.3528  0.1475  0.4771
15266TIP3   OH267288   6.511   4.389   4.132  0.1207 -0.0504  0.6543
15266TIP3    H167289   6.493   4.346   4.048 -0.4406  0.6831  0.3963
15266TIP3    H267290   6.553   4.321   4.185 -2.2987 -1.4469  0.8398
15267TIP3   OH267291   0.320   4.400   4.321  0.2305 -0.3440 -0.1028
15267TIP3    H167292   0.227   4.394   4.343  0.5783  0.4888  1.7078
15267TIP3    H267293   0.321   4.441   4.235 -1.0992 -0.8489 -0.3727
15268TIP3   OH267294   6.252   1.430   6.308  0.6516 -0.5944  0.2141
15268TIP3    H167295   6.318   1.440   6.239  2.2294  0.3819  1.8217
15268TIP3    H267296   6.210   1.346   6.289  1.2036 -0.4483 -1.7973
15269TIP3   OH267297   4.911   2.255  13.013  0.1777  0.6417 -0.2173
15269TIP3    H167298   5.001   2.220  13.014  0.1383  0.3949 -2.3781
15269TIP3    H267299   4.922   2.348  12.994 -0.0548  0.5077 -0.9994
15270TIP3   OH267300   5.496   1.676   4.789 -0.0713 -0.0297 -0.2743
15270TIP3    H167301   5.449   1.599   4.758  0.0277 -0.0350 -0.4147
15270TIP3    H267302   5.451   1.750   4.748 -0.2460 -0.0034 -0.0380
15271TIP3   OH267303   5.085   0.589   5.706 -0.1207 -0.2018  0.1334
15271TIP3    H167304   5.093   0.683   5.691 -0.5309 -0.2530 -0.4230
15271TIP3    H267305   5.139   0.572   5.783  0.3121  0.4150 -0.0345
15272TIP3   OH267306   3.203   0.561   0.781 -0.1031 -0.1804 -0.4154
15272TIP3    H167307   3.279   0.618   0.795 -0.0414 -0.3997  0.1402
15272TIP3    H267308   3.165   0.550   0.868 -0.4385 -0.5397 -0.6082
15273TIP3   OH267309   5.092   0.707  16.367 -0.1326 -0.0419  0.4585
15273TIP3    H167310   5.176   0.677  16.402 -0.1254  0.2821  0.7183
15273TIP3    H267311   5.027   0.667  16.424 -0.1600 -0.3005  0.2493
15274TIP3   OH267312   0.054   2.680   4.547 -0.0826  0.0311 -0.0259
15274TIP3    H167313   0.088   2.621   4.615  0.9942 -0.2232 -0.7741
15274TIP3    H267314   0.128   2.692   4.487 -1.4542 -0.8889 -1.9326
15275TIP3   OH267315   6.540   5.437  10.978 -0.2240  0.1167 -0.4394
15275TIP3    H167316   6.590   5.517  10.958 -1.7535  0.8804 -1.3082
15275TIP3    H267317   6.449   5.462  10.962 -0.7014 -1.8769 -0.8899
15276TIP3   OH267318   4.372   5.873  12.809 -0.1886  0.0902 -0.5589
15276TIP3    H167319   4.339   5.958  12.839  0.8225  0.0252  0.7970
15276TIP3    H267320   4.322   5.854  12.730  1.9836  3.6322 -2.9196
15277TIP3   OH267321   6.426   4.008   5.496  0.0375  0.3763 -0.5538
15277TIP3    H167322   6.510   4.008   5.449  0.0959 -0.1149 -0.4434
15277TIP3    H267323   6.448   4.036   5.585  0.1780 -0.3912 -0.3483
15278TIP3   OH267324   4.963   3.343  13.386 -0.0754 -0.2672  0.0156
15278TIP3    H167325   5.036   3.311  13.334  0.6281 -0.8703  1.3328
15278TIP3    H267326   4.988   3.432  13.411  0.7964 -0.9062  1.4931
15279TIP3   OH267327   0.335   5.981  11.100  0.4946  0.0067 -0.1472
15279TIP3    H167328   0.364   5.983  11.009  0.1883  0.3892 -0.2402
15279TIP3    H267329   0.414   6.003  11.151  0.9445 -1.3474 -0.2396
15280TIP3   OH267330   6.571   0.310  11.969 -0.2572  0.4550 -0.7188
15280TIP3    H167331   6.559   0.401  11.943  0.3920  1.3127  1.8579
15280TIP3    H267332   6.666   0.297  11.971 -0.3270  0.0848  0.1748
15281TIP3   OH267333   0.126   0.262  15.882  0.1463  0.0603 -0.3911
15281TIP3    H167334   0.033   0.264  15.903  0.2244  2.0555 -0.1904
15281TIP3    H267335   0.153   0.173  15.903 -1.1446  0.2025  2.0318
15282TIP3   OH267336   5.652   4.389   3.139 -0.4160 -0.3713 -0.6620
15282TIP3    H167337   5.564   4.407   3.106 -0.3199 -1.2433 -1.4174
15282TIP3    H267338   5.682   4.314   3.088  0.7408 -0.1285 -0.3547
15283TIP3   OH267339   3.021   6.053  16.470  0.2306 -0.2636 -0.2815
15283TIP3    H167340   2.992   5.969  16.434 -1.9190  0.1368  0.4506
15283TIP3    H267341   3.054   6.032  16.557  0.4165 -0.4540 -0.3969
15284TIP3   OH267342   1.472   6.599   5.246 -0.0576  0.2529  0.0882
15284TIP3    H167343   1.556   6.635   5.276  0.6841 -0.9328 -0.5542
15284TIP3    H267344   1.415   6.605   5.322  0.7820  0.5097  0.7048
15285TIP3   OH267345   2.978   4.633   3.357  0.2858  0.1934 -0.2884
15285TIP3    H167346   2.936   4.584   3.427  0.7288 -0.2151 -0.3054
15285TIP3    H267347   3.072   4.625   3.374  0.3551  1.2113 -0.1764
15286TIP3   OH267348   3.097   3.307  11.690 -0.0372 -0.2793 -0.3605
15286TIP3    H167349   3.121   3.241  11.755  0.7799 -0.0451 -0.4079
15286TIP3    H267350   3.002   3.305  11.687 -0.1357  0.2603  1.4477
15287TIP3   OH267351   1.079   4.442  11.487  0.3723  0.6955 -0.2373
15287TIP3    H167352   1.040   4.528  11.471 -0.3095  0.4899  0.2684
15287TIP3    H267353   1.071   4.396  11.403  0.9104  1.1853 -0.5602
15288TIP3   OH267354   1.963   1.858  11.743 -0.2759  0.5176  0.2678
15288TIP3    H167355   1.892   1.900  11.791 -1.9347 -2.2942  0.4240
15288TIP3    H267356   1.971   1.771  11.783  1.6519 -0.0684 -1.3016
15289TIP3   OH267357   5.407   1.235   1.531  0.1400 -0.4550  0.4342
15289TIP3    H167358   5.365   1.149   1.540  1.5021 -1.1053  0.5916
15289TIP3    H267359   5.463   1.243   1.607  0.3925  0.3784  0.1654
15290TIP3   OH267360   1.923   0.786  12.026  0.1680 -0.0858  0.0771
15290TIP3    H167361   1.913   0.874  11.989 -1.1753 -0.0674  0.4429
15290TIP3    H267362   1.874   0.729  11.967  0.5805 -0.5072  0.1369
15291TIP3   OH267363   1.821   1.251   6.597 -0.4018 -0.2963 -0.3202
15291TIP3    H167364   1.854   1.193   6.666  0.8845  0.1757 -0.5404
15291TIP3    H267365   1.843   1.206   6.516 -0.2944  0.0306 -0.4689
15292TIP3   OH267366   4.637   6.204   0.999 -0.1385  0.3059 -0.0724
15292TIP3    H167367   4.582   6.242   1.068 -1.1361  1.9221 -1.7343
15292TIP3    H267368   4.675   6.126   1.040 -3.4936 -0.7476  1.1807
15293TIP3   OH267369   3.739   2.275   2.523  0.1616 -0.6834 -0.4163
15293TIP3    H167370   3.648   2.296   2.542 -0.2798 -3.4849  0.8156
15293TIP3    H267371   3.739   2.250   2.430 -0.8527 -3.1206  0.1925
15294TIP3   OH267372   5.480   6.185  16.576 -0.1830 -0.5217  0.4012
15294TIP3    H167373   5.459   6.119  16.642  0.1049  0.1299  1.1488
15294TIP3    H267374   5.407   6.247  16.580 -0.9727 -1.3356 -1.0224
15295TIP3   OH267375   0.877   1.817  16.706  0.0442  0.2435  0.1672
15295TIP3    H167376   0.918   1.785  16.625  2.4228  2.5111  0.4064
15295TIP3    H267377   0.784   1.802  16.693  0.4640 -0.1917 -2.6670
15296TIP3   OH267378   0.787   6.230  14.939  0.2022 -0.1044  0.1550
15296TIP3    H167379   0.762   6.154  14.991 -0.2697  0.2939  0.5248
15296TIP3    H267380   0.792   6.198  14.849  0.3428 -0.6434  0.3525
15297TIP3   OH267381   4.226   5.350  11.209  0.5649 -0.7166  0.2954
15297TIP3    H167382   4.290   5.308  11.152 -1.2049 -1.9376 -0.8601
15297TIP3    H267383   4.222   5.441  11.179  1.8978 -0.5635  0.5431
15298TIP3   OH267384   5.814   2.104   2.169 -0.1897  0.6667 -0.5757
15298TIP3    H167385   5.836   2.173   2.106 -0.7071  0.8724 -0.5315
15298TIP3    H267386   5.799   2.026   2.115  1.4384  0.3136 -0.5520
15299TIP3   OH267387   5.472   2.850  15.444  0.8267 -0.1372 -0.0190
15299TIP3    H167388   5.452   2.921  15.382  1.6335 -1.4967 -1.8947
15299TIP3    H267389   5.437   2.771  15.402  1.3735 -1.0887  1.2845
15300TIP3   OH267390   5.869   0.103  14.064 -0.9389 -0.3261 -0.3578
15300TIP3    H167391   5.824   0.019  14.066 -0.3548 -0.6451 -0.3249
15300TIP3    H267392   5.816   0.158  14.007  0.0004 -1.4809 -2.3856
15301TIP3   OH267393   0.363   1.698  15.540 -0.0195  1.0672  0.2015
15301TIP3    H167394   0.432   1.632  15.545 -2.2201 -1.2475  1.0309
15301TIP3    H267395   0.310   1.672  15.465 -1.0775  1.7198  0.7014
15302TIP3   OH267396   0.742   0.370   0.616 -0.0097 -0.1745 -0.2108
15302TIP3    H167397   0.700   0.285   0.629  0.8280 -0.6331 -0.4379
15302TIP3    H267398   0.731   0.388   0.523  1.7392 -1.0904 -0.6182
15303TIP3   OH267399   1.865   2.417  12.865  0.2329 -0.2734 -0.0343
15303TIP3    H167400   1.935   2.441  12.804  0.0821 -0.2571 -0.2045
15303TIP3    H267401   1.848   2.325  12.846  1.6992 -0.8793  1.5109
15304TIP3   OH267402   5.941   3.287   4.017 -0.6582 -0.1566  0.0930
15304TIP3    H167403   5.872   3.297   3.952 -0.4004 -1.2684 -0.3646
15304TIP3    H267404   5.916   3.208   4.067  0.5637 -0.8954 -0.4478
15305TIP3   OH267405   0.185   5.023  16.229  0.2913 -0.2912  0.0229
15305TIP3    H167406   0.219   5.075  16.302 -0.6394 -0.7525  0.7839
15305TIP3    H267407   0.131   5.085  16.179  1.2018  0.1132 -0.4831
15306TIP3   OH267408   2.286   0.256  10.900 -0.3189  0.3159 -0.0603
15306TIP3    H167409   2.304   0.332  10.845 -0.7257 -1.4866 -2.8027
15306TIP3    H267410   2.192   0.261  10.918 -0.4193  0.2964 -0.5525
15307TIP3   OH267411   1.463   4.110  15.544  0.6617 -0.0362  0.2061
15307TIP3    H167412   1.490   4.176  15.480  0.4031 -2.3260 -2.4092
15307TIP3    H267413   1.545   4.072  15.576  0.7758  0.6237  0.7046
15308TIP3   OH267414   4.242   6.509   2.476  0.7193 -0.5421 -0.0303
15308TIP3    H167415   4.149   6.501   2.500  0.4313 -0.4773 -1.0815
15308TIP3    H267416   4.284   6.544   2.554 -0.1929 -0.2834  0.3567
15309TIP3   OH267417   1.205   5.803   4.168 -0.2586  0.2986 -0.4326
15309TIP3    H167418   1.264   5.779   4.096 -1.1860  0.1631 -1.1539
15309TIP3    H267419   1.118   5.780   4.136 -0.8266  1.6491  0.1407
15310TIP3   OH267420   5.259   3.007   2.274 -0.3565  0.0473  0.9639
15310TIP3    H167421   5.236   2.914   2.269  0.4027 -0.0482 -0.9076
15310TIP3    H267422   5.175   3.052   2.272 -0.7554 -0.5961  2.2823
15311TIP3   OH267423   4.802   6.079  11.382 -0.0454 -0.0712  0.4700
15311TIP3    H167424   4.784   6.122  11.299  2.4521  1.1774  0.5447
15311TIP3    H267425   4.883   6.030  11.366  0.0436 -0.4203  1.9682
15312TIP3   OH267426   0.561   5.256  14.902 -0.3112 -0.3396  0.7631
15312TIP3    H167427   0.540   5.185  14.841 -0.4950 -0.8370  1.4013
15312TIP3    H267428   0.636   5.300  14.862 -0.2614 -0.8304  0.3106
15313TIP3   OH267429   0.440   6.565  14.892  0.1441 -0.5326  0.1588
15313TIP3    H167430   0.451   6.612  14.974  1.0088 -1.4428  0.5869
15313TIP3    H267431   0.393   6.485  14.917  0.0796 -0.6338 -0.2873
15314TIP3   OH267432   0.466   4.629  15.314  0.4663 -0.0741 -0.4311
15314TIP3    H167433   0.513   4.546  15.310  0.7505  0.0563  0.1606
15314TIP3    H267434   0.427   4.631  15.402 -2.4231 -1.1441 -1.6351
15315TIP3   OH267435   6.452   3.932   2.329  0.3489  0.3048  0.7279
15315TIP3    H167436   6.503   3.975   2.397 -0.5924  2.6273  0.0215
15315TIP3    H267437   6.493   3.846   2.319  1.6977  0.6599  2.8413
15316TIP3   OH267438   5.353   5.594   5.571 -0.0758  0.3250  0.4451
15316TIP3    H167439   5.375   5.685   5.552 -0.3196  0.5604  1.2861
15316TIP3    H267440   5.431   5.558   5.613 -0.3159  0.4131  0.9759
15317TIP3   OH267441   2.253   6.243   0.710 -0.4700 -0.2499 -0.2170
15317TIP3    H167442   2.234   6.236   0.804 -1.5059  0.9704 -0.3111
15317TIP3    H267443   2.348   6.254   0.706 -0.3641 -0.7804  0.6637
15318TIP3   OH267444   5.344   6.666  14.462  0.3497  0.0840  0.1157
15318TIP3    H167445   5.366   6.745  14.414  0.6312 -0.4275 -0.6117
15318TIP3    H267446   5.412   6.603  14.438  2.0511  0.6409  3.3199
15319TIP3   OH267447   2.925   6.110   0.485  0.8407  0.3972  0.4962
15319TIP3    H167448   2.852   6.168   0.466  1.1188  1.2444  1.9644
15319TIP3    H267449   2.895   6.023   0.458  0.1243  1.0941 -0.9386
15320TIP3   OH267450   4.020   4.697   3.559 -0.4068  0.0411  0.1677
15320TIP3    H167451   3.942   4.662   3.515  0.1419 -1.7770  0.5823
15320TIP3    H267452   4.012   4.666   3.649  0.8449 -0.2733  0.1821
15321TIP3   OH267453   3.569   3.617  14.310  0.0550 -0.2391 -0.2978
15321TIP3    H167454   3.495   3.618  14.249  0.0193 -1.9296 -0.3095
15321TIP3    H267455   3.617   3.697  14.291 -1.8300  0.9449 -0.2206
15322TIP3   OH267456   4.868   1.882   0.928 -0.0966  0.4370  0.4346
15322TIP3    H167457   4.815   1.809   0.961  1.4488 -3.1522 -4.4894
15322TIP3    H267458   4.815   1.920   0.859  0.5491  1.8172  0.6968
15323TIP3   OH267459   2.928   1.207  14.567 -0.4679  0.1308  0.5589
15323TIP3    H167460   3.020   1.231  14.552 -1.0866  1.0573 -1.8945
15323TIP3    H267461   2.928   1.111  14.566  0.6741  0.0927  2.0057
15324TIP3   OH267462   0.377   1.538  13.374  0.0480 -0.2553  0.1079
15324TIP3    H167463   0.307   1.585  13.329  0.8531  0.7540 -0.1347
15324TIP3    H267464   0.334   1.465  13.417 -1.1762  0.4661  0.1234
15325TIP3   OH267465   4.294   3.998  14.375 -0.5157  0.5242  0.3859
15325TIP3    H167466   4.311   4.064  14.443 -0.7282  0.1218  0.8405
15325TIP3    H267467   4.376   3.992  14.326  0.4392 -0.8313  2.0623
15326TIP3   OH267468   2.051   2.672  11.573 -0.7668 -0.4081 -0.3014
15326TIP3    H167469   2.036   2.759  11.610  0.4676 -0.7007  0.9490
15326TIP3    H267470   2.085   2.620  11.647 -0.1687 -1.5575 -1.3631
15327TIP3   OH267471   1.520   4.140  12.697  0.4756 -0.1904 -0.1399
15327TIP3    H167472   1.614   4.152  12.685  0.4691 -0.0714 -0.0757
15327TIP3    H267473   1.480   4.178  12.618  0.4109  0.9542  0.4306
15328TIP3   OH267474   0.988   2.443  15.800  0.4478 -0.5397  0.4347
15328TIP3    H167475   1.051   2.513  15.813  1.3825 -1.5631  1.4982
15328TIP3    H267476   0.907   2.488  15.775  1.0666  0.9035  0.9856
15329TIP3   OH267477   4.045   3.032   1.751 -0.0365 -0.4245 -0.3423
15329TIP3    H167478   4.031   3.079   1.668 -1.9146 -2.0000 -0.9491
15329TIP3    H267479   4.086   3.097   1.808 -0.0603  1.1341 -2.0360
15330TIP3   OH267480   4.594   2.644   1.793  0.2040 -0.1480  0.2549
15330TIP3    H167481   4.578   2.739   1.796 -1.2800 -0.3494 -0.5632
15330TIP3    H267482   4.576   2.614   1.882 -0.1310  0.2328  0.3198
15331TIP3   OH267483   4.991   1.552  13.194  0.1166 -0.9003 -0.1001
15331TIP3    H167484   4.912   1.579  13.148 -0.3607 -0.6736  0.8333
15331TIP3    H267485   4.986   1.457  13.198  0.7877 -1.0031 -1.6155
15332TIP3   OH267486   4.254   1.630   5.354 -0.4841  0.4213  0.1171
15332TIP3    H167487   4.249   1.720   5.322  1.8528  0.4710 -0.2138
15332TIP3    H267488   4.346   1.619   5.379 -0.1891 -2.6411 -2.1268
15333TIP3   OH267489   0.689   0.642  15.498 -0.0732 -0.5735 -0.6394
15333TIP3    H167490   0.614   0.701  15.504 -1.0131 -1.8215  0.2293
15333TIP3    H267491   0.683   0.587  15.577  0.6351 -1.9700 -1.5254
15334TIP3   OH267492   1.291   4.861   0.775  0.0817  0.0482 -0.0319
15334TIP3    H167493   1.369   4.912   0.795  1.2145 -1.8638  0.6262
15334TIP3    H267494   1.323   4.791   0.717 -1.1896 -0.6253  0.0704
15335TIP3   OH267495   5.446   0.417  14.404 -0.2884 -0.3798 -0.2788
15335TIP3    H167496   5.528   0.461  14.382 -2.4070  3.1376 -1.5023
15335TIP3    H267497   5.425   0.366  14.326  0.6656 -1.2231  0.0053
15336TIP3   OH267498   6.727   1.186   3.690  0.6462 -0.0948 -0.7116
15336TIP3    H167499   6.696   1.256   3.748  1.3051  0.8143 -1.4350
15336TIP3    H267500   6.819   1.207   3.676  0.8315 -1.0878 -0.9870
15337TIP3   OH267501   4.058   4.997  12.162 -0.0952  0.0916 -0.0376
15337TIP3    H167502   4.046   5.072  12.104  2.3522  1.7944  1.5711
15337TIP3    H267503   4.113   4.937  12.113  0.2454  0.6038 -0.2838
15338TIP3   OH267504   3.286   3.024  14.316 -0.5836 -0.3568 -0.0744
15338TIP3    H167505   3.381   3.032  14.304 -0.6521  0.1343 -0.3182
15338TIP3    H267506   3.249   3.051  14.232 -0.8975 -1.9557 -0.4540
15339TIP3   OH267507   0.507   1.930  15.603  0.1713  0.4412  0.2265
15339TIP3    H167508   0.428   1.958  15.556  1.3253  0.0736 -1.9957
15339TIP3    H267509   0.521   1.840  15.574  2.5788  1.1789 -1.0203
15340TIP3   OH267510   6.320   6.474  13.378  0.3604  0.2059  0.4211
15340TIP3    H167511   6.398   6.487  13.324 -0.5328  1.8200 -0.5424
15340TIP3    H267512   6.354   6.456  13.465  1.8139 -0.1957 -0.2067
15341TIP3   OH267513   1.282   5.438   2.379  0.4036 -0.0381 -0.1339
15341TIP3    H167514   1.237   5.354   2.384 -0.3963  0.3873 -0.1867
15341TIP3    H267515   1.307   5.446   2.287 -0.1012  0.0854 -0.2603
15342TIP3   OH267516   0.953   3.233  12.284 -0.1005 -0.9663 -0.3945
15342TIP3    H167517   0.931   3.316  12.242 -1.2366 -0.5291  1.0411
15342TIP3    H267518   1.007   3.187  12.219  1.5848  1.4078 -0.7080
15343TIP3   OH267519   0.456   0.532   0.570  0.1176 -0.2669  0.5529
15343TIP3    H167520   0.441   0.623   0.546  1.3791  0.2335  1.6223
15343TIP3    H267521   0.378   0.506   0.619  0.9090  1.0660  2.5630
15344TIP3   OH267522   0.503   2.434   5.032  0.0567 -0.1874  0.0650
15344TIP3    H167523   0.551   2.514   5.053 -0.8820  1.1012 -2.4901
15344TIP3    H267524   0.412   2.463   5.022  0.2085 -0.9271 -4.1808
15345TIP3   OH267525   5.311   4.019   1.825 -0.4226  0.5174 -0.1631
15345TIP3    H167526   5.251   4.031   1.752 -0.8665  1.5601  0.3563
15345TIP3    H267527   5.332   4.108   1.853  0.4709  0.1397  0.3803
15346TIP3   OH267528   6.352   2.521  12.845 -0.3838 -0.2615 -0.2358
15346TIP3    H167529   6.441   2.487  12.838 -0.6459 -1.3439  1.3587
15346TIP3    H267530   6.352   2.600  12.792  1.6771  0.0304  0.1758
15347TIP3   OH267531   2.284   6.550  14.349  0.2297 -0.5313  0.4744
15347TIP3    H167532   2.292   6.616  14.418  0.7682  0.5322 -0.5994
15347TIP3    H267533   2.289   6.599  14.267 -0.6529 -1.7597 -0.3345
15348TIP3   OH267534   3.904   6.168  15.984 -0.3058  0.0374 -0.1820
15348TIP3    H167535   3.894   6.098  15.920  2.3254 -0.7714  0.2480
15348TIP3    H267536   3.965   6.229  15.944 -0.2964  0.5963  0.6700
15349TIP3   OH267537   4.607   6.679  11.499 -0.2820 -0.3892 -0.0641
15349TIP3    H167538   4.679   6.615  11.502  1.2885  1.3629  0.5370
15349TIP3    H267539   4.554   6.652  11.425  0.9455 -1.7857 -0.4552
15350TIP3   OH267540   5.777   1.356   2.022 -0.3518 -0.2171  0.2693
15350TIP3    H167541   5.716   1.361   2.097 -0.1354  1.1793  0.3566
15350TIP3    H267542   5.846   1.296   2.052  0.9869  2.1425  2.1223
15351TIP3   OH267543   5.633   4.029  13.894  0.0977  0.4625  0.1170
15351TIP3    H167544   5.727   4.031  13.907  0.4940  0.9463 -2.6228
15351TIP3    H267545   5.597   4.014  13.982  2.7105 -0.2791  1.0955
15352TIP3   OH267546   2.728   1.124   4.015 -0.8298  0.2278 -0.0810
15352TIP3    H167547   2.819   1.145   3.992 -0.6849  1.4049  1.4846
15352TIP3    H267548   2.704   1.189   4.081 -1.7656 -1.9644  1.8255
15353TIP3   OH267549   5.656   5.610  11.368 -0.0851  0.2839 -0.2818
15353TIP3    H167550   5.727   5.666  11.401  0.5308  0.3601 -1.6601
15353TIP3    H267551   5.693   5.570  11.289 -1.3984 -0.0937 -0.7158
15354TIP3   OH267552   5.668   2.199  16.545  0.2086 -0.3240 -0.2398
15354TIP3    H167553   5.612   2.160  16.612  2.1210  1.7804  2.6789
15354TIP3    H267554   5.740   2.136  16.534  0.4243 -0.2077  0.4639
15355TIP3   OH267555   0.421   4.565  17.232 -0.1217 -0.1251  0.2155
15355TIP3    H167556   0.472   4.534  17.157  0.5780 -1.1908  1.1157
15355TIP3    H267557   0.330   4.546  17.208  0.0406  0.1462 -0.6419
15356TIP3   OH267558   4.984   0.656  11.882  0.4171  0.3197  0.0081
15356TIP3    H167559   5.039   0.713  11.935  1.3264  0.4073 -1.0341
15356TIP3    H267560   5.037   0.578  11.866 -0.4502 -0.4104  0.5769
15357TIP3   OH267561   2.721   4.535   1.275  0.3217  0.4363  0.2736
15357TIP3    H167562   2.627   4.542   1.258  0.7850  2.2389 -1.8168
15357TIP3    H267563   2.734   4.445   1.306 -1.9772 -0.0170 -0.0044
15358TIP3   OH267564   0.461   1.617   0.049  0.1736 -0.5566  0.6221
15358TIP3    H167565   0.414   1.647  -0.029  0.9009 -0.0303  0.3897
15358TIP3    H267566   0.519   1.548   0.017 -0.2237 -1.0005  0.8625
15359TIP3   OH267567   6.174   5.881  15.404 -0.1896  0.0403 -0.3511
15359TIP3    H167568   6.204   5.970  15.419  0.0643 -0.1822  0.4742
15359TIP3    H267569   6.196   5.833  15.484  0.8811 -1.0941 -1.2978
15360TIP3   OH267570   1.701   2.998  14.891 -0.2422 -0.1022 -0.2512
15360TIP3    H167571   1.611   3.030  14.882 -0.3651 -0.5834 -0.8442
15360TIP3    H267572   1.740   3.014  14.805 -0.1809 -1.1246 -0.4264
15361TIP3   OH267573   1.535   3.172   0.475 -0.2217  0.2942  0.2831
15361TIP3    H167574   1.508   3.130   0.557 -0.0308  0.1246  0.2599
15361TIP3    H267575   1.454   3.186   0.427 -0.1740 -1.1087 -0.2146
15362TIP3   OH267576   3.453   4.678  11.951  0.1063 -0.1934  0.3376
15362TIP3    H167577   3.418   4.655  12.038 -1.4390  1.6222  0.2234
15362TIP3    H267578   3.404   4.623  11.890 -0.1425 -0.1127  0.4636
15363TIP3   OH267579   1.726   5.806   0.811 -0.6207 -0.3230 -0.5493
15363TIP3    H167580   1.643   5.832   0.851 -1.7499 -2.5972 -1.3379
15363TIP3    H267581   1.704   5.732   0.755  1.9340 -0.9179 -0.8512
15364TIP3   OH267582   6.179   2.289   0.844  0.0268  0.2903 -0.1264
15364TIP3    H167583   6.254   2.236   0.817  1.5618  0.3112  3.8240
15364TIP3    H267584   6.204   2.379   0.823  0.6905  0.1915  0.2141
15365TIP3   OH267585   0.600   2.085   0.474 -0.0570 -0.9770  0.1482
15365TIP3    H167586   0.523   2.033   0.449 -0.5119  0.7624 -2.2315
15365TIP3    H267587   0.661   2.073   0.401  0.5959  0.2657  0.4795
15366TIP3   OH267588   5.564   1.852   0.736  0.5203 -0.6454 -0.2217
15366TIP3    H167589   5.626   1.842   0.664 -0.8442 -0.2394 -1.4830
15366TIP3    H267590   5.563   1.946   0.753  2.1485 -0.9314  1.5222
15367TIP3   OH267591   4.852   3.010  15.531  0.2223  0.4320 -0.1744
15367TIP3    H167592   4.825   3.095  15.496 -1.3837 -0.4374 -1.0518
15367TIP3    H267593   4.948   3.015  15.530  0.1565  2.3895  0.1759
15368TIP3   OH267594   6.238   0.113  15.602 -0.1325  0.2719 -0.0775
15368TIP3    H167595   6.210   0.072  15.684 -0.3990 -0.7758 -0.6834
15368TIP3    H267596   6.179   0.188  15.592  0.0470  0.5383  0.7996
15369TIP3   OH267597   3.430   1.660   2.664 -0.5844  0.1716  0.4781
15369TIP3    H167598   3.400   1.735   2.716 -1.8807 -1.6834  2.5048
15369TIP3    H267599   3.467   1.600   2.728  0.5987 -0.8613 -1.1362
15370TIP3   OH267600   1.702   1.838   5.985  0.0043  0.6390  0.3034
15370TIP3    H167601   1.714   1.748   6.014 -2.0638 -0.4720 -2.1257
15370TIP3    H267602   1.615   1.863   6.018  0.5005  1.7303  0.8390
15371TIP3   OH267603   2.554   5.988   2.243 -0.3177  0.1162 -0.0056
15371TIP3    H167604   2.496   6.053   2.205  0.8106  0.5129 -1.0843
15371TIP3    H267605   2.520   5.973   2.332 -0.8139  1.8706  0.1008
15372TIP3   OH267606   4.920   6.003   4.683  0.3986 -0.5180  0.2851
15372TIP3    H167607   4.857   5.994   4.755 -1.2250 -0.6946 -1.1253
15372TIP3    H267608   4.967   5.920   4.681 -0.2864 -0.9155  0.4679
15373TIP3   OH267609   6.555   4.969   2.489  0.3990  0.1149  0.3566
15373TIP3    H167610   6.567   5.053   2.533 -1.6897  1.3919 -1.4301
15373TIP3    H267611   6.564   4.989   2.396 -0.1598 -1.6333 -0.0864
15374TIP3   OH267612   2.583   4.717  12.773  0.1656  0.0434 -0.3190
15374TIP3    H167613   2.587   4.809  12.799  0.8607 -0.4600  1.4790
15374TIP3    H267614   2.492   4.703  12.749 -0.1539  0.9735  0.3007
15375TIP3   OH267615   2.628   1.956  13.288  0.1609 -0.2692  0.1416
15375TIP3    H167616   2.648   2.039  13.331 -1.6750 -0.0060  0.5203
15375TIP3    H267617   2.558   1.977  13.226 -0.0251 -1.4360 -0.0631
15376TIP3   OH267618   4.230   6.645  16.118  0.1985 -0.1961  0.0338
15376TIP3    H167619   4.203   6.680  16.034 -0.7968 -0.6235  0.1627
15376TIP3    H267620   4.221   6.550  16.108 -0.8301 -0.2091  0.9023
15377TIP3   OH267621   1.673   2.906   0.640  0.5442 -0.2808 -0.2678
15377TIP3    H167622   1.753   2.958   0.651  0.8516 -1.2589  2.7126
15377TIP3    H267623   1.603   2.970   0.633  1.1759  0.6022  1.1413
15378TIP3   OH267624   5.211   0.675  14.267  0.3613 -0.3490 -0.4033
15378TIP3    H167625   5.196   0.740  14.198  2.4893 -1.0379 -1.5554
15378TIP3    H267626   5.127   0.668  14.311 -0.2786  2.1944 -1.1177
15379TIP3   OH267627   0.386   6.105  13.538  0.5030 -0.1139  0.3050
15379TIP3    H167628   0.442   6.182  13.551  0.2272 -0.0104  0.9067
15379TIP3    H267629   0.441   6.031  13.566  0.6446 -0.1021  0.0599
15380TIP3   OH267630   0.963   4.769  17.169  0.1785 -0.1343  0.0164
15380TIP3    H167631   1.029   4.761  17.101  1.5832  1.6854  1.1025
15380TIP3    H267632   0.970   4.688  17.219  0.0622 -0.8958 -1.1772
15381TIP3   OH267633   4.353   6.591   0.034  0.2392 -0.0407 -0.8216
15381TIP3    H167634   4.343   6.686   0.039  1.9902  0.3455 -3.4343
15381TIP3    H267635   4.316   6.568  -0.051  0.4467 -1.6069 -0.4940
15382TIP3   OH267636   4.958   0.920   4.042 -0.0969 -0.4241 -0.2217
15382TIP3    H167637   4.867   0.901   4.063 -1.1611  2.0368 -2.3425
15382TIP3    H267638   4.988   0.843   3.993 -1.8371 -0.1943 -1.7083
15383TIP3   OH267639   3.191   3.152  14.107 -0.2937  0.5310  0.1894
15383TIP3    H167640   3.160   3.205  14.180  1.7267  0.0906  1.3940
15383TIP3    H267641   3.222   3.215  14.042 -2.5023  0.9345 -0.5194
15384TIP3   OH267642   3.621   0.873   5.294 -0.2500 -0.3717  0.2211
15384TIP3    H167643   3.573   0.880   5.211  0.4827  0.3080 -0.1451
15384TIP3    H267644   3.566   0.816   5.348 -1.6945  0.7524 -0.0400
15385TIP3   OH267645   6.819   0.376   4.693  0.0751  0.1019  0.4367
15385TIP3    H167646   6.762   0.360   4.767  2.8081 -1.3012  2.3360
15385TIP3    H267647   6.785   0.320   4.623 -0.5382 -1.1427  1.7150
15386TIP3   OH267648   1.191   6.200   5.877 -0.3107 -0.0892  0.0452
15386TIP3    H167649   1.128   6.255   5.831  0.9339  0.8078 -0.5854
15386TIP3    H267650   1.157   6.111   5.864 -0.1575  0.1554 -2.3549
15387TIP3   OH267651   4.882   6.544   1.356 -0.1421 -0.3501 -0.2973
15387TIP3    H167652   4.910   6.627   1.317  0.0254  0.7111  2.0139
15387TIP3    H267653   4.797   6.563   1.395  0.7192 -0.7353  1.8481
15388TIP3   OH267654   3.389   0.650  14.629 -0.4063  0.4829 -0.6414
15388TIP3    H167655   3.477   0.618  14.606 -1.1648 -1.1055 -1.3792
15388TIP3    H267656   3.404   0.706  14.705  1.2578  0.2244 -0.7572
15389TIP3   OH267657   1.205   1.215   2.082 -0.1792 -0.5897 -0.0366
15389TIP3    H167658   1.257   1.283   2.124  0.3290 -0.3727 -1.0037
15389TIP3    H267659   1.230   1.134   2.126 -0.4791 -0.2135  0.8318
15390TIP3   OH267660   2.031   3.025   2.045  0.0882  0.1856 -0.0920
15390TIP3    H167661   2.021   3.054   1.954  1.9196  0.5639 -0.1854
15390TIP3    H267662   2.120   3.051   2.069 -0.4206  0.1921  1.8517
15391TIP3   OH267663   4.765   3.194  16.428  0.4714  0.0581  0.0282
15391TIP3    H167664   4.810   3.278  16.424  0.4814  0.1127  1.1018
15391TIP3    H267665   4.731   3.181  16.340  1.3282  0.7130 -0.4081
15392TIP3   OH267666   5.948   5.519  11.826  0.8174  0.0611 -0.5523
15392TIP3    H167667   5.996   5.601  11.830  0.3270  0.2949  0.7741
15392TIP3    H267668   5.877   5.535  11.764  0.9093  0.5360 -0.5336
15393TIP3   OH267669   1.149   6.617   3.415 -0.1451 -0.4600  0.0322
15393TIP3    H167670   1.059   6.638   3.440  0.0697 -1.5106  1.7588
15393TIP3    H267671   1.149   6.522   3.402  0.8386 -0.5364  0.5764
15394TIP3   OH267672   6.098   3.291   6.390 -0.3649  0.3477 -0.4330
15394TIP3    H167673   6.138   3.238   6.320 -1.0036 -0.0857 -0.4713
15394TIP3    H267674   6.098   3.380   6.355 -1.8322 -0.0511 -1.5192
15395TIP3   OH267675   5.670   2.576   2.219  0.3035 -0.0382  0.0892
15395TIP3    H167676   5.734   2.539   2.279 -0.7685  0.9223  1.8694
15395TIP3    H267677   5.723   2.616   2.149  1.5348 -1.9423 -0.1025
15396TIP3   OH267678   1.967   4.888  15.157 -0.2954 -0.2896 -0.3580
15396TIP3    H167679   2.042   4.937  15.188 -1.0594  1.3215 -0.9677
15396TIP3    H267680   1.999   4.839  15.081  0.6122 -1.1766  0.6000
15397TIP3   OH267681   5.584   3.457   3.228  0.2483 -0.4079 -0.1474
15397TIP3    H167682   5.554   3.379   3.183 -0.3313  0.1218 -0.6891
15397TIP3    H267683   5.669   3.477   3.188 -0.4167  0.2488 -1.2474
15398TIP3   OH267684   5.468   1.474   6.516  0.1087  0.3679  0.4581
15398TIP3    H167685   5.398   1.492   6.579 -0.3722  0.3053 -0.0601
15398TIP3    H267686   5.520   1.555   6.515 -0.7418  0.9071 -0.1690
15399TIP3   OH267687   1.564   3.603  15.624  0.0808 -0.3789 -0.3181
15399TIP3    H167688   1.601   3.537  15.566 -1.2242 -0.8467 -0.6414
15399TIP3    H267689   1.639   3.639  15.671  0.6353 -3.4029  1.2334
15400TIP3   OH267690   3.529   1.878   2.106 -0.2210 -0.1402  1.1451
15400TIP3    H167691   3.464   1.891   2.176 -1.3163 -0.7802  0.2532
15400TIP3    H267692   3.477   1.857   2.029  0.8949  1.8741 -0.2039
15401TIP3   OH267693   3.077   5.667  11.477 -0.1610 -0.2697  0.4391
15401TIP3    H167694   3.115   5.580  11.463  1.1435  0.1323  1.3587
15401TIP3    H267695   3.152   5.722  11.499 -0.8103  1.3450 -1.2333
15402TIP3   OH267696   5.585   2.561   3.416  0.2331  0.4613 -0.3216
15402TIP3    H167697   5.525   2.595   3.483 -2.7615 -1.6853 -1.7834
15402TIP3    H267698   5.634   2.492   3.461 -1.9817 -1.1844 -0.3645
15403TIP3   OH267699   3.578   3.754  14.612 -0.4743  0.0541  0.2256
15403TIP3    H167700   3.516   3.816  14.650 -1.8833 -1.2640  0.0829
15403TIP3    H267701   3.560   3.755  14.518 -0.4043 -0.4572  0.2041
15404TIP3   OH267702   3.999   0.192  14.690 -0.3506 -0.1038  0.1507
15404TIP3    H167703   4.092   0.202  14.672 -0.3388  0.1433  0.3398
15404TIP3    H267704   3.977   0.106  14.656 -0.1824  0.0771 -0.4309
15405TIP3   OH267705   5.099   6.220  13.316  0.4155 -0.5060  0.7644
15405TIP3    H167706   5.176   6.172  13.347  0.3619  0.5683  2.6160
15405TIP3    H267707   5.125   6.312  13.320 -1.0585 -0.1189  1.6841
15406TIP3   OH267708   1.160   0.308   1.821 -0.0420 -0.0548 -0.1490
15406TIP3    H167709   1.153   0.231   1.764  2.2972  1.3895 -2.5072
15406TIP3    H267710   1.085   0.362   1.797  0.0055 -0.2200 -0.6884
15407TIP3   OH267711   1.189   4.872   4.112  0.2241 -0.1514 -0.5220
15407TIP3    H167712   1.114   4.904   4.062 -0.3123 -0.8013 -0.1430
15407TIP3    H267713   1.199   4.934   4.184 -0.2222 -0.2955 -0.3317
15408TIP3   OH267714   1.477   2.936  15.072  0.3352 -0.5263  0.1888
15408TIP3    H167715   1.488   2.864  15.009  0.0305 -0.2267 -0.2057
15408TIP3    H267716   1.453   3.012  15.018 -0.7665 -0.4668  0.7482
15409TIP3   OH267717   4.677   5.494  15.128 -0.2429 -0.1923  0.5667
15409TIP3    H167718   4.636   5.544  15.057  0.8582 -0.5720 -0.3638
15409TIP3    H267719   4.604   5.465  15.182 -1.2255 -0.8087 -1.0319
15410TIP3   OH267720   5.934   5.837   0.851 -0.2542 -0.2434  0.4907
15410TIP3    H167721   5.975   5.795   0.775 -1.3577 -1.9896  0.8233
15410TIP3    H267722   5.912   5.925   0.821 -0.6854 -0.9148 -1.2279
15411TIP3   OH267723   4.188   1.829   4.222 -0.1413 -0.3367 -0.2151
15411TIP3    H167724   4.178   1.786   4.307 -2.6118  1.0864  0.2744
15411TIP3    H267725   4.227   1.914   4.242 -2.0886  0.6106 -0.2738
15412TIP3   OH267726   5.898   6.387  16.314  0.6152  0.3065 -0.6173
15412TIP3    H167727   5.836   6.314  16.324 -0.0604  0.7085 -1.7614
15412TIP3    H267728   5.844   6.465  16.325  1.2836  0.6437  0.2865
15413TIP3   OH267729   2.837   0.981   1.487 -0.3162  0.0894 -0.0942
15413TIP3    H167730   2.884   1.059   1.519 -0.5791  0.7921 -1.4029
15413TIP3    H267731   2.757   0.979   1.540  1.2182 -1.2029  2.2584
15414TIP3   OH267732   3.760   1.207   3.200  0.5198 -0.6323  0.2041
15414TIP3    H167733   3.674   1.195   3.159 -0.0279 -0.9934  1.4566
15414TIP3    H267734   3.818   1.224   3.126 -0.1782 -2.7849 -0.9108
15415TIP3   OH267735   0.885   4.271  15.511 -0.4920  0.6532  0.4969
15415TIP3    H167736   0.810   4.330  15.519 -0.7643  1.0131 -3.7292
15415TIP3    H267737   0.960   4.329  15.500 -0.2615  0.2635 -0.0137
15416TIP3   OH267738   3.292   0.194  14.821  0.3098 -0.4581  0.0808
15416TIP3    H167739   3.310   0.101  14.834  2.4696  0.1424  1.8036
15416TIP3    H267740   3.212   0.210  14.871  2.2283 -0.5929  3.4166
15417TIP3   OH267741   3.122   5.568   1.252  0.4483  0.1204 -0.2196
15417TIP3    H167742   3.162   5.652   1.227  0.6178  0.1568  0.1848
15417TIP3    H267743   3.054   5.554   1.185  0.7667  0.3234 -0.5902
15418TIP3   OH267744   2.038   5.970  13.456 -0.8391  0.6598  0.4820
15418TIP3    H167745   2.043   6.052  13.407  0.2883  1.0035  1.1498
15418TIP3    H267746   2.018   5.996  13.546 -0.6393  0.1953  0.6671
15419TIP3   OH267747   4.643   5.557   3.802  0.1288  0.4307  0.3737
15419TIP3    H167748   4.669   5.636   3.850 -0.1503  0.0587  1.1418
15419TIP3    H267749   4.574   5.518   3.856  0.6922 -0.6673  0.3142
15420TIP3   OH267750   3.810   2.430   4.519  0.1813  0.2973 -0.3776
15420TIP3    H167751   3.820   2.372   4.444  0.0181 -0.2441  0.0172
15420TIP3    H267752   3.725   2.472   4.506  0.4911  0.7849 -0.8867
15421TIP3   OH267753   3.028   2.204   0.218 -0.0976  0.4074 -0.5740
15421TIP3    H167754   2.963   2.238   0.158  0.2959 -0.5377 -1.5561
15421TIP3    H267755   3.111   2.216   0.172  0.0939 -1.3469 -0.7067
15422TIP3   OH267756   2.109   6.100   3.023 -0.6856  0.3743 -0.4183
15422TIP3    H167757   2.153   6.133   2.944 -0.1804 -0.7414 -0.6081
15422TIP3    H267758   2.054   6.028   2.992 -1.9176  1.1443 -0.0285
15423TIP3   OH267759   6.802   6.771   0.253  0.0141  0.7693 -0.6014
15423TIP3    H167760   6.734   6.755   0.187 -0.5267 -1.2228  0.4161
15423TIP3    H267761   6.782   6.710   0.323  1.8596  1.3837  0.4814
15424TIP3   OH267762   3.355   3.592  10.845  0.2220 -0.2688  0.0345
15424TIP3    H167763   3.267   3.592  10.882  0.4234 -1.5735  0.5300
15424TIP3    H267764   3.390   3.506  10.867  0.9878 -0.4054 -1.6579
15425TIP3   OH267765   3.850   1.944  17.043 -0.1827 -0.2696  0.3812
15425TIP3    H167766   3.879   1.888  17.114  0.0211 -1.1827 -0.4142
15425TIP3    H267767   3.930   1.964  16.994 -0.5745 -1.0486 -0.5838
15426TIP3   OH267768   4.003   2.151   3.681 -0.3231 -0.5789 -0.1764
15426TIP3    H167769   3.967   2.228   3.638 -1.1143  0.0491  1.5395
15426TIP3    H267770   3.926   2.102   3.711  0.1894 -1.3887 -0.1719
15427TIP3   OH267771   5.742   2.496   2.829 -0.0363  0.0045 -0.4072
15427TIP3    H167772   5.673   2.430   2.821  0.2099 -0.2221 -0.6547
15427TIP3    H267773   5.710   2.555   2.898  0.2152 -0.9595  0.5435
15428TIP3   OH267774   0.119   4.552   2.757 -0.5321  0.3592 -0.2689
15428TIP3    H167775   0.080   4.533   2.672  0.7963 -2.2549 -0.3612
15428TIP3    H267776   0.204   4.593   2.736 -1.4280  2.3592 -0.1236
15429TIP3   OH267777   0.735   5.865  13.668  0.0952 -0.0718 -0.3311
15429TIP3    H167778   0.650   5.832  13.641 -0.6360  1.0850  0.5379
15429TIP3    H267779   0.750   5.825  13.754  0.3667 -0.1440 -0.4097
15430TIP3   OH267780   1.943   6.242   1.703  0.3778 -0.5957  0.4561
15430TIP3    H167781   1.916   6.327   1.735 -0.3558 -0.7453  0.2409
15430TIP3    H267782   1.998   6.206   1.773 -1.1422 -0.8923  1.5094
15431TIP3   OH267783   2.424   1.555   6.772 -0.2693 -0.6882  0.1123
15431TIP3    H167784   2.350   1.569   6.712 -0.1976 -2.9264 -0.5721
15431TIP3    H267785   2.502   1.574   6.719 -0.2939 -0.0022  0.3196
15432TIP3   OH267786   3.311   3.497  15.594  0.1172 -0.1031  0.4909
15432TIP3    H167787   3.375   3.565  15.569 -1.1913  1.3313  0.9593
15432TIP3    H267788   3.315   3.434  15.522  1.2890  0.5144 -0.0147
15433TIP3   OH267789   1.531   0.097   3.717 -0.4497  0.3905 -0.4702
15433TIP3    H167790   1.463   0.155   3.752 -0.1984  0.0211  0.6340
15433TIP3    H267791   1.522   0.016   3.767  0.1078 -0.0427 -1.0618
15434TIP3   OH267792   6.185   4.372   0.131  0.4317  0.2670  0.2048
15434TIP3    H167793   6.151   4.283   0.122  0.6434  0.3347 -1.4615
15434TIP3    H267794   6.264   4.373   0.077  2.5789  0.3920  3.2481
15435TIP3   OH267795   6.745   0.905  13.053  0.3262 -0.1117 -0.2478
15435TIP3    H167796   6.731   0.810  13.059 -0.0117 -0.0344  0.1987
15435TIP3    H267797   6.671   0.943  13.099 -2.6044  0.5592 -5.1630
15436TIP3   OH267798   4.096   3.881  14.526 -0.1696 -0.4047  0.1230
15436TIP3    H167799   4.164   3.930  14.480 -1.3801  0.8986 -0.3076
15436TIP3    H267800   4.132   3.868  14.614  0.7681 -0.0242 -0.1966
15437TIP3   OH267801   0.419   0.818   0.582 -0.1543 -0.8564  0.6616
15437TIP3    H167802   0.364   0.877   0.634 -1.7292 -0.4119 -1.4778
15437TIP3    H267803   0.506   0.859   0.585 -1.0557  1.2054 -0.1816
15438TIP3   OH267804   2.683   5.189  17.186  0.1928  0.4155  0.3471
15438TIP3    H167805   2.764   5.152  17.221 -0.4476 -0.7082  0.6800
15438TIP3    H267806   2.676   5.275  17.227  2.0657  1.2255 -0.9683
15439TIP3   OH267807   0.491   1.496   5.774  0.2352 -0.2964  0.2767
15439TIP3    H167808   0.539   1.442   5.712 -0.9438 -0.7817 -0.2280
15439TIP3    H267809   0.426   1.436   5.813 -0.7201  0.6162  0.1154
15440TIP3   OH267810   3.845   0.227   5.004  0.2548 -0.1296  0.2407
15440TIP3    H167811   3.791   0.289   5.051 -0.1789 -0.3442  0.0287
15440TIP3    H267812   3.822   0.142   5.041 -0.0357 -0.2907 -0.3086
15441TIP3   OH267813   1.087   4.987  13.927  0.6255 -0.1110  0.1471
15441TIP3    H167814   1.060   5.056  13.987  1.1494 -0.0829  0.3529
15441TIP3    H267815   1.082   4.907  13.979  1.0611 -0.0894  0.2247
15442TIP3   OH267816   0.510   3.813   5.581  0.2664 -0.2943  0.0574
15442TIP3    H167817   0.562   3.891   5.563 -0.1450  0.1010  0.5535
15442TIP3    H267818   0.571   3.740   5.569  0.8088  0.1358  0.1653
15443TIP3   OH267819   1.534   3.373   1.623  0.4795 -0.0753  0.0739
15443TIP3    H167820   1.604   3.433   1.651  0.1252 -0.3143  1.5084
15443TIP3    H267821   1.535   3.303   1.688 -0.2920 -0.7156 -0.5939
15444TIP3   OH267822   5.017   1.963   5.075  0.4697  0.0890  0.1953
15444TIP3    H167823   5.088   1.899   5.086 -0.7124 -1.4313 -0.9202
15444TIP3    H267824   4.995   1.960   4.982 -0.8991  0.7415  0.4833
15445TIP3   OH267825   2.610   6.110  11.869 -0.2798  0.2164  0.9553
15445TIP3    H167826   2.582   6.195  11.904  0.5769  0.7092  0.5008
15445TIP3    H267827   2.703   6.106  11.891 -0.2224 -0.4085  0.5907
15446TIP3   OH267828   2.209   5.575   4.723  0.1875  0.2695  0.1514
15446TIP3    H167829   2.151   5.579   4.800 -0.2683 -2.2522 -0.0138
15446TIP3    H267830   2.152   5.597   4.649  0.0167  0.2074  0.2626
15447TIP3   OH267831   5.061   2.789  11.908 -0.2277 -0.0260  0.5231
15447TIP3    H167832   5.091   2.858  11.967 -2.9174  1.5616  0.1041
15447TIP3    H267833   5.111   2.803  11.827  0.5469  0.2927  1.0563
15448TIP3   OH267834   3.464   5.404   2.989  0.5537  0.3057 -0.8282
15448TIP3    H167835   3.539   5.459   3.011 -0.2006  0.6364  1.0222
15448TIP3    H267836   3.430   5.442   2.907  2.1789  0.3471 -1.5095
15449TIP3   OH267837   3.719   1.222  17.179  0.2439  0.1306  0.4360
15449TIP3    H167838   3.659   1.285  17.218  1.2653  1.4209 -0.0467
15449TIP3    H267839   3.806   1.261  17.189  0.7764 -0.6525 -0.8805
15450TIP3   OH267840   5.245   0.658   3.737  0.1067  1.0046  0.3125
15450TIP3    H167841   5.260   0.659   3.643 -2.5731  0.8174 -0.1618
15450TIP3    H267842   5.275   0.572   3.766  0.0936  0.7160 -0.5280
15451TIP3   OH267843   0.649   1.424  10.334 -0.4049  0.6575  0.1134
15451TIP3    H167844   0.721   1.476  10.369 -0.9024  1.6769 -0.3576
15451TIP3    H267845   0.692   1.354  10.284  0.2714  0.4381  0.9948
15452TIP3   OH267846   2.361   6.305  15.352  0.1237  0.2060  0.0111
15452TIP3    H167847   2.418   6.343  15.419 -0.0609  1.0891 -0.3243
15452TIP3    H267848   2.347   6.215  15.380  1.4811  0.0609  0.2305
15453TIP3   OH267849   1.588   0.513   4.162  0.2165  0.1256  0.1576
15453TIP3    H167850   1.506   0.544   4.200 -1.0240 -0.0349 -2.3435
15453TIP3    H267851   1.585   0.542   4.071  2.5712 -0.6091 -0.1874
15454TIP3   OH267852   4.121   3.056  11.585  1.1550  0.4214 -0.4512
15454TIP3    H167853   4.133   3.049  11.680  0.1394  0.3695 -0.3173
15454TIP3    H267854   4.135   2.967  11.553 -1.4877 -0.2219  0.0257
15455TIP3   OH267855   6.036   5.245   5.006  0.1449 -0.1711 -0.4704
15455TIP3    H167856   6.017   5.165   5.054  1.4542 -2.0428 -2.9696
15455TIP3    H267857   6.108   5.285   5.054  1.4875 -2.0609 -0.8377
15456TIP3   OH267858   5.635   3.715  12.955 -0.4456 -0.2002 -0.1510
15456TIP3    H167859   5.640   3.678  12.867 -0.8019 -0.0994 -0.2132
15456TIP3    H267860   5.644   3.809  12.943  1.3223 -0.3312  0.0879
15457TIP3   OH267861   5.996   4.028   3.481 -0.0119  0.3525  0.9791
15457TIP3    H167862   6.030   3.952   3.433  0.4985 -0.8496  3.1284
15457TIP3    H267863   6.074   4.075   3.509 -0.3313  1.7363 -0.3901
15458TIP3   OH267864   0.944   3.266  13.081  0.2092 -0.3150 -0.0954
15458TIP3    H167865   0.864   3.215  13.067 -0.0664  0.2310 -0.5026
15458TIP3    H267866   0.919   3.332  13.146  0.0968  0.3960 -0.8595
15459TIP3   OH267867   1.326   3.500   2.102 -0.5561 -0.2328 -0.1941
15459TIP3    H167868   1.389   3.506   2.174 -2.3391 -0.0347  1.3835
15459TIP3    H267869   1.332   3.585   2.057  3.0123 -1.5308 -2.4651
15460TIP3   OH267870   4.637   2.241  14.675 -0.2931 -0.3204  0.3985
15460TIP3    H167871   4.658   2.214  14.585 -2.3759 -0.0825 -0.1723
15460TIP3    H267872   4.671   2.330  14.682  0.4371 -0.5657  0.0618
15461TIP3   OH267873   4.858   4.048  17.161 -0.9019  0.5582 -0.9415
15461TIP3    H167874   4.844   4.130  17.207  0.1194  1.3274 -1.9782
15461TIP3    H267875   4.770   4.015  17.143 -1.3188  1.6356 -0.9024
15462TIP3   OH267876   4.845   4.030   2.588 -0.0625 -0.2251  0.1075
15462TIP3    H167877   4.909   4.038   2.660  2.0069 -1.0452 -1.5914
15462TIP3    H267878   4.896   4.049   2.509 -1.6970 -1.8943 -1.3835
15463TIP3   OH267879   1.468   0.858  12.867 -0.0960 -0.5495  0.1339
15463TIP3    H167880   1.448   0.920  12.797  1.3446  0.2700  0.4206
15463TIP3    H267881   1.540   0.805  12.832 -0.9950 -1.7574  0.0780
15464TIP3   OH267882   5.633   4.819  17.218  0.5446  0.1583 -0.4414
15464TIP3    H167883   5.577   4.844  17.292 -0.2269 -1.1467 -0.5597
15464TIP3    H267884   5.717   4.863  17.235 -0.1337  1.1540  0.3693
15465TIP3   OH267885   6.713   6.305  14.197 -0.1512 -0.0703  0.5395
15465TIP3    H167886   6.750   6.217  14.199 -0.6959 -0.3116 -0.0015
15465TIP3    H267887   6.637   6.298  14.140  0.7126  1.1062 -0.7796
15466TIP3   OH267888   2.888   6.795  14.231  0.3035  0.1506  0.0974
15466TIP3    H167889   2.815   6.732  14.229  0.5285 -0.0884 -1.2865
15466TIP3    H267890   2.911   6.807  14.139  0.7084  1.7591  0.4024
15467TIP3   OH267891   2.280   5.057  17.021 -0.3959  0.2772  0.4221
15467TIP3    H167892   2.342   5.107  16.968  0.1049 -0.2416  0.5120
15467TIP3    H267893   2.197   5.063  16.973  0.4217 -1.5851 -1.3214
15468TIP3   OH267894   2.229   0.008   6.149  0.7073  0.2149 -0.1576
15468TIP3    H167895   2.298   0.002   6.214 -0.2109 -0.4029  0.7831
15468TIP3    H267896   2.149   0.020   6.200 -0.0660 -0.6564 -1.1507
15469TIP3   OH267897   5.681   4.749   5.549 -0.2530  0.1570  0.1572
15469TIP3    H167898   5.679   4.767   5.643 -1.7591  0.5655  0.0690
15469TIP3    H267899   5.773   4.747   5.526  0.1480 -0.7484  1.8055
15470TIP3   OH267900   3.917   6.422   3.290  0.0229 -0.1888 -0.6716
15470TIP3    H167901   3.989   6.374   3.331 -0.1702  0.9312  1.0417
15470TIP3    H267902   3.939   6.515   3.303  0.4945  0.2497 -4.0996
15471TIP3   OH267903   6.493   1.870  11.909  0.1271  0.1064  0.2868
15471TIP3    H167904   6.444   1.925  11.970 -0.4772  2.0294 -1.8442
15471TIP3    H267905   6.531   1.932  11.846  2.7115 -1.6209  0.0893
15472TIP3   OH267906   1.633   6.436   5.497  0.0805 -0.1099  0.5356
15472TIP3    H167907   1.670   6.356   5.535 -0.3520 -0.3205  0.5166
15472TIP3    H267908   1.631   6.419   5.403 -0.3624 -0.2245  0.5659
15473TIP3   OH267909   5.314   1.875  14.787  0.2539  0.0555 -0.3914
15473TIP3    H167910   5.359   1.802  14.744  0.6906  0.9598 -1.5191
15473TIP3    H267911   5.293   1.843  14.874  4.1878 -0.0218  0.6113
15474TIP3   OH267912   0.068   0.252   3.141 -0.0824  0.2672  0.5478
15474TIP3    H167913   0.090   0.242   3.234  1.0225 -1.8951  0.0662
15474TIP3    H267914  -0.024   0.227   3.135  0.0601 -0.3455  0.9296
15475TIP3   OH267915   2.906   4.070   0.218  0.2241  0.4563 -0.2250
15475TIP3    H167916   2.843   4.000   0.200 -0.3104  0.4818  1.4252
15475TIP3    H267917   2.889   4.135   0.150 -0.8105 -0.0139 -0.4392
15476TIP3   OH267918   4.400   6.564   2.981  0.1679 -0.1799 -0.0944
15476TIP3    H167919   4.488   6.548   3.016  0.0267  1.4724  1.0987
15476TIP3    H267920   4.373   6.646   3.022 -1.8498 -0.5488 -0.6300
15477TIP3   OH267921   5.565   5.745   0.551  0.3741  0.1422 -0.3713
15477TIP3    H167922   5.611   5.706   0.625  0.2109 -0.2934 -0.4975
15477TIP3    H267923   5.634   5.767   0.489  0.5557  0.9496  0.1098
15478TIP3   OH267924   5.004   6.395   2.967  0.6700  0.4372 -0.0418
15478TIP3    H167925   5.006   6.318   2.910 -1.4795  1.0021 -0.9490
15478TIP3    H267926   5.085   6.442   2.947  0.8913 -0.3980 -1.1719
15479TIP3   OH267927   6.468   5.751  12.132 -0.4487 -0.4224 -0.2271
15479TIP3    H167928   6.507   5.676  12.087 -1.6788 -0.9977 -0.3277
15479TIP3    H267929   6.532   5.821  12.119  1.2142 -1.7052  0.7346
15480TIP3   OH267930   3.919   3.102   2.143 -0.1924 -0.1300 -0.0664
15480TIP3    H167931   3.851   3.127   2.081 -0.6656 -0.7289  0.2026
15480TIP3    H267932   3.884   3.024   2.186 -0.1179  0.6195  1.3621
15481TIP3   OH267933   0.763   0.163  14.891  0.0986  0.2411  0.6507
15481TIP3    H167934   0.813   0.105  14.834  1.4751  0.1772  1.8684
15481TIP3    H267935   0.711   0.104  14.946 -1.6654  0.3190 -0.8827
15482TIP3   OH267936   6.556   6.148  11.638  0.4572  0.6801  0.4311
15482TIP3    H167937   6.552   6.244  11.631  2.2425  0.7036 -0.4965
15482TIP3    H267938   6.525   6.116  11.553  1.5747  0.4898  0.0852
15483TIP3   OH267939   1.759   5.224  12.604 -0.8930  0.1790 -0.6159
15483TIP3    H167940   1.830   5.286  12.623 -0.4250 -0.3533 -0.6371
15483TIP3    H267941   1.728   5.249  12.517  0.5627 -0.8270 -1.4300
15484TIP3   OH267942   6.432   6.556  15.123  0.8887  0.3429 -0.2238
15484TIP3    H167943   6.451   6.508  15.203 -0.0887  1.2632  0.5697
15484TIP3    H267944   6.484   6.511  15.056  2.6338  0.2864  1.1173
15485TIP3   OH267945   6.259   2.164   5.575 -0.2632 -0.5230 -1.0741
15485TIP3    H167946   6.258   2.070   5.559  0.2358 -1.1166  2.1161
15485TIP3    H267947   6.167   2.189   5.579 -0.4186 -1.3509  0.6134
15486TIP3   OH267948   6.068   0.885   4.730 -1.2291  0.2000 -0.2848
15486TIP3    H167949   5.989   0.892   4.784 -0.0992 -0.0441  1.4525
15486TIP3    H267950   6.103   0.974   4.728  0.0851 -0.2447  1.5318
15487TIP3   OH267951   1.090   3.409   4.795 -0.4937  0.4181  0.8254
15487TIP3    H167952   1.175   3.452   4.792 -1.6499  2.9612  2.4171
15487TIP3    H267953   1.027   3.479   4.779 -2.3440 -1.1300  1.1166
15488TIP3   OH267954   0.864   6.295   3.168  0.0593 -0.3541 -0.1901
15488TIP3    H167955   0.862   6.309   3.263 -2.3105  0.8037 -0.3744
15488TIP3    H267956   0.904   6.208   3.158  0.0757 -0.6142  1.8820
15489TIP3   OH267957   4.684   3.218  16.159  0.1807  0.1351  0.0198
15489TIP3    H167958   4.657   3.159  16.088  0.3807 -0.3248  0.3252
15489TIP3    H267959   4.769   3.252  16.131 -0.0242  0.4231 -0.2462
15490TIP3   OH267960   3.466   6.682  15.165  0.0377 -0.4572  0.2191
15490TIP3    H167961   3.467   6.694  15.260 -0.7607 -1.0675  0.3100
15490TIP3    H267962   3.373   6.686  15.141  0.2209 -0.5236 -0.5071
15491TIP3   OH267963   3.833   5.650  15.926 -0.6734  0.2128  0.2915
15491TIP3    H167964   3.876   5.575  15.885 -0.2756  0.8670 -0.5103
15491TIP3    H267965   3.747   5.617  15.953 -0.3172 -0.6571  0.3992
15492TIP3   OH267966   0.413   5.602  10.199  0.2391 -0.4108  0.2567
15492TIP3    H167967   0.486   5.542  10.183  0.3775  0.4235 -2.6781
15492TIP3    H267968   0.354   5.588  10.125  0.0968  2.6972 -0.3055
15493TIP3   OH267969   6.200   4.394  13.609  0.0731 -0.0882  0.1024
15493TIP3    H167970   6.277   4.360  13.564  0.7775  0.2384  1.0501
15493TIP3    H267971   6.234   4.463  13.666 -0.9741  0.3171  0.2498
15494TIP3   OH267972   2.524   1.780  11.523  0.1952 -0.1130 -0.6381
15494TIP3    H167973   2.518   1.756  11.431 -0.8527  2.0783 -1.1717
15494TIP3    H267974   2.595   1.726  11.557  1.9749  0.5014 -3.2154
15495TIP3   OH267975   1.363   6.295  14.440 -0.2226  0.5625  0.3326
15495TIP3    H167976   1.442   6.281  14.493  0.4062 -0.0209 -0.7283
15495TIP3    H267977   1.394   6.289  14.350 -1.0949  2.5927 -0.1202
15496TIP3   OH267978   0.754   4.894   3.773  0.5023  0.1777 -0.1040
15496TIP3    H167979   0.789   4.810   3.742 -0.5676 -1.3949  2.7601
15496TIP3    H267980   0.777   4.898   3.865 -2.4499  1.3871  0.6609
15497TIP3   OH267981   2.937   5.993   4.329 -0.4360 -0.3203  0.9966
15497TIP3    H167982   2.926   6.059   4.398 -0.9469 -0.2848  0.8835
15497TIP3    H267983   2.994   6.036   4.265 -1.0493  0.1467  0.7546
15498TIP3   OH267984   4.021   4.973  11.742 -0.5596  0.0023 -0.3160
15498TIP3    H167985   4.008   5.034  11.815 -2.9419 -0.0401 -0.6801
15498TIP3    H267986   4.079   4.905  11.778 -0.2482  0.9391  0.9826
15499TIP3   OH267987   0.343   1.903  16.848  0.0660  0.0910  0.4134
15499TIP3    H167988   0.270   1.847  16.872  0.8687 -1.2463 -0.1820
15499TIP3    H267989   0.421   1.854  16.875  0.8172  0.5133 -0.9187
15500TIP3   OH267990   1.127   5.346   2.666  0.6498  0.2728  0.1161
15500TIP3    H167991   1.157   5.257   2.685  1.7500  1.0075  1.8669
15500TIP3    H267992   1.036   5.334   2.638  1.3408 -1.5731 -1.4256
15501TIP3   OH267993   4.377   3.746  16.006  0.1279  0.3117 -0.3528
15501TIP3    H167994   4.313   3.704  15.949  0.5680 -0.5221 -0.2381
15501TIP3    H267995   4.324   3.790  16.073 -0.3381 -0.0525 -0.4793
15502TIP3   OH267996   1.762   1.319  16.059  0.0843 -0.0026 -0.3232
15502TIP3    H167997   1.680   1.274  16.040  0.2189 -0.0940 -0.6760
15502TIP3    H267998   1.743   1.370  16.138 -0.5754  0.6628 -0.9094
15503TIP3   OH267999   4.645   0.467   4.190 -0.5502  0.5830 -0.0122
15503TIP3    H168000   4.578   0.448   4.124  0.7400 -1.8895 -0.6871
15503TIP3    H268001   4.609   0.430   4.271 -0.1152 -0.5442 -0.3264
15504TIP3   OH268002   5.764   1.913   1.999 -0.4282 -0.0191 -0.1802
15504TIP3    H168003   5.694   1.934   1.937  0.1040  2.5081  0.0204
15504TIP3    H268004   5.825   1.858   1.949 -0.7724  0.7427 -1.4560
15505TIP3   OH268005   3.611   2.959  13.533 -0.2003 -0.1495 -0.2957
15505TIP3    H168006   3.587   3.035  13.481  2.6198 -0.0736 -1.5610
15505TIP3    H268007   3.528   2.911  13.545 -1.3129  1.0334 -2.8764
15506TIP3   OH268008   3.335   5.300   1.751  0.1846  0.0200 -0.3155
15506TIP3    H168009   3.323   5.220   1.699 -1.2153  0.1539 -0.2152
15506TIP3    H268010   3.301   5.278   1.838  0.4878  0.4861 -0.0786
15507TIP3   OH268011   3.244   6.319  10.577 -0.6557 -0.1803  0.3995
15507TIP3    H168012   3.272   6.389  10.637  2.4271 -1.3318  0.3620
15507TIP3    H268013   3.212   6.250  10.635  1.9631 -1.1376  0.7674
15508TIP3   OH268014   2.200   6.515   5.045 -0.0465 -0.2299  0.2554
15508TIP3    H168015   2.259   6.531   5.118  0.2234 -0.1913  0.0274
15508TIP3    H268016   2.121   6.566   5.066  0.1475  0.0193  0.3718
15509TIP3   OH268017   1.096   0.851  10.985 -0.2991  0.0447  0.7305
15509TIP3    H168018   1.186   0.822  10.997 -0.3656 -1.4681 -1.9248
15509TIP3    H268019   1.079   0.909  11.059  2.3813 -0.7432  2.0249
15510TIP3   OH268020   5.377   2.372  17.091 -0.6440 -0.0989 -1.0377
15510TIP3    H168021   5.380   2.447  17.032 -0.0328 -0.2374 -1.1879
15510TIP3    H268022   5.284   2.357  17.107 -0.8114 -0.0812 -1.9944
15511TIP3   OH268023   3.480   2.953   3.203  0.1197  0.3056  0.2708
15511TIP3    H168024   3.407   2.986   3.255 -0.1921  1.7924 -1.0777
15511TIP3    H268025   3.495   3.021   3.137  0.8476 -1.2910 -1.2509
15512TIP3   OH268026   3.874   0.665   0.105  0.1432 -0.4923 -0.2637
15512TIP3    H168027   3.854   0.751   0.067  1.6416  0.2830  0.6444
15512TIP3    H268028   3.800   0.647   0.162  0.8185  1.2021  1.1866
15513TIP3   OH268029   3.867   1.695  12.175 -0.6614 -0.3485 -0.5126
15513TIP3    H168030   3.952   1.663  12.147 -0.0467  0.5098  0.3057
15513TIP3    H268031   3.804   1.633  12.140  0.5566 -3.1530  2.0115
15514TIP3   OH268032   2.374   2.054   4.692 -0.1874  0.2224  0.4429
15514TIP3    H168033   2.365   2.121   4.760  1.5865  0.1761  0.7408
15514TIP3    H268034   2.364   1.971   4.738  1.3658  0.1781  0.7440
15515TIP3   OH268035   3.559   4.360  12.092  0.1070  0.7630 -0.2482
15515TIP3    H168036   3.642   4.343  12.048  1.0719 -1.4158  2.2780
15515TIP3    H268037   3.493   4.322  12.033  1.3248 -1.7634 -0.0681
15516TIP3   OH268038   4.174   1.253   1.084 -0.1108 -0.1546 -0.1222
15516TIP3    H168039   4.231   1.187   1.045 -0.4069  1.4496 -3.5017
15516TIP3    H268040   4.086   1.226   1.059 -0.3186  0.8236 -0.4824
15517TIP3   OH268041   4.262   2.089   4.983 -0.0314 -0.5021 -0.1823
15517TIP3    H168042   4.340   2.072   5.037 -1.8284 -4.3970  1.4264
15517TIP3    H268043   4.196   2.118   5.046 -0.3683  1.1101 -1.2804
15518TIP3   OH268044   4.938   3.748   2.258 -0.3359  0.0246  0.0049
15518TIP3    H168045   4.911   3.839   2.246 -0.1198  0.0889  0.0205
15518TIP3    H268046   4.972   3.722   2.172 -0.7414 -0.1554 -0.1039
15519TIP3   OH268047   2.158   6.795   4.735 -0.4778  0.4341  0.0616
15519TIP3    H168048   2.173   6.874   4.683 -0.7108  0.9531  0.7730
15519TIP3    H268049   2.118   6.826   4.816  3.1406  0.0764  2.1087
15520TIP3   OH268050   1.194   0.337  11.823 -0.0568 -0.4976 -0.3493
15520TIP3    H168051   1.220   0.428  11.814  1.0640 -0.6790  0.8741
15520TIP3    H268052   1.119   0.339  11.883  0.4166 -0.4288  0.2510
15521TIP3   OH268053   1.679   5.225   6.065  0.2361 -1.1381 -0.2035
15521TIP3    H168054   1.609   5.214   6.001 -0.5570  1.8470  0.0742
15521TIP3    H268055   1.637   5.208   6.150 -0.3726  1.3508  0.0218
15522TIP3   OH268056   5.275   1.873   1.036 -0.1943 -0.2049 -0.1251
15522TIP3    H168057   5.334   1.945   1.016 -1.1893  0.9368  0.9615
15522TIP3    H268058   5.328   1.812   1.087  0.2824  0.4020  0.1143
15523TIP3   OH268059   6.333   4.584   2.939  0.3406  0.1800 -0.1821
15523TIP3    H168060   6.342   4.582   3.035 -0.4968  2.2476 -0.0195
15523TIP3    H268061   6.389   4.657   2.912  0.4588 -0.3110 -1.2621
15524TIP3   OH268062   5.746   3.570  15.875  0.2029 -0.1594  0.1216
15524TIP3    H168063   5.700   3.592  15.956  1.1698 -0.8937  0.8750
15524TIP3    H268064   5.838   3.581  15.895  0.6513 -3.3064  0.0714
15525TIP3   OH268065   6.771   6.188  16.056  0.6566  0.0697  0.5868
15525TIP3    H168066   6.788   6.201  15.963 -0.6891  0.5715  0.3867
15525TIP3    H268067   6.698   6.247  16.075  2.2225  1.4763  2.4396
15526TIP3   OH268068   2.140   1.176   0.307  0.5047 -1.0342 -0.6123
15526TIP3    H168069   2.160   1.087   0.277  0.1696 -2.0367  2.0708
15526TIP3    H268070   2.204   1.231   0.261  0.9771 -2.6995 -1.9906
15527TIP3   OH268071   4.637   1.678  14.956  0.4113 -0.2950 -0.3508
15527TIP3    H168072   4.544   1.679  14.979  0.5706 -1.6152  0.4347
15527TIP3    H268073   4.680   1.644  15.034  1.3960 -1.1596 -1.2534
15528TIP3   OH268074   3.879   5.015  17.135  0.2089  0.2047 -0.1904
15528TIP3    H168075   3.973   5.032  17.129 -0.6456  4.4635 -3.3884
15528TIP3    H268076   3.852   4.995  17.046 -1.8137 -1.9253  0.8554
15529TIP3   OH268077   1.673   6.385   2.253 -0.0963  0.0111 -0.1612
15529TIP3    H168078   1.736   6.348   2.192 -0.5794 -0.7785 -0.1974
15529TIP3    H268079   1.588   6.373   2.210 -0.4920 -0.9680  0.8361
15530TIP3   OH268080   1.656   0.263  11.074 -0.1493 -0.2060 -0.2248
15530TIP3    H168081   1.689   0.268  10.984  0.3476  0.0241 -0.0328
15530TIP3    H268082   1.652   0.354  11.103  1.2570 -0.3565  0.5395
15531TIP3   OH268083   2.897   3.432  12.831  0.1368 -0.3423 -0.2159
15531TIP3    H168084   2.968   3.495  12.819  0.3760 -0.7362 -0.9432
15531TIP3    H268085   2.841   3.444  12.753 -1.9684  1.7012  1.5374
15532TIP3   OH268086   2.171   4.514   4.854 -0.2658  0.4116 -0.1371
15532TIP3    H168087   2.193   4.518   4.761 -0.4825  0.8691 -0.1676
15532TIP3    H268088   2.088   4.562   4.861 -0.0066  0.7827  0.3708
15533TIP3   OH268089   5.329   1.698   5.596  0.7983 -0.4589  0.0978
15533TIP3    H168090   5.357   1.735   5.512  0.7005  0.3829  0.4298
15533TIP3    H268091   5.262   1.759   5.628 -0.7918 -1.9590 -0.2694
15534TIP3   OH268092   2.705   5.054   4.576  0.1131 -0.3360 -0.1387
15534TIP3    H168093   2.655   5.004   4.641 -0.7634  1.4288  0.5860
15534TIP3    H268094   2.796   5.032   4.595 -0.1665 -0.3754  1.2509
15535TIP3   OH268095   1.387   3.917   0.016 -0.4396  0.0733  0.2811
15535TIP3    H168096   1.472   3.887   0.050  0.8705  0.3342 -2.6146
15535TIP3    H268097   1.405   4.003  -0.020 -1.5897 -0.5160 -1.7435
15536TIP3   OH268098   5.258   3.866  10.888  0.0806  0.5478  0.3128
15536TIP3    H168099   5.166   3.889  10.896 -0.3598 -1.7039  2.2873
15536TIP3    H268100   5.258   3.776  10.855  1.4171 -1.0297  4.3451
15537TIP3   OH268101   0.169   6.565  13.416 -0.4093  0.1206  0.6420
15537TIP3    H168102   0.135   6.655  13.412 -0.7429 -0.0880 -1.5984
15537TIP3    H268103   0.091   6.510  13.418 -0.2918 -0.2866 -2.7782
15538TIP3   OH268104   1.563   6.442  10.944  0.6439 -0.3059  0.0626
15538TIP3    H168105   1.584   6.366  10.999  1.7142 -0.3792 -0.4355
15538TIP3    H268106   1.471   6.429  10.920  1.0289 -1.8280 -0.6122
15539TIP3   OH268107   3.840   3.478  15.383  0.3717  0.1315 -0.3036
15539TIP3    H168108   3.885   3.396  15.404 -1.1576 -0.5634  0.3094
15539TIP3    H268109   3.873   3.502  15.296  2.0454 -0.2610  0.2163
15540TIP3   OH268110   6.020   2.547  12.624  0.0431 -0.0147 -0.3318
15540TIP3    H168111   6.062   2.483  12.565  0.2871 -0.9893  0.8805
15540TIP3    H268112   5.982   2.493  12.693  1.2869  1.2431  1.3613
15541TIP3   OH268113   6.725   4.584   5.500 -0.4473  0.6172  0.1380
15541TIP3    H168114   6.760   4.670   5.523 -0.1580  0.8233 -1.0240
15541TIP3    H268115   6.801   4.527   5.498 -0.2293  0.9498 -1.8645
15542TIP3   OH268116   0.255   3.470   3.715 -0.5839  0.0276  0.1101
15542TIP3    H168117   0.208   3.512   3.788  2.4471 -0.4696  2.4253
15542TIP3    H268118   0.318   3.536   3.686  0.2828 -0.8714 -0.0671
15543TIP3   OH268119   1.974   2.638  11.941  0.1133  0.0181  0.0422
15543TIP3    H168120   1.960   2.580  12.015  0.0788 -0.5985 -0.4390
15543TIP3    H268121   1.923   2.717  11.961 -0.3062 -0.3517  0.4309
15544TIP3   OH268122   5.196   0.463   3.330  0.5296 -0.6204  0.0086
15544TIP3    H168123   5.264   0.513   3.375  0.8064  0.3806 -1.4714
15544TIP3    H268124   5.124   0.459   3.392  0.9672  0.5778  0.6102
15545TIP3   OH268125   5.450   0.726  14.754  0.0138 -0.2076 -0.0869
15545TIP3    H168126   5.425   0.736  14.662 -0.2805  2.3868  0.2313
15545TIP3    H268127   5.386   0.665  14.790  1.4885 -3.0838 -2.0895
15546TIP3   OH268128   3.294   2.931  13.249  0.0003  0.7267 -0.3059
15546TIP3    H168129   3.379   2.956  13.214 -0.4882  1.0656 -1.2763
15546TIP3    H268130   3.273   3.000  13.312  0.6787  0.3581  0.3291
15547TIP3   OH268131   5.004   5.814   4.385 -0.0298 -0.5842 -0.5871
15547TIP3    H168132   5.044   5.900   4.385  0.9845 -1.0417 -1.7229
15547TIP3    H268133   5.019   5.780   4.474  0.7640 -0.1406 -0.5510
15548TIP3   OH268134   2.874   5.111  16.867 -0.1507  0.2180 -0.1134
15548TIP3    H168135   2.778   5.107  16.866 -0.1480 -0.2953  0.9694
15548TIP3    H268136   2.894   5.193  16.912 -0.0856 -0.4815  1.1627
15549TIP3   OH268137   3.921   0.172  12.223 -0.0348 -0.0257 -0.4505
15549TIP3    H168138   3.843   0.119  12.205  1.4977 -1.9005 -1.8366
15549TIP3    H268139   3.913   0.247  12.164 -1.1777  0.2022 -0.0184
15550TIP3   OH268140   3.367   4.359   1.079  0.1468  0.0015  0.2814
15550TIP3    H168141   3.367   4.377   1.173  0.2087 -1.4851  0.5778
15550TIP3    H268142   3.288   4.306   1.065 -0.1152  0.6086 -0.5928
15551TIP3   OH268143   4.025   6.195  16.246  0.6279 -0.5911  0.2195
15551TIP3    H168144   4.005   6.115  16.293 -0.0089  0.6154  2.0709
15551TIP3    H268145   3.997   6.178  16.156 -1.1486 -1.8379  0.9797
15552TIP3   OH268146   6.161   0.213  15.171 -0.1506 -0.0113 -0.4735
15552TIP3    H168147   6.229   0.146  15.173  0.0609  0.1694 -1.5033
15552TIP3    H268148   6.174   0.258  15.088 -0.4357  1.1611  0.1105
15553TIP3   OH268149   2.238   6.795  14.966  0.1035  0.6283 -0.8221
15553TIP3    H168150   2.261   6.784  14.874  2.0570  0.2958 -0.3137
15553TIP3    H268151   2.290   6.729  15.012 -1.0355  0.6290  0.5039
15554TIP3   OH268152   2.003   1.483  11.308  0.4242 -0.3015  0.1704
15554TIP3    H168153   1.941   1.471  11.236  0.1415 -1.1171  0.5416
15554TIP3    H268154   1.959   1.542  11.369  0.4286 -0.0749 -0.0432
15555TIP3   OH268155   4.895   6.266  12.486 -0.0088 -0.6580  0.4677
15555TIP3    H168156   4.931   6.181  12.461 -1.4020 -1.1565  0.1251
15555TIP3    H268157   4.832   6.287  12.417  1.5116  1.4447 -0.3429
15556TIP3   OH268158   5.314   3.695   6.416 -0.1406  0.6463 -0.0408
15556TIP3    H168159   5.227   3.676   6.380  0.2852 -0.3226 -0.5762
15556TIP3    H268160   5.304   3.780   6.458 -1.4173  0.4262  0.1241
15557TIP3   OH268161   2.359   5.884   0.600  0.0213 -0.1901  0.1970
15557TIP3    H168162   2.372   5.968   0.555 -0.0703  0.0106  0.5443
15557TIP3    H268163   2.315   5.907   0.682 -2.0656 -0.8024 -0.7042
15558TIP3   OH268164   3.157   4.174   2.200  0.2033  0.4485  0.5255
15558TIP3    H168165   3.109   4.108   2.250 -0.0365  0.6113  0.5162
15558TIP3    H268166   3.190   4.128   2.123 -1.2370  0.6579 -0.2512
15559TIP3   OH268167   0.740   4.459  16.455 -0.7776  0.2480 -0.4475
15559TIP3    H168168   0.793   4.497  16.525 -2.7359  0.8260  0.7291
15559TIP3    H268169   0.778   4.495  16.375 -0.4957  2.0431  0.4681
15560TIP3   OH268170   0.905   5.645  13.632  0.2989  0.3237  0.3080
15560TIP3    H168171   0.992   5.683  13.643  0.5609 -0.3168  0.4529
15560TIP3    H268172   0.845   5.716  13.652  0.7896  0.5523  0.9709
15561TIP3   OH268173   0.581   0.367   1.355  0.2678 -0.4199  0.0530
15561TIP3    H168174   0.537   0.406   1.279  1.5626 -0.3439 -0.6609
15561TIP3    H268175   0.634   0.297   1.319  1.1917 -0.1403  0.8506
15562TIP3   OH268176   1.126   1.783   1.572  0.3924 -0.2014  0.1427
15562TIP3    H168177   1.185   1.714   1.542 -1.0615 -0.8508 -1.3431
15562TIP3    H268178   1.110   1.762   1.664  0.2694 -1.6443 -0.1890
15563TIP3   OH268179   6.262   0.687  10.816 -0.1721 -0.1872 -0.1181
15563TIP3    H168180   6.274   0.630  10.892 -0.0064  1.0640  0.8039
15563TIP3    H268181   6.170   0.712  10.818 -0.1896 -0.2269 -0.3817
15564TIP3   OH268182   0.206   0.692  13.004  0.0208  0.2028 -0.4621
15564TIP3    H168183   0.177   0.602  13.020 -1.9460  1.0791  1.1169
15564TIP3    H268184   0.235   0.692  12.913 -1.7789 -1.5857 -1.0799
15565TIP3   OH268185   3.299   4.440   6.256  0.2277 -0.8495  0.6313
15565TIP3    H168186   3.230   4.501   6.226  1.2305 -0.1891 -0.3813
15565TIP3    H268187   3.311   4.462   6.348  1.5967  1.5271 -0.0703
15566TIP3   OH268188   3.320   0.845   1.253  0.5262  0.3356  0.0005
15566TIP3    H168189   3.225   0.835   1.257  0.1620  3.1651  0.1132
15566TIP3    H268190   3.351   0.816   1.339 -0.4438  0.9769  0.5832
15567TIP3   OH268191   1.449   3.810   4.064  0.6908  0.5753 -0.3143
15567TIP3    H168192   1.524   3.854   4.024  0.3207  1.4512 -0.0527
15567TIP3    H268193   1.410   3.759   3.993  1.6214 -0.0083 -0.4149
15568TIP3   OH268194   5.178   4.760  13.824 -0.1769 -0.2096  0.7782
15568TIP3    H168195   5.254   4.815  13.845  0.5222 -0.0929 -1.8730
15568TIP3    H268196   5.102   4.814  13.845  0.5046  0.9639  0.2633
15569TIP3   OH268197   0.285   5.799  16.794 -0.0319 -0.1921  1.1325
15569TIP3    H168198   0.346   5.822  16.865  0.1801  2.9958  0.0047
15569TIP3    H268199   0.200   5.829  16.826 -0.2518 -0.4462  0.7802
15570TIP3   OH268200   1.092   0.123  14.763  0.5356  0.4012  0.5976
15570TIP3    H168201   1.073   0.217  14.759  0.8014  0.5165  1.7604
15570TIP3    H268202   1.007   0.080  14.756  0.6237  0.6297 -2.4418
15571TIP3   OH268203   4.206   1.912   5.307 -0.4654  0.1946 -0.2099
15571TIP3    H168204   4.134   1.970   5.282  0.6632  1.8187  0.1629
15571TIP3    H268205   4.279   1.940   5.251  0.3576 -0.2275  0.6400
15572TIP3   OH268206   1.247   3.209   1.484 -0.3830  0.5489 -0.3281
15572TIP3    H168207   1.160   3.246   1.502 -0.6003 -0.0571 -0.1311
15572TIP3    H268208   1.277   3.176   1.568 -0.4198 -0.2151 -0.6153
15573TIP3   OH268209   5.043   4.930   3.468 -0.5935  0.1685 -0.2110
15573TIP3    H168210   5.061   4.855   3.525 -0.7408  0.5026  0.2766
15573TIP3    H268211   5.115   4.928   3.404 -0.1097  0.1254  0.3270
15574TIP3   OH268212   2.367   6.127   3.356  0.1947 -0.1440  0.7519
15574TIP3    H168213   2.366   6.069   3.280  1.8781  2.5216 -1.4011
15574TIP3    H268214   2.296   6.189   3.340 -0.3984 -0.4381  2.1299
15575TIP3   OH268215   3.317   2.694   2.624 -0.1562 -0.1226  0.1962
15575TIP3    H168216   3.267   2.639   2.563  3.2586 -1.2895 -1.6784
15575TIP3    H268217   3.390   2.639   2.651  0.2585  1.6035  2.7347
15576TIP3   OH268218   6.004   5.013  16.460  0.6058 -0.7595  0.2321
15576TIP3    H168219   6.067   5.010  16.532  0.4971  1.6398  0.4674
15576TIP3    H268220   5.919   5.019  16.504  0.6411  2.5594 -0.0321
15577TIP3   OH268221   5.353   0.813  14.072  0.2109  0.6678 -0.1989
15577TIP3    H168222   5.338   0.827  13.978 -0.1873 -0.4229 -0.3033
15577TIP3    H268223   5.332   0.897  14.112  0.1230  1.0650 -1.0635
15578TIP3   OH268224   4.885   1.306   6.541 -0.1257 -0.1897  0.3688
15578TIP3    H168225   4.973   1.331   6.512  0.1647 -2.7405 -1.1288
15578TIP3    H268226   4.833   1.385   6.531  1.3652  0.5934 -1.4380
15579TIP3   OH268227   6.322   0.281   4.084 -0.7675 -0.2228 -0.3102
15579TIP3    H168228   6.363   0.284   3.998 -0.3308  2.5286 -0.0574
15579TIP3    H268229   6.228   0.290   4.066 -0.5529  2.0055 -0.4455
15580TIP3   OH268230   6.100   1.199  11.135  0.2451 -0.2519 -0.5372
15580TIP3    H168231   6.085   1.173  11.226  0.3182  1.1548 -0.1078
15580TIP3    H268232   6.012   1.205  11.097  0.2060 -0.6986 -0.5105
15581TIP3   OH268233   6.511   5.256   0.366 -0.8509 -0.4643  0.5287
15581TIP3    H168234   6.504   5.162   0.352 -1.3998 -0.2712 -0.5870
15581TIP3    H268235   6.605   5.274   0.365 -0.6477 -1.2212  2.4303
15582TIP3   OH268236   3.221   1.582  16.394 -0.2780 -0.0769 -0.5572
15582TIP3    H168237   3.301   1.539  16.364  0.3847  0.4852  0.3961
15582TIP3    H268238   3.219   1.664  16.345  0.2106  0.3300  0.1139
15583TIP3   OH268239   5.915   0.728   5.056  0.2440 -0.1359 -0.2807
15583TIP3    H168240   5.977   0.709   5.126  0.7322 -0.1558 -0.7092
15583TIP3    H268241   5.847   0.662   5.064 -0.0658  0.2807  0.6002
15584TIP3   OH268242   6.256   1.333   2.446 -0.0621 -0.1170 -0.2503
15584TIP3    H168243   6.187   1.399   2.454  1.6197  1.6962 -0.2430
15584TIP3    H268244   6.238   1.291   2.362 -1.9989 -0.6762  0.4121
15585TIP3   OH268245   4.962   0.347  13.721  0.2575 -0.0482  0.1953
15585TIP3    H168246   4.929   0.422  13.768  0.4760  0.8081 -0.9860
15585TIP3    H268247   4.954   0.371  13.628  2.0679 -0.7002 -0.1637
15586TIP3   OH268248   4.319   5.085   5.501  0.4097 -0.0531  0.1105
15586TIP3    H168249   4.245   5.143   5.487  0.3761  0.3439  1.8525
15586TIP3    H268250   4.392   5.129   5.457 -0.2729 -0.2434 -1.2524
15587TIP3   OH268251   2.399   6.339  12.418  0.0022 -0.0508  0.0600
15587TIP3    H168252   2.320   6.393  12.423 -0.5117 -0.5571 -2.1103
15587TIP3    H268253   2.427   6.346  12.327  2.4104  0.0133  0.7695
15588TIP3   OH268254   6.375   0.372  11.636 -0.0042  0.1509 -0.2155
15588TIP3    H168255   6.462   0.403  11.660 -0.1121  1.1893 -1.1066
15588TIP3    H268256   6.325   0.378  11.718  0.1834  1.6511 -0.1894
15589TIP3   OH268257   6.103   4.084  16.851 -0.0294  0.4619  0.2412
15589TIP3    H168258   6.043   4.028  16.901  0.4664 -0.0071  0.3263
15589TIP3    H268259   6.057   4.100  16.769  0.1007 -0.6503 -0.0674
15590TIP3   OH268260   3.926   6.706  15.464 -0.3529 -0.5600 -0.8438
15590TIP3    H168261   3.860   6.658  15.515  0.8526 -0.7222  0.5990
15590TIP3    H268262   3.937   6.653  15.385 -0.3644 -1.7226 -0.0905
15591TIP3   OH268263   5.715   4.487   4.613  0.1199 -0.0435 -0.0350
15591TIP3    H168264   5.774   4.544   4.564 -1.6900  0.5973 -1.5660
15591TIP3    H268265   5.725   4.515   4.704 -0.1325  2.2132 -0.6526
15592TIP3   OH268266   2.648   1.406   2.762  0.1514 -0.4958  0.4707
15592TIP3    H168267   2.630   1.478   2.702 -0.3206 -0.3375  0.7951
15592TIP3    H268268   2.737   1.422   2.794 -0.6515  1.0172  2.0200
15593TIP3   OH268269   0.728   2.236  14.064  0.4172 -0.2667  0.4902
15593TIP3    H168270   0.791   2.289  14.014  0.0711 -0.7361 -0.4532
15593TIP3    H268271   0.742   2.262  14.155  0.4269  1.2639  0.0677
15594TIP3   OH268272   3.189   6.191  15.133  0.6172  0.1184 -0.5251
15594TIP3    H168273   3.244   6.114  15.147  1.1474  0.4946 -0.4894
15594TIP3    H268274   3.129   6.192  15.207 -0.2312 -0.9669 -1.2010
15595TIP3   OH268275   1.960   2.776   2.121  0.0747  0.0896 -0.0741
15595TIP3    H168276   1.977   2.871   2.122  1.4673 -0.1577 -0.1858
15595TIP3    H268277   2.041   2.736   2.153 -1.0415 -1.0047  1.4722
15596TIP3   OH268278   4.765   5.068   5.272  0.7025  0.1967  0.0820
15596TIP3    H168279   4.785   5.018   5.351 -0.7460  1.1281  1.0712
15596TIP3    H268280   4.782   5.008   5.200  0.3441 -1.2454  1.1871
15597TIP3   OH268281   0.557   4.792  17.014  0.8507  0.5610 -0.4374
15597TIP3    H168282   0.495   4.734  16.970 -0.2769  1.5059 -0.1144
15597TIP3    H268283   0.587   4.852  16.946 -0.8089  1.9507  0.0196
15598TIP3   OH268284   2.678   4.293   2.951  0.3560  0.1531  0.7743
15598TIP3    H168285   2.671   4.220   2.889 -0.6697 -0.5135  1.6470
15598TIP3    H268286   2.591   4.332   2.951  0.1866 -0.1947  2.1898
15599TIP3   OH268287   5.010   1.304   2.500  0.6247  0.0942  0.4963
15599TIP3    H168288   5.032   1.395   2.476 -1.8349  0.9167  1.2672
15599TIP3    H268289   5.055   1.291   2.584  0.9990  0.5916  0.3809
15600TIP3   OH268290   2.788   4.332   5.570 -0.2825  0.0392 -0.0588
15600TIP3    H168291   2.858   4.342   5.505  0.4067  0.1915  0.6924
15600TIP3    H268292   2.716   4.291   5.522  0.2739  0.0008 -0.8746
15601TIP3   OH268293   3.134   0.253  12.753  0.1821 -0.1972 -0.0252
15601TIP3    H168294   3.126   0.349  12.757  1.2346 -0.1382  0.8807
15601TIP3    H268295   3.122   0.233  12.660  1.3766  0.9701 -0.4654
15602TIP3   OH268296   2.118   5.759  14.006 -0.1157  0.1811  0.6119
15602TIP3    H168297   2.165   5.818  14.065 -1.5382  1.6229  0.3331
15602TIP3    H268298   2.070   5.700  14.064  0.1181  0.2571  0.8859
15603TIP3   OH268299   1.656   0.948   0.711 -0.3262 -0.2558  0.4205
15603TIP3    H168300   1.725   0.882   0.711 -0.5519 -0.5286  2.1657
15603TIP3    H268301   1.584   0.906   0.760 -1.9675 -0.2274 -1.8939
15604TIP3   OH268302   4.907   3.080  13.008 -0.1164  0.2834  0.3943
15604TIP3    H168303   4.954   3.034  13.077  3.4115 -0.2651 -2.2853
15604TIP3    H268304   4.957   3.160  12.993 -0.5436  0.1627 -1.8623
15605TIP3   OH268305   4.817   5.460  13.648 -0.2232  0.1919  0.0112
15605TIP3    H168306   4.763   5.394  13.691 -0.0629 -0.1496 -0.3090
15605TIP3    H268307   4.893   5.412  13.615  1.0668  0.9185  1.8277
15606TIP3   OH268308   6.677   0.941  11.722 -0.0660 -0.3305 -0.5953
15606TIP3    H168309   6.594   0.966  11.683  1.4912  1.1482 -3.0560
15606TIP3    H268310   6.730   1.020  11.719  2.4275 -1.9687 -1.7224
15607TIP3   OH268311   0.352   3.464  11.263 -0.0210  0.1422 -0.2078
15607TIP3    H168312   0.412   3.390  11.257  0.8114  0.7865 -0.0102
15607TIP3    H268313   0.399   3.528  11.317 -1.3174  0.2351  0.8507
15608TIP3   OH268314   5.275   5.046  12.606  0.1113 -0.4736 -0.1606
15608TIP3    H168315   5.206   5.088  12.658 -0.0425 -1.5326  0.5298
15608TIP3    H268316   5.235   4.963  12.578  0.5529 -0.3664 -1.1129
15609TIP3   OH268317   5.757   2.281  13.137 -0.5900 -0.3122 -0.0859
15609TIP3    H168318   5.731   2.343  13.206 -0.1007 -1.5961  1.2565
15609TIP3    H268319   5.849   2.264  13.154 -0.2007  0.1317 -1.6814
15610TIP3   OH268320   4.392   1.336   0.255  0.3611 -0.1548 -0.0619
15610TIP3    H168321   4.352   1.334   0.168 -1.8142 -0.7111  0.9148
15610TIP3    H268322   4.447   1.258   0.259  1.5948  0.6140 -1.4226
15611TIP3   OH268323   1.888   4.645   1.029  0.2510 -0.0003  0.2285
15611TIP3    H168324   1.877   4.635   0.934  0.8990  0.3484  0.1117
15611TIP3    H268325   1.948   4.575   1.053  1.9977  1.3905 -0.0169
15612TIP3   OH268326   3.057   6.099   4.113 -0.1147 -0.2688 -0.0102
15612TIP3    H168327   3.021   6.186   4.096  0.0783  0.1824  1.7548
15612TIP3    H268328   3.152   6.112   4.113 -0.0772 -0.5499 -0.1489
15613TIP3   OH268329   1.780   1.812  14.043 -0.1591 -0.9983  0.2504
15613TIP3    H168330   1.819   1.851  14.121 -3.9793  1.1118  1.2383
15613TIP3    H268331   1.767   1.720  14.066  0.6508 -0.8627  1.2991
15614TIP3   OH268332   0.834   6.255  15.713 -0.1524 -0.5090 -1.1401
15614TIP3    H168333   0.808   6.278  15.802 -1.5922  0.9081 -1.8850
15614TIP3    H268334   0.928   6.267  15.711 -0.1299 -0.4213  0.1504
15615TIP3   OH268335   4.914   2.616   1.413 -0.1702 -0.3534  0.3284
15615TIP3    H168336   4.945   2.703   1.440  1.3357 -1.0401  0.8646
15615TIP3    H268337   4.905   2.568   1.495  0.1924 -1.0869 -0.0619
15616TIP3   OH268338   3.104   4.096   3.758  0.7649 -0.1284 -0.7380
15616TIP3    H168339   3.062   4.179   3.783  0.7759 -0.2145 -0.4308
15616TIP3    H268340   3.090   4.039   3.833  1.4441 -0.1586 -0.6299
15617TIP3   OH268341   5.439   1.270  11.524  0.3206 -0.7617 -0.3768
15617TIP3    H168342   5.529   1.264  11.554 -0.1195 -0.3391  1.0934
15617TIP3    H268343   5.393   1.201  11.572 -0.3520 -0.2468 -0.2718
15618TIP3   OH268344   4.364   6.023   2.096  0.0099 -0.1485 -0.1631
15618TIP3    H168345   4.368   6.047   2.003  1.2613 -0.8277 -0.2946
15618TIP3    H268346   4.344   5.929   2.095 -0.7658  0.0097  0.2756
15619TIP3   OH268347   0.352   0.650  12.058 -0.3279  0.2098 -0.1060
15619TIP3    H168348   0.301   0.723  12.024 -0.8719 -0.4181 -0.6734
15619TIP3    H268349   0.385   0.606  11.979  0.3324  0.0836  0.2381
15620TIP3   OH268350   1.498   4.853   1.804  0.5382  0.4628  0.0863
15620TIP3    H168351   1.548   4.925   1.766 -0.4675  0.5354 -1.1560
15620TIP3    H268352   1.406   4.881   1.796  0.0669 -1.4006 -1.4440
15621TIP3   OH268353   0.469   5.487   0.769  0.1338  0.1376  0.0097
15621TIP3    H168354   0.442   5.576   0.790  1.2334  0.4016  0.3292
15621TIP3    H268355   0.433   5.434   0.840  1.3364  0.6383  1.0192
15622TIP3   OH268356   2.981   0.190   4.345 -0.1604 -0.3271 -0.0902
15622TIP3    H168357   2.980   0.106   4.390  0.8566 -0.3390 -0.0672
15622TIP3    H268358   3.047   0.241   4.392  1.5648 -0.6514 -2.0953
15623TIP3   OH268359   0.124   2.016  15.935 -0.0976 -0.2670 -0.4584
15623TIP3    H168360   0.148   1.943  15.879  0.9334 -0.1610 -0.1661
15623TIP3    H268361   0.028   2.020  15.930 -0.0303 -0.4091 -2.0030
15624TIP3   OH268362   1.611   2.915  13.467 -0.0191 -0.1356  0.0260
15624TIP3    H168363   1.652   2.837  13.502 -0.4108 -0.5278 -0.3844
15624TIP3    H268364   1.563   2.885  13.390  2.1311  0.9582 -1.8041
15625TIP3   OH268365   3.939   1.526  11.424  0.2780 -0.0406  0.5052
15625TIP3    H168366   3.901   1.462  11.365  0.3075  0.2138  0.2072
15625TIP3    H268367   4.033   1.505  11.426  0.9656  2.3524 -2.6270
15626TIP3   OH268368   5.752   4.396   6.505 -0.4477  0.5565 -0.3670
15626TIP3    H168369   5.688   4.461   6.476 -1.5768 -0.5088 -0.2895
15626TIP3    H268370   5.830   4.447   6.526 -1.2112  1.8518 -0.6376
15627TIP3   OH268371   0.091   4.258   2.837  0.0568  0.1392  0.0731
15627TIP3    H168372   0.132   4.340   2.865  2.9206 -0.7185 -1.4555
15627TIP3    H268373   0.033   4.284   2.765 -1.3289  1.2068  1.5405
15628TIP3   OH268374   1.759   3.569   3.826  0.3865 -0.1690  0.4191
15628TIP3    H168375   1.706   3.490   3.814  0.8983 -0.5078  0.3521
15628TIP3    H268376   1.702   3.641   3.799 -0.3239 -0.4562  1.1379
15629TIP3   OH268377   2.005   2.415  16.846 -0.0630 -0.1271 -0.6238
15629TIP3    H168378   2.089   2.372  16.859 -0.9657 -1.3947  1.3565
15629TIP3    H268379   2.024   2.508  16.850  1.1792 -0.4177  0.2654
15630TIP3   OH268380   0.066   0.130   2.098  0.1219  0.3322 -0.4390
15630TIP3    H168381   0.131   0.130   2.028  0.0821  0.9564 -0.4776
15630TIP3    H268382   0.049   0.038   2.115  0.8823  0.1661 -0.5572
15631TIP3   OH268383   2.304   0.110  15.873  0.2574 -0.4214  0.3268
15631TIP3    H168384   2.256   0.057  15.809  2.5150 -1.9021 -0.2025
15631TIP3    H268385   2.266   0.087  15.958 -1.1303 -0.2319 -0.2179
15632TIP3   OH268386   6.342   4.066   4.604 -0.2232  0.6219  1.0411
15632TIP3    H168387   6.259   4.064   4.652  0.0547 -0.2658  1.4866
15632TIP3    H268388   6.407   4.034   4.666 -0.2410 -2.9285 -0.6292
15633TIP3   OH268389   0.319   2.357  11.247  0.3406 -0.4659  0.1312
15633TIP3    H168390   0.382   2.427  11.229 -0.3609  0.2095  0.2750
15633TIP3    H268391   0.308   2.313  11.163 -0.1195  0.3503 -0.2377
15634TIP3   OH268392   5.314   5.383  14.299 -0.3338  0.4654 -0.3414
15634TIP3    H168393   5.331   5.289  14.308  0.8663  0.7452  0.3932
15634TIP3    H268394   5.220   5.391  14.314 -0.0461 -0.3289  2.3071
15635TIP3   OH268395   4.295   2.999   4.950 -0.4064  0.1424 -0.0128
15635TIP3    H168396   4.234   3.072   4.941 -0.4292  0.1447  0.1445
15635TIP3    H268397   4.250   2.938   5.008  0.9371  1.4881  2.5523
15636TIP3   OH268398   3.621   0.269  12.802 -0.1303 -0.3571 -0.0291
15636TIP3    H168399   3.647   0.310  12.720 -1.6064 -0.2367 -0.4576
15636TIP3    H268400   3.703   0.250  12.847  0.6067  2.4656 -0.1053
15637TIP3   OH268401   4.174   2.797   4.118 -0.3308 -0.4571  0.1850
15637TIP3    H168402   4.188   2.748   4.037  0.6304 -0.4959  0.3623
15637TIP3    H268403   4.242   2.764   4.178 -0.2381  0.4556  0.5974
15638TIP3   OH268404   6.244   5.609  10.131 -0.6346  0.5492 -0.1696
15638TIP3    H168405   6.176   5.549  10.102 -1.4422  1.0751  0.6312
15638TIP3    H268406   6.324   5.575  10.091 -1.1052 -0.9986  0.1797
15639TIP3   OH268407   5.300   0.062   5.269 -0.0768  0.1807 -0.6809
15639TIP3    H168408   5.356   0.130   5.307  0.8781 -0.1523 -1.4653
15639TIP3    H268409   5.333  -0.019   5.308  0.4377 -0.0868 -1.6542
15640TIP3   OH268410   6.344   1.713  15.296 -0.0885  0.6959  0.0931
15640TIP3    H168411   6.319   1.767  15.220 -0.9903 -0.2313 -0.2841
15640TIP3    H268412   6.419   1.759  15.334 -0.2391  1.7012 -0.7851
15641TIP3   OH268413   3.663   3.344  15.005  0.2529 -0.5442  0.4014
15641TIP3    H168414   3.600   3.408  14.972 -0.1703 -0.6654  0.9801
15641TIP3    H268415   3.642   3.335  15.098  0.8748 -0.8684  0.5136
15642TIP3   OH268416   2.932   2.135  12.746  0.0415 -0.0838 -0.4635
15642TIP3    H168417   3.026   2.135  12.763 -0.2096 -1.0753  1.1310
15642TIP3    H268418   2.904   2.225  12.760  0.5911 -0.0062  0.1319
15643TIP3   OH268419   2.023   5.738   4.585 -0.0209  0.2033  0.7543
15643TIP3    H168420   1.994   5.819   4.544 -1.0940 -1.0463 -1.0320
15643TIP3    H268421   2.065   5.689   4.514  1.7347 -0.2810  2.0983
15644TIP3   OH268422   5.333   2.432  14.881  0.3490 -0.1173 -0.3895
15644TIP3    H168423   5.289   2.509  14.844  0.7610 -0.7119 -2.1529
15644TIP3    H268424   5.425   2.456  14.882  0.4674 -0.5511 -0.8542
15645TIP3   OH268425   5.080   0.708   1.419 -0.4499 -0.4588  0.0259
15645TIP3    H168426   5.001   0.662   1.449  0.4589 -2.3155 -0.3616
15645TIP3    H268427   5.049   0.765   1.348 -1.5383 -0.6826  0.3106
15646TIP3   OH268428   2.900   5.408   3.481  0.3754 -0.0062  0.1117
15646TIP3    H168429   2.914   5.313   3.482 -0.0229 -0.0693  1.9740
15646TIP3    H268430   2.831   5.421   3.416 -0.6649 -1.1734  0.9551
15647TIP3   OH268431   3.461   6.818  13.689  0.4183 -0.4857  0.3685
15647TIP3    H168432   3.478   6.733  13.648 -0.4010 -0.0079 -1.0106
15647TIP3    H268433   3.524   6.823  13.761  0.0330 -2.5517  0.8997
15648TIP3   OH268434   4.685   2.322   0.371  0.3280  0.4042 -0.0989
15648TIP3    H168435   4.694   2.275   0.454 -0.4785 -0.2165 -0.3611
15648TIP3    H268436   4.650   2.407   0.395  0.9872  0.5703  0.2908
15649TIP3   OH268437   6.580   5.205  16.062 -0.5856 -0.4830  0.0790
15649TIP3    H168438   6.487   5.194  16.047 -0.6489 -0.6192  0.5645
15649TIP3    H268439   6.586   5.265  16.136 -0.2796  0.0791 -0.3879
15650TIP3   OH268440   0.978   1.200   4.289 -0.7513 -0.1556 -0.5303
15650TIP3    H168441   1.004   1.290   4.311 -0.4216 -0.4711  0.4102
15650TIP3    H268442   0.899   1.185   4.340  1.0251 -1.5246  1.9591
15651TIP3   OH268443   6.743   1.779   4.991 -0.1664 -0.0447  0.3476
15651TIP3    H168444   6.750   1.724   5.070 -1.6979 -0.5487  0.1576
15651TIP3    H268445   6.683   1.849   5.016 -0.8068 -0.3145 -0.4304
15652TIP3   OH268446   3.446   4.905  16.008  0.0020  0.6498 -0.3450
15652TIP3    H168447   3.469   4.996  15.988  1.3257  0.5233  0.6083
15652TIP3    H268448   3.408   4.908  16.096  1.3205  0.0779  0.2441
15653TIP3   OH268449   4.481   5.985   3.470 -0.2187 -0.1997  0.1319
15653TIP3    H168450   4.411   5.924   3.492 -0.1405 -0.8251 -1.2591
15653TIP3    H268451   4.560   5.931   3.465  0.1122  0.2616  0.3475
15654TIP3   OH268452   1.673   1.068  16.640  0.3507 -0.0526 -0.2038
15654TIP3    H168453   1.657   1.008  16.713  0.2047  0.5617  0.2726
15654TIP3    H268454   1.681   1.011  16.563 -0.8538 -0.6118  0.0676
15655TIP3   OH268455   3.622   1.087  15.182 -0.0119  0.0891 -0.1259
15655TIP3    H168456   3.703   1.113  15.226 -0.1907  0.1689  0.1549
15655TIP3    H268457   3.599   1.163  15.129 -0.5887  0.5419  0.7705
15656TIP3   OH268458   3.841   4.258  16.802  0.4869 -0.1101 -0.7843
15656TIP3    H168459   3.788   4.231  16.727 -0.2103  1.8772 -1.0256
15656TIP3    H268460   3.815   4.349  16.819  3.3919  0.7375 -0.5656
15657TIP3   OH268461   4.213   1.768  13.884 -0.2076  0.0461  0.1239
15657TIP3    H168462   4.185   1.859  13.871  0.6727 -0.0465 -2.6486
15657TIP3    H268463   4.151   1.716  13.833  0.5663 -0.7414 -0.0177
15658TIP3   OH268464   5.498   0.421   5.702  0.7515 -0.2751  0.1138
15658TIP3    H168465   5.506   0.327   5.717  0.8247 -0.4867 -1.1705
15658TIP3    H268466   5.479   0.429   5.608  1.6844  1.0370  0.0156
15659TIP3   OH268467   2.998   5.157   3.425  0.3940  0.5720 -0.2796
15659TIP3    H168468   2.959   5.084   3.378 -0.0534  1.6483 -1.6050
15659TIP3    H268469   3.078   5.121   3.464 -0.7340 -1.0696  0.5976
15660TIP3   OH268470   2.015   0.131  15.956  0.1093  0.3574 -0.5818
15660TIP3    H168471   2.035   0.086  15.874  0.6887  0.3731 -0.4531
15660TIP3    H268472   1.933   0.090  15.986  0.8101 -0.8629 -0.2936
15661TIP3   OH268473   1.881   5.733  11.266  0.4043 -0.1275 -0.4018
15661TIP3    H168474   1.948   5.704  11.205  0.6993  1.1165 -0.6768
15661TIP3    H268475   1.798   5.716  11.222  0.4807 -2.6115  0.3490
15662TIP3   OH268476   5.608   4.718  12.890  0.3198  0.1646  0.3439
15662TIP3    H168477   5.522   4.757  12.873  0.5828  0.3383 -0.6544
15662TIP3    H268478   5.665   4.756  12.823  0.8707 -0.9575  0.1563
15663TIP3   OH268479   4.777   0.746   2.913 -0.3566 -0.4146 -0.4057
15663TIP3    H168480   4.720   0.809   2.958  1.0847  0.5014  0.1940
15663TIP3    H268481   4.803   0.684   2.980 -3.3183 -2.8607 -1.4070
15664TIP3   OH268482   2.290   2.547  11.332  0.3935  0.1942 -0.5092
15664TIP3    H168483   2.282   2.453  11.346 -1.5316  0.5076  0.6092
15664TIP3    H268484   2.318   2.582  11.416 -0.0927  0.7609 -0.5767
15665TIP3   OH268485   3.879   0.563  14.517 -0.5734 -0.1467 -0.2670
15665TIP3    H168486   3.945   0.609  14.568 -0.6372 -2.9293  2.4703
15665TIP3    H268487   3.796   0.595  14.551 -0.6231  0.1147 -0.6347
15666TIP3   OH268488   5.611   3.378  14.663  0.3290 -0.2190 -0.2184
15666TIP3    H168489   5.689   3.336  14.626 -0.0860 -1.1374 -0.0759
15666TIP3    H268490   5.638   3.406  14.751 -0.0081 -2.1833  0.5496
15667TIP3   OH268491   0.062   4.299  16.892 -0.3130  0.5967 -0.0294
15667TIP3    H168492  -0.025   4.323  16.923 -0.2202 -2.0138  2.4518
15667TIP3    H268493   0.114   4.378  16.901 -1.9756  1.6855  0.1757
15668TIP3   OH268494   6.046   2.768   1.818  0.1447  0.5647 -0.8163
15668TIP3    H168495   6.067   2.741   1.729 -0.8645  0.2105 -0.9532
15668TIP3    H268496   5.963   2.814   1.811 -0.2534 -0.0082  0.0240
15669TIP3   OH268497   2.949   4.927  14.611  0.1876  0.5473 -0.0457
15669TIP3    H168498   2.870   4.885  14.646 -0.5865  0.9985 -1.2067
15669TIP3    H268499   2.952   4.900  14.520  1.3721  0.5635 -0.0141
15670TIP3   OH268500   0.286   6.589   4.837 -0.5656  0.3732  0.2988
15670TIP3    H168501   0.368   6.625   4.804 -0.7041  1.1827  0.8305
15670TIP3    H268502   0.274   6.631   4.922  0.0513 -2.1152  1.6345
15671TIP3   OH268503   0.651   3.310   5.677 -0.1811  0.1061 -0.5718
15671TIP3    H168504   0.657   3.291   5.583 -0.7037 -1.7993 -0.2337
15671TIP3    H268505   0.564   3.348   5.688 -0.3374 -0.1822 -0.7799
15672TIP3   OH268506   0.867   6.751  12.865 -0.0329  0.2005  0.1144
15672TIP3    H168507   0.925   6.779  12.936  0.6708 -0.8122 -0.0551
15672TIP3    H268508   0.869   6.824  12.803 -1.5557  1.5982  1.6339
15673TIP3   OH268509   1.638   2.426   3.523 -0.4698 -0.4136 -0.2408
15673TIP3    H168510   1.555   2.391   3.489 -0.8443  0.4163 -0.2006
15673TIP3    H268511   1.645   2.389   3.611 -2.0635  1.5014  0.7270
15674TIP3   OH268512   2.870   3.325  17.232 -0.0285  0.0608 -0.1625
15674TIP3    H168513   2.942   3.267  17.209  0.3269  0.9425 -1.3266
15674TIP3    H268514   2.912   3.398  17.279 -0.5352 -0.8719  1.8052
15675TIP3   OH268515   4.084   2.424  14.415 -0.0048 -0.2717  0.3635
15675TIP3    H168516   4.125   2.473  14.344 -0.1422 -0.6155  0.0444
15675TIP3    H268517   4.026   2.362  14.370 -0.4994 -0.1212  0.7919
15676TIP3   OH268518   3.343   0.346  17.263  1.1090  0.2496  0.7024
15676TIP3    H168519   3.436   0.368  17.260  0.8864  1.2469  1.1519
15676TIP3    H268520   3.299   0.427  17.288 -0.0259  0.1608 -0.9615
15677TIP3   OH268521   1.818   2.340   4.767  0.4193 -0.0277  0.5109
15677TIP3    H168522   1.753   2.284   4.725  1.1703 -0.7360  0.2687
15677TIP3    H268523   1.898   2.327   4.716  1.4807 -1.3027  2.4415
15678TIP3   OH268524   2.676   1.292  11.225  0.0436  0.0338  0.7044
15678TIP3    H168525   2.666   1.208  11.268  1.4512 -0.7234 -0.3969
15678TIP3    H268526   2.755   1.330  11.264 -0.2163  0.5496  0.7330
15679TIP3   OH268527   6.501   2.898   3.044  0.3148 -0.6303  0.4050
15679TIP3    H168528   6.413   2.867   3.023  0.8014 -1.6708 -0.1478
15679TIP3    H268529   6.518   2.863   3.131  0.6842 -1.5316 -0.0269
15680TIP3   OH268530   5.834   2.434   0.387 -0.1815 -0.1507 -0.7441
15680TIP3    H168531   5.803   2.412   0.475 -2.7553 -1.1195 -1.8226
15680TIP3    H268532   5.913   2.485   0.401 -0.4677 -0.4180  2.1303
15681TIP3   OH268533   0.524   0.266  17.052  0.7408  0.0482  0.1433
15681TIP3    H168534   0.429   0.280  17.046  0.5244 -1.0609  0.7903
15681TIP3    H268535   0.533   0.178  17.088  2.0412 -0.7494 -2.0666
15682TIP3   OH268536   1.135   4.575   0.608  0.0795  1.2606 -0.2467
15682TIP3    H168537   1.219   4.620   0.612  0.8067 -0.1561  1.1937
15682TIP3    H268538   1.157   4.482   0.608 -1.4899  0.8638  0.6944
15683TIP3   OH268539   1.305   5.491  13.610  0.6187 -0.2917 -0.2679
15683TIP3    H168540   1.331   5.400  13.626  0.4229 -0.5844 -1.5973
15683TIP3    H268541   1.296   5.497  13.515  0.1359  0.9841 -0.1433
15684TIP3   OH268542   0.052   5.385   2.845 -0.2397  0.2667 -0.2791
15684TIP3    H168543   0.059   5.423   2.933  1.0556 -1.4396  0.3908
15684TIP3    H268544  -0.026   5.330   2.850  0.0018 -0.0625 -0.0959
15685TIP3   OH268545   2.277   4.474  16.852  0.1750 -0.4546  1.1206
15685TIP3    H168546   2.182   4.470  16.856  0.1680 -0.9334  0.5419
15685TIP3    H268547   2.298   4.566  16.864 -0.4934  0.0591 -1.5050
15686TIP3   OH268548   4.018   4.267  11.604 -0.6976 -0.3129  0.0025
15686TIP3    H168549   4.109   4.292  11.618 -0.0424 -0.8370 -2.9623
15686TIP3    H268550   3.967   4.344  11.629  0.7487  1.0018 -1.0082
15687TIP3   OH268551   1.288   2.871  13.476  0.2419  0.5214  0.3202
15687TIP3    H168552   1.352   2.800  13.479  1.1140  1.1886 -1.8492
15687TIP3    H268553   1.203   2.828  13.484  0.7195 -0.8706 -1.7482
15688TIP3   OH268554   0.168   4.916  12.961 -0.6332 -0.6370  0.3299
15688TIP3    H168555   0.204   4.939  13.046  3.2288  1.4300 -1.7410
15688TIP3    H268556   0.208   4.831  12.940 -1.5345 -1.1156  0.5127
15689TIP3   OH268557   4.461   1.330   3.282  0.5710 -0.6647  0.2836
15689TIP3    H168558   4.453   1.336   3.377  2.1612 -1.5414  0.4957
15689TIP3    H268559   4.377   1.295   3.253 -0.3272  0.6663  1.2419
15690TIP3   OH268560   3.858   1.047  13.793 -0.0837 -0.3309  0.1860
15690TIP3    H168561   3.925   1.063  13.859 -0.6025 -0.4960  0.7632
15690TIP3    H268562   3.883   0.964  13.753  0.1101 -0.3441  0.3323
15691TIP3   OH268563   4.555   5.203  10.581 -0.3582  0.1206  0.0947
15691TIP3    H168564   4.607   5.225  10.504  0.3564  0.7102  0.7395
15691TIP3    H268565   4.547   5.108  10.578  1.0867 -0.0052  0.2043
15692TIP3   OH268566   0.020   3.370   0.683 -0.4414 -0.4486 -0.0083
15692TIP3    H168567   0.052   3.321   0.758 -0.3555 -2.1168 -1.1133
15692TIP3    H268568   0.089   3.435   0.666  0.4198 -1.2845  0.2142
15693TIP3   OH268569   5.021   5.727   5.796 -0.2978  0.4050  0.3470
15693TIP3    H168570   4.941   5.751   5.844 -0.1914  0.5429  0.4569
15693TIP3    H268571   5.091   5.741   5.859 -0.0521  1.5792 -0.1745
15694TIP3   OH268572   5.290   2.145   2.884  0.8676 -0.2562 -0.1330
15694TIP3    H168573   5.242   2.146   2.801  1.0248  1.4368 -0.2306
15694TIP3    H268574   5.341   2.064   2.881 -1.2439 -1.6151 -0.4458
15695TIP3   OH268575   5.363   0.533  14.046 -0.1376  0.0714  0.1926
15695TIP3    H168576   5.288   0.477  14.029  0.1221 -0.0311 -0.6111
15695TIP3    H268577   5.326   0.619  14.067 -0.5130 -0.2483  0.8524
15696TIP3   OH268578   1.865   4.519  14.288  0.5271 -0.7513  0.1429
15696TIP3    H168579   1.923   4.520  14.365  0.3584  0.6761  0.2576
15696TIP3    H268580   1.854   4.611  14.265  2.3381 -1.2492 -2.9445
15697TIP3   OH268581   5.396   0.154  14.640 -0.3859 -0.9204  0.0960
15697TIP3    H168582   5.460   0.083  14.634  2.0602  1.1268  0.8774
15697TIP3    H268583   5.364   0.164  14.550  0.5040 -1.8629 -0.3442
15698TIP3   OH268584   1.753   5.187  13.848  0.5616 -0.2469 -0.2638
15698TIP3    H168585   1.667   5.176  13.806  0.8131 -2.2242 -0.2892
15698TIP3    H268586   1.755   5.119  13.915  2.1791 -0.3218 -0.3826
15699TIP3   OH268587   0.152   0.882   6.545  0.1265  0.0977 -0.2570
15699TIP3    H168588   0.075   0.863   6.492 -3.3282  0.4761  4.3359
15699TIP3    H268589   0.167   0.976   6.532 -1.5616  0.4871  0.3938
15700TIP3   OH268590   4.992   3.715   2.523  0.0835 -0.2594  1.1075
15700TIP3    H168591   4.904   3.701   2.560 -0.5227 -0.3664 -0.3433
15700TIP3    H268592   4.975   3.750   2.435  1.5092  0.8938  1.2882
15701TIP3   OH268593   0.555   0.007  17.146 -0.0141 -0.2515  0.1203
15701TIP3    H168594   0.542  -0.059  17.214  2.3057 -0.3587  0.4938
15701TIP3    H268595   0.620  -0.032  17.087 -1.4006  0.1691 -1.7338
15702TIP3   OH268596   3.276   2.021   5.361  0.3734  0.0158  0.2030
15702TIP3    H168597   3.305   1.988   5.276 -2.8397 -0.0642 -0.9433
15702TIP3    H268598   3.298   2.114   5.359 -1.5505  0.4660 -1.6216
15703TIP3   OH268599   3.768   6.185   3.950  0.5241  0.2927  0.5425
15703TIP3    H168600   3.680   6.214   3.976  0.0350 -0.0875 -0.6795
15703TIP3    H268601   3.820   6.265   3.950 -0.2835  0.8376 -0.6056
15704TIP3   OH268602   3.639   3.173   0.778  0.3374 -0.4782 -0.0979
15704TIP3    H168603   3.545   3.155   0.779  0.5800 -2.0511 -1.9647
15704TIP3    H268604   3.654   3.218   0.695  1.0490  0.9998  0.8088
15705TIP3   OH268605   6.576   1.631   3.390 -0.1366  0.0075  0.4311
15705TIP3    H168606   6.660   1.610   3.429  0.1431  1.9882  0.9255
15705TIP3    H268607   6.519   1.652   3.464 -0.5938  0.3579 -0.0107
15706TIP3   OH268608   4.940   1.418   5.922  0.1113 -0.5095  0.1779
15706TIP3    H168609   5.023   1.425   5.969  0.1222  1.6132 -0.0988
15706TIP3    H268610   4.878   1.387   5.987  0.6083  0.2198  1.0106
15707TIP3   OH268611   6.256   2.473   1.211  0.6067 -0.0512  0.6504
15707TIP3    H168612   6.329   2.449   1.154  1.7738 -0.4108  2.2620
15707TIP3    H268613   6.216   2.390   1.236 -0.0850  0.1197  0.1384
15708TIP3   OH268614   1.026   3.763   4.542  0.2129 -0.6125 -0.4451
15708TIP3    H168615   1.088   3.835   4.533  0.3992 -0.7873 -0.5729
15708TIP3    H268616   1.039   3.710   4.463 -2.4768  1.1803 -2.1703
15709TIP3   OH268617   0.438   1.123   4.204 -0.3252 -0.0774  0.6667
15709TIP3    H168618   0.406   1.153   4.289 -0.8947 -2.0486  1.1951
15709TIP3    H268619   0.472   1.035   4.222  0.7178 -0.0024 -0.9034
15710TIP3   OH268620   4.401   5.658   2.587 -0.1671 -0.6205  0.2771
15710TIP3    H168621   4.414   5.752   2.597  1.3268 -1.1296  3.7884
15710TIP3    H268622   4.474   5.618   2.634 -2.2633 -3.5523  1.2057
15711TIP3   OH268623   2.073   3.438  14.011  0.2643 -0.0315 -0.0177
15711TIP3    H168624   1.995   3.404  14.055  1.6749 -0.5375  2.1372
15711TIP3    H268625   2.062   3.534  14.014 -1.7345 -0.1423 -2.4826
15712TIP3   OH268626   6.726   1.174  16.933 -0.6531 -0.1376  0.6607
15712TIP3    H168627   6.661   1.162  16.864 -0.7919  1.9640  0.3778
15712TIP3    H268628   6.695   1.120  17.005 -1.3738 -1.1038 -0.3555
15713TIP3   OH268629   1.161   3.638  16.655 -0.9104  0.6899  0.3492
15713TIP3    H168630   1.133   3.724  16.687 -1.8723 -0.1906  1.9140
15713TIP3    H268631   1.100   3.576  16.693  1.1728 -0.9550  1.1489
15714TIP3   OH268632   4.531   5.977  12.559  0.4965 -1.1285 -0.3473
15714TIP3    H168633   4.575   6.037  12.621  0.9360 -2.2537  0.4407
15714TIP3    H268634   4.593   5.967  12.488  0.9642 -1.6660  0.1350
15715TIP3   OH268635   0.375   4.119   0.550 -0.5515 -0.0252 -0.1570
15715TIP3    H168636   0.443   4.186   0.549 -0.1002 -0.4712 -1.5273
15715TIP3    H268637   0.394   4.066   0.627  1.5493 -0.9999 -1.2820
15716TIP3   OH268638   3.333   5.793  14.039  0.1993  0.5556 -0.4680
15716TIP3    H168639   3.409   5.749  14.077 -0.2743 -0.2096 -0.3847
15716TIP3    H268640   3.329   5.877  14.084  2.3016  1.5226 -2.0619
15717TIP3   OH268641   4.827   6.563  15.898 -0.0669  0.0159 -0.2076
15717TIP3    H168642   4.871   6.613  15.829 -1.4282  0.7592 -0.5550
15717TIP3    H268643   4.782   6.493  15.852 -0.6315  0.2644 -0.0451
15718TIP3   OH268644   2.707   3.993   2.002 -0.0217  0.2959 -0.0055
15718TIP3    H168645   2.634   3.987   1.940 -0.9421  2.1295  0.8636
15718TIP3    H268646   2.740   4.082   1.991  0.8586  0.0970  0.9857
15719TIP3   OH268647   1.148   1.399  15.711  0.0194  0.1290 -0.0095
15719TIP3    H168648   1.203   1.337  15.759  0.8365 -1.4870 -2.9087
15719TIP3    H268649   1.177   1.485  15.742  0.9528 -0.8312  1.8925
15720TIP3   OH268650   5.436   4.201   6.548 -0.0247  0.0541  0.1458
15720TIP3    H168651   5.505   4.163   6.603  1.7418 -0.4649 -2.3749
15720TIP3    H268652   5.480   4.267   6.495 -2.0450  1.8092  0.5551
15721TIP3   OH268653   3.011   4.774   1.041 -0.5723  0.3584  0.2800
15721TIP3    H168654   2.981   4.685   1.059 -1.7990  0.8908  0.8913
15721TIP3    H268655   2.944   4.831   1.078 -0.5087  1.5361 -1.3307
15722TIP3   OH268656   5.573   5.391  14.934 -0.5594 -0.2039 -0.1406
15722TIP3    H168657   5.563   5.439  15.016  0.7378 -0.9173  0.4358
15722TIP3    H268658   5.511   5.318  14.941 -0.6347 -0.1169  0.0827
15723TIP3   OH268659   5.243   5.927   3.079  0.8447  0.0250  0.0823
15723TIP3    H168660   5.214   5.872   3.006  2.9563  1.3763 -1.8462
15723TIP3    H268661   5.251   5.867   3.153  2.5193 -2.2124 -1.8227
15724TIP3   OH268662   0.584   4.360   0.853  0.1067  0.9129  0.0892
15724TIP3    H168663   0.534   4.422   0.907 -0.0445  0.4429  0.4955
15724TIP3    H268664   0.523   4.331   0.786 -0.3396 -0.0557  0.8941
15725TIP3   OH268665   4.723   4.426  14.459 -0.0724 -0.1243  0.3551
15725TIP3    H168666   4.686   4.413  14.546 -1.2865  0.3337 -0.0839
15725TIP3    H268667   4.747   4.338  14.430 -2.4981 -0.6806 -0.0752
15726TIP3   OH268668   5.101   0.992  15.310  0.2165  0.2624 -0.6531
15726TIP3    H168669   5.117   1.056  15.241  3.2263  0.3085  0.0007
15726TIP3    H268670   5.188   0.976  15.349 -1.0103 -1.5892  1.4920
15727TIP3   OH268671   2.134   4.513   4.279 -0.2386  0.4004  0.3826
15727TIP3    H168672   2.125   4.606   4.256  0.6819  0.2081 -0.8077
15727TIP3    H268673   2.220   4.488   4.245 -0.5237 -0.9090  0.6058
15728TIP3   OH268674   2.962   2.063  14.987  0.1837 -0.4688 -0.2566
15728TIP3    H168675   3.046   2.106  15.005  0.2692 -0.6650 -0.1871
15728TIP3    H268676   2.919   2.059  15.072  0.5956 -1.4103 -0.0928
15729TIP3   OH268677   4.995   5.685   3.967 -0.5440 -0.4434 -0.1293
15729TIP3    H168678   5.021   5.755   4.027 -0.2932 -1.0296  0.4532
15729TIP3    H268679   4.968   5.731   3.887 -2.4331  0.4376  0.9837
15730TIP3   OH268680   6.000   5.828  12.314 -0.2221  0.3383 -0.4540
15730TIP3    H168681   5.958   5.781  12.242  1.4862 -1.8463 -0.0909
15730TIP3    H268682   5.978   5.777  12.392  0.2513  1.1206  0.2046
15731TIP3   OH268683   6.713   4.913  16.909 -0.2643 -0.1120 -0.6557
15731TIP3    H168684   6.627   4.919  16.866 -0.6060 -0.7458 -0.0738
15731TIP3    H268685   6.709   4.979  16.978 -0.9878 -1.3965  0.5586
15732TIP3   OH268686   3.337   3.163  16.101 -0.0656 -0.3160  0.1276
15732TIP3    H168687   3.366   3.201  16.018  1.1496 -0.0310  0.6609
15732TIP3    H268688   3.363   3.227  16.167  1.1274 -1.5856  0.9353
15733TIP3   OH268689   3.894   1.474  12.878  0.3929 -0.3589 -0.1271
15733TIP3    H168690   3.913   1.544  12.941 -1.2834  1.3526 -1.4609
15733TIP3    H268691   3.925   1.509  12.794  3.0195 -2.7888 -0.2505
15734TIP3   OH268692   5.469   2.002   4.867  0.1255 -0.0288  0.0595
15734TIP3    H168693   5.563   2.014   4.883  0.5064 -0.1474 -1.9071
15734TIP3    H268694   5.463   1.989   4.772 -1.9688  0.8694  0.0467
15735TIP3   OH268695   4.986   4.282  14.617  0.4608 -0.4225  0.3812
15735TIP3    H168696   5.066   4.269  14.667 -0.4484 -3.7402  1.0858
15735TIP3    H268697   4.916   4.272  14.681 -0.6365 -1.7935 -0.9962
15736TIP3   OH268698   0.408   4.162  13.052  1.0715  0.2938  0.5906
15736TIP3    H168699   0.413   4.102  13.126 -1.2065 -1.6863 -0.7926
15736TIP3    H268700   0.381   4.107  12.979 -1.7007  3.0957 -0.5837
15737TIP3   OH268701   0.825   2.981  15.018  0.3063 -0.0287  0.7768
15737TIP3    H168702   0.796   3.008  15.105 -0.3984  0.7495  0.3107
15737TIP3    H268703   0.751   2.932  14.982  0.0265  0.9147  0.0534
15738TIP3   OH268704   5.370   0.788   0.667 -0.1032  0.0681  0.0183
15738TIP3    H168705   5.433   0.811   0.599 -0.6655 -0.2567 -0.6144
15738TIP3    H268706   5.380   0.694   0.678 -0.5093  0.0114 -0.1084
15739TIP3   OH268707   6.328   4.951   3.952 -0.4004 -0.2250 -0.0016
15739TIP3    H168708   6.299   4.982   4.037 -1.4087  0.4545 -0.5819
15739TIP3    H268709   6.255   4.968   3.893  1.2386  1.8110 -1.5562
15740TIP3   OH268710   5.674   4.118  11.401 -0.0235  0.5746  0.1609
15740TIP3    H168711   5.683   4.133  11.495  1.7118  0.3600  0.0501
15740TIP3    H268712   5.649   4.203  11.365 -0.1918  0.7771  0.7514
15741TIP3   OH268713   3.096   5.304   6.555 -0.2267  0.1984 -0.1827
15741TIP3    H168714   3.054   5.279   6.473 -0.6705 -1.8684  0.6459
15741TIP3    H268715   3.025   5.339   6.609 -0.0417  1.0047 -0.4579
15742TIP3   OH268716   3.136   5.414  16.907 -0.4266  0.8972  0.0076
15742TIP3    H168717   3.207   5.386  16.965 -1.7658  0.1954  1.3420
15742TIP3    H268718   3.060   5.362  16.935 -1.5061  1.7482 -1.2882
15743TIP3   OH268719   0.326   3.167   1.954 -0.4726 -0.0762 -0.2695
15743TIP3    H168720   0.353   3.194   2.042 -1.1224  0.2316 -0.1630
15743TIP3    H268721   0.266   3.236   1.925 -0.9853 -0.6530 -0.5849
15744TIP3   OH268722   5.117   6.461  11.747  0.4255 -0.3044 -0.3952
15744TIP3    H168723   5.103   6.482  11.655  0.9724  0.8213 -0.2289
15744TIP3    H268724   5.178   6.387  11.746  0.7722 -0.0132 -0.9262
15745TIP3   OH268725   0.004   5.138   0.502  0.6888 -0.6715  0.1211
15745TIP3    H168726  -0.071   5.112   0.557 -0.7243  0.4739 -1.2222
15745TIP3    H268727   0.076   5.150   0.564 -0.2492 -1.7229  1.4515
15746TIP3   OH268728   5.438   3.119   2.033  0.0082  0.1229 -0.1224
15746TIP3    H168729   5.522   3.156   2.060 -0.3526  0.4447  0.5740
15746TIP3    H268730   5.394   3.098   2.115 -1.2300  1.3880 -0.4438
15747TIP3   OH268731   2.715   3.376  15.413 -0.4131  0.2190  0.2439
15747TIP3    H168732   2.763   3.388  15.331 -1.2822  0.6236 -0.2122
15747TIP3    H268733   2.750   3.444  15.471 -0.7946  0.8516 -0.2556
15748TIP3   OH268734   3.802   5.033  13.660 -0.3270 -0.3781 -0.1019
15748TIP3    H168735   3.807   5.098  13.730  0.6923  0.1401 -0.6412
15748TIP3    H268736   3.867   5.062  13.596 -0.6814 -1.2915 -0.8905
15749TIP3   OH268737   2.090   6.698  15.394 -0.5631 -0.1800  0.0255
15749TIP3    H168738   2.090   6.704  15.490 -0.8084 -0.1867  0.0282
15749TIP3    H268739   1.997   6.690  15.371 -0.3487 -3.6843  0.0179
15750TIP3   OH268740   3.849   5.960  13.229  0.0548  0.4488 -0.1188
15750TIP3    H168741   3.919   5.942  13.167 -0.8732  2.1487 -1.7203
15750TIP3    H268742   3.845   5.882  13.285  3.8236  0.7164  0.6439
15751TIP3   OH268743   1.093   3.818   1.654 -0.1539 -0.1802  0.2609
15751TIP3    H168744   1.067   3.910   1.657 -1.0243 -0.4253  0.4180
15751TIP3    H268745   1.157   3.813   1.584  0.5523  0.7126  0.8304
15752TIP3   OH268746   1.484   1.499   3.263  0.1016 -0.6650 -0.2327
15752TIP3    H168747   1.401   1.535   3.293  1.3850  1.0395  1.3700
15752TIP3    H268748   1.491   1.528   3.172 -2.4729 -3.4556 -1.3830
15753TIP3   OH268749   5.888   1.670   3.897 -0.2635 -0.0634  0.0869
15753TIP3    H168750   5.943   1.633   3.966 -0.0804  0.1078  0.0325
15753TIP3    H268751   5.801   1.632   3.913 -0.6601  1.4060  1.5340
15754TIP3   OH268752   4.023   2.593   2.155 -0.4586  0.7524 -1.0145
15754TIP3    H168753   4.080   2.528   2.196 -1.4460  0.9327  0.6870
15754TIP3    H268754   3.936   2.571   2.186 -0.7630  3.1233 -0.0937
15755TIP3   OH268755   5.343   0.794   2.638 -0.2611 -1.0044 -0.7829
15755TIP3    H168756   5.349   0.789   2.734  0.0185  1.1788 -0.6612
15755TIP3    H268757   5.267   0.850   2.622  0.6592 -0.0327 -1.8048
15756TIP3   OH268758   4.230   2.963  13.153 -0.3713 -0.2956  0.1220
15756TIP3    H168759   4.140   2.988  13.172 -0.7826 -2.0233  0.4640
15756TIP3    H268760   4.229   2.937  13.061  0.2981  1.9365 -0.5582
15757TIP3   OH268761   0.671   4.310  12.188  0.0402  0.4659 -0.5011
15757TIP3    H168762   0.618   4.356  12.253  0.2824  0.5410 -0.3555
15757TIP3    H268763   0.697   4.377  12.125  1.7077  0.8596  0.5654
15758TIP3   OH268764   6.364   5.258  13.004 -0.0042 -0.4641 -0.0433
15758TIP3    H168765   6.281   5.213  13.014 -0.5602  0.5716  0.1138
15758TIP3    H268766   6.340   5.351  12.997  1.2459  0.0703  2.0745
15759TIP3   OH268767   1.681   3.921   5.292  0.8118 -0.4510 -0.5428
15759TIP3    H168768   1.631   3.846   5.259  1.3758 -0.9228 -0.3260
15759TIP3    H268769   1.713   3.893   5.378  2.6599 -0.7060 -1.2829
15760TIP3   OH268770   4.180   3.122  16.479  0.0644 -0.2027  0.0472
15760TIP3    H168771   4.120   3.080  16.541  1.0435  0.0051  1.1618
15760TIP3    H268772   4.136   3.115  16.395 -1.0364 -1.0076  0.6713
15761TIP3   OH268773   2.922   4.692  16.496 -0.6948  0.2344 -0.7896
15761TIP3    H168774   2.965   4.714  16.413 -0.9072  0.9892 -0.6924
15761TIP3    H268775   2.934   4.769  16.551 -1.1561 -0.0064 -0.3501
15762TIP3   OH268776   5.398   4.736  14.168  0.6328  0.5328 -0.2770
15762TIP3    H168777   5.405   4.693  14.083  0.5114 -0.1867  0.0768
15762TIP3    H268778   5.317   4.786  14.163  0.4866  0.2754 -0.4845
15763TIP3   OH268779   5.101   5.130   6.377  0.3775 -0.0245 -0.5968
15763TIP3    H168780   5.119   5.217   6.413  0.8311  0.2908 -1.5676
15763TIP3    H268781   5.159   5.071   6.425 -0.8220  0.0207  0.9298
15764TIP3   OH268782   1.574   2.342  16.125 -0.4241 -0.4250  0.3448
15764TIP3    H168783   1.615   2.402  16.188  0.1720 -0.1553 -0.3069
15764TIP3    H268784   1.603   2.255  16.153 -0.5537 -0.3475  0.7321
15765TIP3   OH268785   2.557   3.859   1.539 -0.5895  0.6471  0.0454
15765TIP3    H168786   2.468   3.887   1.519 -0.5358  1.1656  0.5182
15765TIP3    H268787   2.547   3.788   1.602 -0.6975  0.1755 -0.5047
15766TIP3   OH268788   4.757   3.188  14.596  0.3105  0.0605  0.3565
15766TIP3    H168789   4.764   3.187  14.692  0.9475 -0.9496  0.3033
15766TIP3    H268790   4.667   3.162  14.578  0.4331 -0.5673  0.6521
15767TIP3   OH268791   5.388   4.225   1.417 -0.1124 -0.6219  0.2608
15767TIP3    H168792   5.391   4.239   1.322 -1.5095  0.1031  0.3148
15767TIP3    H268793   5.389   4.313   1.454 -0.6047 -0.8753  0.8826
15768TIP3   OH268794   4.514   6.668  14.361  0.4675 -0.3490  0.8622
15768TIP3    H168795   4.434   6.694  14.407 -0.4994 -0.1045 -0.8949
15768TIP3    H268796   4.568   6.626  14.428 -0.8059  0.1877  2.2465
15769TIP3   OH268797   0.968   1.846  15.375  0.0638  0.5159  0.4504
15769TIP3    H168798   0.920   1.890  15.444  0.4957 -0.3902  1.3373
15769TIP3    H268799   0.900   1.807  15.319 -0.2668  0.4255  0.9143
15770TIP3   OH268800   1.541   6.602  16.679 -0.4171  0.3218  0.1002
15770TIP3    H168801   1.619   6.627  16.630  0.0056 -0.5883  0.3008
15770TIP3    H268802   1.557   6.511  16.705 -2.3589 -0.5034 -1.5029
15771TIP3   OH268803   5.129   5.285  12.330 -0.5634 -0.7228 -0.0274
15771TIP3    H168804   5.123   5.226  12.255 -0.4703 -1.0179  0.1955
15771TIP3    H268805   5.217   5.323  12.323  0.2720 -2.3407  1.1015
15772TIP3   OH268806   4.722   0.159  13.864 -0.4658 -0.4366  0.1573
15772TIP3    H168807   4.705   0.195  13.776 -0.2494  0.9242  0.6565
15772TIP3    H268808   4.651   0.194  13.918 -0.2891 -0.8221  0.6395
15773TIP3   OH268809   4.604   3.610  13.032  0.2204  0.8633  0.0086
15773TIP3    H168810   4.686   3.593  12.986 -0.2678  0.5158 -0.7528
15773TIP3    H268811   4.565   3.524  13.045 -0.7438  1.1256 -0.9990
15774TIP3   OH268812   5.475   6.296  16.144  0.2752  0.0031  0.2563
15774TIP3    H168813   5.419   6.301  16.221 -2.1773 -0.5338 -1.4105
15774TIP3    H268814   5.434   6.228  16.089  0.7076  1.8351 -2.4531
15775TIP3   OH268815   1.371   0.018   0.898  0.0014  0.3394 -0.1078
15775TIP3    H168816   1.363  -0.077   0.888  0.2832  0.3021  0.0174
15775TIP3    H268817   1.451   0.040   0.850  0.5466  0.3627  0.7984
15776TIP3   OH268818   2.262   5.185   5.114  0.2383  0.3673 -0.0872
15776TIP3    H168819   2.302   5.190   5.201 -2.3916  1.0457  1.1321
15776TIP3    H268820   2.173   5.154   5.130  0.7791 -2.9072 -2.9174
15777TIP3   OH268821   2.613   4.193  15.739  1.0123 -0.0592  0.4747
15777TIP3    H168822   2.534   4.141  15.756  0.2033  1.0985  0.3307
15777TIP3    H268823   2.618   4.198  15.644 -0.4561  2.3922  0.4895
15778TIP3   OH268824   2.433   4.513   4.941 -0.1051 -0.1227  0.2744
15778TIP3    H168825   2.431   4.574   5.015  0.3553 -0.3050  0.4335
15778TIP3    H268826   2.340   4.502   4.917 -0.3128 -0.6010  1.2674
15779TIP3   OH268827   2.280   6.556  11.983 -0.1805 -0.1405  0.7167
15779TIP3    H168828   2.335   6.614  12.036 -0.3032  0.1735  0.4994
15779TIP3    H268829   2.268   6.603  11.901  0.5491 -0.9077  0.1536
15780TIP3   OH268830   6.461   4.470  15.606 -0.2940  0.2774  0.1677
15780TIP3    H168831   6.489   4.535  15.671 -0.2560  1.3670 -0.9323
15780TIP3    H268832   6.459   4.518  15.524 -2.0785 -0.6533 -0.3447
15781TIP3   OH268833   3.225   6.741  12.210  0.1712 -0.5005  0.2268
15781TIP3    H168834   3.149   6.777  12.164  0.1860 -1.1937 -0.3505
15781TIP3    H268835   3.300   6.783  12.169  0.2029 -1.3751 -0.6308
15782TIP3   OH268836   4.874   5.799  12.698 -0.6013  0.6006  0.4540
15782TIP3    H168837   4.949   5.848  12.733  0.0078  0.4855 -0.6486
15782TIP3    H268838   4.811   5.798  12.769  1.5371 -1.7103  2.4191
15783TIP3   OH268839   4.307   1.145   5.290  0.1780  0.1250 -0.0698
15783TIP3    H168840   4.289   1.231   5.252  0.6578  0.7322  1.0675
15783TIP3    H268841   4.224   1.098   5.280 -1.5903  2.2916  3.4571
15784TIP3   OH268842   4.156   1.168  16.660 -0.0019 -0.0957 -0.2563
15784TIP3    H168843   4.141   1.149  16.567 -0.9002 -0.3624 -0.0634
15784TIP3    H268844   4.210   1.248  16.659  0.1698 -0.2127 -1.0086
15785TIP3   OH268845   1.705   3.477   2.839  0.1512 -0.2742  0.1271
15785TIP3    H168846   1.612   3.501   2.847  0.7689  2.1116  0.4700
15785TIP3    H268847   1.712   3.395   2.887 -1.8763 -0.7022 -0.2487
15786TIP3   OH268848   2.351   4.002   2.708  0.1401  0.1264 -1.2279
15786TIP3    H168849   2.263   3.970   2.729 -0.2353  1.3269 -0.9112
15786TIP3    H268850   2.409   3.933   2.740 -0.6311 -0.0466 -0.1478
15787TIP3   OH268851   4.917   0.218  16.590  0.5791  0.0917  0.8104
15787TIP3    H168852   4.985   0.208  16.657  0.4809 -1.7097  0.6720
15787TIP3    H268853   4.964   0.210  16.507  0.2445 -0.8389  0.7102
15788TIP3   OH268854   5.036   5.765  17.077 -0.3689  0.3871 -0.0625
15788TIP3    H168855   5.045   5.750  17.171 -0.5366 -0.4236 -0.1639
15788TIP3    H268856   5.126   5.761  17.043 -0.4746 -1.2547 -0.1978
15789TIP3   OH268857   3.481   3.199   2.264 -0.0658  0.7876 -0.1215
15789TIP3    H168858   3.433   3.246   2.196 -0.3634 -0.0841 -0.5319
15789TIP3    H268859   3.568   3.185   2.227 -0.2577  0.2259 -0.3811
15790TIP3   OH268860   2.031   0.776   2.134 -1.0030  0.7418 -0.2257
15790TIP3    H168861   2.034   0.757   2.040 -1.3227 -0.3516 -0.0115
15790TIP3    H268862   1.987   0.701   2.173  0.9313  0.2332  1.0533
15791TIP3   OH268863   2.212   3.533   2.899  0.0495 -0.3052 -0.5364
15791TIP3    H168864   2.136   3.559   2.951 -0.1020  0.5335 -1.1687
15791TIP3    H268865   2.287   3.549   2.957 -0.2485 -1.1999  0.1108
15792TIP3   OH268866   4.285   4.871   1.400  0.3411 -0.0022 -0.6647
15792TIP3    H168867   4.249   4.950   1.359 -0.1969 -1.1072 -2.4132
15792TIP3    H268868   4.328   4.824   1.328  0.1207 -1.5943  0.2042
15793TIP3   OH268869   6.684   1.128  16.520 -0.4466  0.0658 -0.2192
15793TIP3    H168870   6.646   1.133  16.607 -0.0910  2.7690 -0.1818
15793TIP3    H268871   6.642   1.052  16.480  0.6424 -2.2379  2.8771
15794TIP3   OH268872   3.908   2.729   2.987 -0.4262  0.4388 -0.2377
15794TIP3    H168873   3.841   2.732   2.919  0.8109 -1.1303 -1.5777
15794TIP3    H268874   3.991   2.728   2.939  0.5138  0.6067  1.3374
15795TIP3   OH268875   1.861   5.895   1.301  0.2912 -0.3849  0.1005
15795TIP3    H168876   1.805   5.835   1.350  1.7118 -2.1094 -0.3571
15795TIP3    H268877   1.822   5.981   1.316 -0.4521 -1.1244  2.6080
15796TIP3   OH268878   0.306   0.011   0.927  0.3997  0.2218 -0.5177
15796TIP3    H168879   0.217   0.004   0.892  0.1750  0.7931 -0.0726
15796TIP3    H268880   0.300  -0.026   1.015  0.6241  0.1778 -0.5203
15797TIP3   OH268881   0.673   5.421   5.284 -0.2473  0.0243  0.5625
15797TIP3    H168882   0.720   5.490   5.331  0.0818 -0.2085  0.5759
15797TIP3    H268883   0.687   5.441   5.191 -2.1788  1.3728  0.5266
15798TIP3   OH268884   2.733   2.204   5.639 -0.0781  0.2481 -0.4263
15798TIP3    H168885   2.648   2.180   5.601 -0.9334  3.0159 -0.3400
15798TIP3    H268886   2.796   2.189   5.569 -0.4304 -2.8844 -0.1542
15799TIP3   OH268887   2.754   1.474   4.770 -0.6607  0.0545 -0.3435
15799TIP3    H168888   2.795   1.397   4.733  0.6255  1.2144 -1.3980
15799TIP3    H268889   2.662   1.450   4.782  0.0587 -2.1638  0.8997
15800TIP3   OH268890   4.148   1.692   1.810  0.0257 -0.8374 -0.2584
15800TIP3    H168891   4.067   1.676   1.762 -0.4318  1.4824 -0.3023
15800TIP3    H268892   4.120   1.707   1.901  0.2072  1.8924 -0.6401
15801TIP3   OH268893   2.627   2.391   3.191  0.3540 -0.5581  0.8985
15801TIP3    H168894   2.644   2.484   3.206 -0.1209 -0.2735 -0.2551
15801TIP3    H268895   2.713   2.350   3.197  0.9706  0.3422 -1.1988
15802TIP3   OH268896   3.650   2.316  13.792  0.3360  0.0547  0.8539
15802TIP3    H168897   3.614   2.247  13.735 -1.2466  0.2740  1.5488
15802TIP3    H268898   3.629   2.286  13.881  2.3088 -0.0275  1.3046
15803TIP3   OH268899   3.137   3.356  14.761  0.4764 -0.5453  0.0416
15803TIP3    H168900   3.177   3.437  14.730  1.0177 -0.1768  1.6339
15803TIP3    H268901   3.209   3.294  14.767  0.1917 -0.9240 -0.4780
15804TIP3   OH268902   4.783   4.903  11.564 -0.5455  0.6319  0.3929
15804TIP3    H168903   4.696   4.894  11.524  0.1850 -1.6787 -0.7040
15804TIP3    H268904   4.836   4.835  11.523  1.1953  0.5492  2.6998
15805TIP3   OH268905   5.526   6.181  11.369  0.7969  0.3632  0.1187
15805TIP3    H168906   5.537   6.090  11.343 -2.0359  0.1934 -0.6690
15805TIP3    H268907   5.612   6.221  11.354  1.2544 -1.4607 -2.5447
15806TIP3   OH268908   3.090   3.513  10.923  0.3732 -0.4760 -0.7066
15806TIP3    H168909   3.024   3.527  10.855  0.4867 -0.1338 -0.7463
15806TIP3    H268910   3.060   3.435  10.970 -0.0538 -0.3246 -0.7296
15807TIP3   OH268911   2.250   0.403   3.396 -0.1230 -0.0770  0.3569
15807TIP3    H168912   2.280   0.398   3.306 -0.9221  0.2542  0.0683
15807TIP3    H268913   2.252   0.497   3.417  0.8938 -0.2299  0.9671
15808TIP3   OH268914   3.011   3.187  12.901 -0.0217  0.7754 -0.5443
15808TIP3    H168915   2.943   3.247  12.869 -2.1144 -1.9275 -1.3879
15808TIP3    H268916   3.014   3.203  12.996 -1.4485  1.3118 -0.5749
15809TIP3   OH268917   5.333   2.954  14.475  0.5879 -0.0913 -0.4742
15809TIP3    H168918   5.378   2.886  14.526  1.0800  1.5238  1.3159
15809TIP3    H268919   5.404   3.008  14.440  0.2489 -1.1050 -2.8245
15810TIP3   OH268920   2.352   4.503  14.525 -0.2955 -0.0202  0.4745
15810TIP3    H168921   2.351   4.588  14.482  3.0087 -0.0550  0.2165
15810TIP3    H268922   2.398   4.446  14.463  3.1956 -0.4369  3.3637
15811TIP3   OH268923   5.405   1.640   0.352  0.2833  0.1613 -0.0939
15811TIP3    H168924   5.390   1.618   0.260 -0.8565  1.5347 -0.2514
15811TIP3    H268925   5.478   1.702   0.351 -0.3488  0.9061 -0.1555
15812TIP3   OH268926   6.146   1.069   5.038  0.5140 -0.3225 -0.2837
15812TIP3    H168927   6.181   1.070   5.127 -1.1093  0.9304  0.3621
15812TIP3    H268928   6.156   0.978   5.010 -0.2266 -1.0574  1.7059
15813TIP3   OH268929   5.375   0.212  13.192 -0.0886  0.1936 -0.3226
15813TIP3    H168930   5.352   0.253  13.108  0.8262 -2.3451 -1.8946
15813TIP3    H268931   5.469   0.229  13.201  0.5960 -2.5456 -1.6577
15814TIP3   OH268932   0.412   6.607  15.967 -0.0435  0.0692  0.2329
15814TIP3    H168933   0.484   6.545  15.957  0.6915  1.0059 -0.3264
15814TIP3    H268934   0.380   6.591  16.056 -0.1516 -1.4059 -0.0529
15815TIP3   OH268935   0.114   4.744   5.585  0.3309 -0.0198  0.0490
15815TIP3    H168936   0.160   4.735   5.668  0.6826 -0.2024 -0.1652
15815TIP3    H268937   0.179   4.724   5.519  0.5882  2.1094 -0.3693
15816TIP3   OH268938   4.732   1.245   3.189 -0.6982  0.5090  0.6800
15816TIP3    H168939   4.746   1.157   3.224 -0.1715 -0.0945 -0.9958
15816TIP3    H268940   4.642   1.266   3.213 -1.5663 -1.3756 -0.7539
15817TIP3   OH268941   2.323   3.736   2.458 -0.0965 -0.1690 -0.5803
15817TIP3    H168942   2.328   3.697   2.371  2.1615  1.0284 -1.0222
15817TIP3    H268943   2.326   3.662   2.518 -1.0885 -0.9624 -1.4937
15818TIP3   OH268944   5.076   6.570  12.531 -0.0426  0.1812 -0.7168
15818TIP3    H168945   5.081   6.487  12.483 -0.3652  0.9724 -2.1310
15818TIP3    H268946   4.988   6.603  12.514  0.0106  0.7223  0.0207
15819TIP3   OH268947   2.506   5.937  12.752 -0.2557  1.1796  0.1661
15819TIP3    H168948   2.478   5.866  12.810 -3.2696  1.4879 -0.8530
15819TIP3    H268949   2.549   5.893  12.679  0.0156  0.5642  0.6873
15820TIP3   OH268950   5.570   3.276  14.107  0.5945  0.5950 -0.1132
15820TIP3    H168951   5.626   3.339  14.151 -1.1558  1.3623  1.0622
15820TIP3    H268952   5.528   3.326  14.037  0.0263  0.4756  0.1385
15821TIP3   OH268953   4.532   6.541   4.877 -0.3893 -0.4202 -0.6820
15821TIP3    H168954   4.605   6.505   4.927 -0.3720  0.2711 -0.1991
15821TIP3    H268955   4.560   6.535   4.786  1.1103  1.6424 -0.3925
15822TIP3   OH268956   4.380   6.002  13.147 -0.3649  0.0213 -0.1092
15822TIP3    H168957   4.429   6.036  13.072  1.3032  1.8550  1.7130
15822TIP3    H268958   4.292   5.986  13.114  0.8803 -1.2885 -2.9694
15823TIP3   OH268959   4.846   2.262   0.586  0.0143 -0.0970  0.4880
15823TIP3    H168960   4.874   2.354   0.584  0.5193 -0.2472  0.5128
15823TIP3    H268961   4.884   2.227   0.667  3.6103 -1.4920 -1.6592
15824TIP3   OH268962   6.609   0.334  16.208  0.7936  0.1555 -0.4237
15824TIP3    H168963   6.566   0.248  16.200 -2.1650  1.6459 -1.4540
15824TIP3    H268964   6.601   0.356  16.301  1.2154 -0.5114 -0.2244
15825TIP3   OH268965   2.043   0.754  15.193  0.5089  0.2662 -0.4788
15825TIP3    H168966   1.999   0.818  15.249  2.1136  0.1208  0.9896
15825TIP3    H268967   1.990   0.750  15.114 -2.0330  0.2031  1.1877
15826TIP3   OH268968   4.169   1.862   1.320  0.0692  0.5342 -0.6192
15826TIP3    H168969   4.170   1.816   1.236  1.7527 -0.5370 -0.0524
15826TIP3    H268970   4.233   1.932   1.309 -0.3835  0.9573 -0.5390
15827TIP3   OH268971   3.469   4.630  16.475  0.3470 -0.0926  0.3262
15827TIP3    H168972   3.462   4.630  16.379 -0.2123  0.0944  0.3660
15827TIP3    H268973   3.384   4.598  16.505  1.1566 -1.9282  0.7219
15828TIP3   OH268974   0.806   2.168   0.757 -0.0713  0.0055  0.1242
15828TIP3    H168975   0.801   2.078   0.787  2.1556  0.2454  1.3234
15828TIP3    H268976   0.848   2.215   0.829 -0.9048  1.9329 -0.6141
15829TIP3   OH268977   1.341   1.793  14.940  0.3753  0.8643  0.4608
15829TIP3    H168978   1.341   1.825  15.030  1.2929 -1.0008  1.1531
15829TIP3    H268979   1.434   1.777  14.921  0.4018  2.9920 -1.4875
15830TIP3   OH268980   2.324   3.710  11.372 -0.3224  0.3777  0.2360
15830TIP3    H168981   2.287   3.752  11.294 -1.7705 -0.2471  0.5649
15830TIP3    H268982   2.345   3.784  11.430 -0.1258  0.7979 -0.3660
15831TIP3   OH268983   6.045   3.418   3.184  0.5012 -0.5449  0.5064
15831TIP3    H168984   6.090   3.497   3.154 -0.2058 -0.7296 -1.0716
15831TIP3    H268985   6.031   3.433   3.278  1.8793  0.4584  0.5701
15832TIP3   OH268986   4.467   1.539  11.596 -0.3522  0.1862 -0.3021
15832TIP3    H168987   4.541   1.535  11.536  1.4732  1.0004  1.8146
15832TIP3    H268988   4.452   1.448  11.622 -0.1916 -0.0038 -0.8855
15833TIP3   OH268989   4.406   4.413   0.358  0.4643 -1.0052  0.1897
15833TIP3    H168990   4.392   4.398   0.451  1.3832  1.0981  0.6773
15833TIP3    H268991   4.389   4.506   0.345 -0.8364 -1.5058 -1.9746
15834TIP3   OH268992   4.187   6.696   2.269  0.3557 -0.6206  0.4181
15834TIP3    H168993   4.225   6.609   2.257  2.4763  0.4566 -1.1174
15834TIP3    H268994   4.209   6.720   2.359  1.4652 -0.8903  0.2230
15835TIP3   OH268995   3.161   0.771  17.061 -0.4688 -0.0549 -0.2378
15835TIP3    H168996   3.248   0.734  17.045 -0.9433 -1.3564  0.1135
15835TIP3    H268997   3.176   0.845  17.120  0.2698 -1.1061  0.9088
15836TIP3   OH268998   0.624   6.174   0.774  0.2471 -0.0559  0.2657
15836TIP3    H168999   0.537   6.186   0.812 -0.0350  0.0289 -0.3941
15836TIP3    H269000   0.636   6.251   0.718 -0.0021 -0.9579 -1.0488
15837TIP3   OH269001   1.791   6.581  17.212 -0.6170 -0.0073 -0.0520
15837TIP3    H169002   1.833   6.520  17.272 -0.5368  0.5535  0.4673
15837TIP3    H269003   1.721   6.530  17.171 -0.3611 -0.5261  0.1563
15838TIP3   OH269004   5.622   1.214   1.828  0.3243  0.6419  0.2285
15838TIP3    H169005   5.537   1.247   1.855  0.4626  1.1894 -0.0026
15838TIP3    H269006   5.681   1.235   1.901  0.0486 -0.6895  0.8551
15839TIP3   OH269007   4.259   6.439  15.904 -0.5244 -0.3797  0.1151
15839TIP3    H169008   4.171   6.400  15.898 -0.8623  0.3138  0.4812
15839TIP3    H269009   4.253   6.519  15.852 -0.1981 -0.1639  0.4119
15840TIP3   OH269010   5.926   3.124   1.978 -0.6140 -0.0430 -0.0069
15840TIP3    H169011   5.945   3.218   1.976 -1.1798  0.0944  0.9307
15840TIP3    H269012   5.878   3.110   2.059 -0.6060 -1.1381 -0.1730
15841TIP3   OH269013   6.599   6.328  17.221  0.2818 -0.0471  0.1812
15841TIP3    H169014   6.594   6.234  17.203  0.8717 -0.0969  0.2725
15841TIP3    H269015   6.671   6.337  17.282  0.7181  0.5536 -0.4099
15842TIP3   OH269016   5.173   0.245   1.914 -0.3685  0.0879  0.6945
15842TIP3    H169017   5.105   0.312   1.917 -0.9636 -0.3536 -1.6460
15842TIP3    H269018   5.242   0.284   1.858 -0.6025 -1.1098 -0.4568
15843TIP3   OH269019   3.014   2.355   1.945 -0.2568 -0.6183 -0.4149
15843TIP3    H169020   2.939   2.316   1.990  0.2473 -1.8015 -0.5836
15843TIP3    H269021   2.978   2.430   1.898 -1.4959 -1.6413 -1.1294
15844TIP3   OH269022   6.410   3.420  13.868  0.0567 -0.0679  0.0573
15844TIP3    H169023   6.369   3.456  13.789 -2.2962 -1.6171  0.5137
15844TIP3    H269024   6.453   3.495  13.909 -0.2025  1.1149 -1.7550
15845TIP3   OH269025   3.519   5.487   0.713 -0.5778 -0.6367  0.1170
15845TIP3    H169026   3.540   5.457   0.624 -1.8472 -0.8069 -0.1379
15845TIP3    H269027   3.514   5.583   0.705 -0.7506 -0.6557 -0.0132
15846TIP3   OH269028   4.141   2.142  17.170  0.3629  0.0445 -0.0226
15846TIP3    H169029   4.214   2.156  17.230  0.4951  1.7977 -0.5833
15846TIP3    H269030   4.063   2.166  17.221  0.5248  2.1495 -0.7241
15847TIP3   OH269031   5.481   5.076  12.822 -0.0598  0.4716 -0.2312
15847TIP3    H169032   5.456   5.049  12.733  0.7766  0.5594 -0.4997
15847TIP3    H269033   5.573   5.051  12.829 -0.3288 -0.2230  0.8924
15848TIP3   OH269034   1.315   3.288   0.694 -0.5755 -0.0703 -0.1568
15848TIP3    H169035   1.292   3.301   0.602  0.4946 -1.9256 -0.7162
15848TIP3    H269036   1.258   3.216   0.722 -0.3402 -0.0309  0.4246
15849TIP3   OH269037   5.152   1.726  11.847  0.1421 -0.1182  0.5679
15849TIP3    H169038   5.184   1.696  11.762 -4.9456 -0.4076 -1.3948
15849TIP3    H269039   5.111   1.810  11.830  1.2653  1.0594  3.2934
15850TIP3   OH269040   1.885   1.086   6.384  0.2592  0.0303  1.2883
15850TIP3    H169041   1.850   1.051   6.302  2.4524 -0.0554  0.3484
15850TIP3    H269042   1.935   1.014   6.422  0.7948  0.6414  1.7644
15851TIP3   OH269043   1.400   0.620  15.871 -0.1235 -0.1183 -0.2670
15851TIP3    H169044   1.331   0.613  15.937  0.9399  2.1076  1.1532
15851TIP3    H269045   1.445   0.536  15.875 -1.7865 -1.0104 -0.0997
15852TIP3   OH269046   1.258   3.102  14.304  0.2188  0.1649 -0.1670
15852TIP3    H169047   1.205   3.142  14.373 -2.0854  2.5154 -3.1700
15852TIP3    H269048   1.196   3.045  14.257  1.3975 -0.3101 -1.1594
15853TIP3   OH269049   0.210   5.687  14.712  0.1637  0.2956 -0.0662
15853TIP3    H169050   0.268   5.620  14.748 -0.5465  0.5535  1.5881
15853TIP3    H269051   0.137   5.638  14.674 -0.4407  0.1379  1.2949
15854TIP3   OH269052   6.227   0.317  11.871  0.2394 -0.5844 -0.1785
15854TIP3    H169053   6.231   0.384  11.939 -0.6012 -0.3777 -0.3225
15854TIP3    H269054   6.161   0.349  11.809  0.8640 -0.8614 -0.9968
15855TIP3   OH269055   3.223   2.483   4.395  0.3696 -0.5813  0.3078
15855TIP3    H169056   3.130   2.468   4.381 -0.1333  0.1888  2.4850
15855TIP3    H269057   3.248   2.418   4.461  1.1968 -0.3149  0.2603
15856TIP3   OH269058   5.537   3.394  13.385  0.0647 -0.2966  0.4079
15856TIP3    H169059   5.530   3.482  13.347 -0.9022  1.1287  3.6383
15856TIP3    H269060   5.630   3.373  13.381  0.4896  1.4449  0.6893
15857TIP3   OH269061   2.265   5.654  15.888 -0.7305 -0.0867  0.5009
15857TIP3    H169062   2.280   5.690  15.976 -0.9056  0.6138  0.2410
15857TIP3    H269063   2.298   5.720  15.828  0.2134 -0.9494  0.0410
15858TIP3   OH269064   0.466   2.879  13.472  0.6601  0.7774 -0.0301
15858TIP3    H169065   0.522   2.843  13.541 -0.2990 -1.2188 -0.2462
15858TIP3    H269066   0.527   2.922  13.412  2.1804 -2.5080 -0.9623
15859TIP3   OH269067   2.562   0.213   3.512  0.0881 -0.0948  0.1480
15859TIP3    H169068   2.507   0.175   3.443  1.4807 -1.7787 -0.0682
15859TIP3    H269069   2.606   0.287   3.469  0.1455 -0.4849 -0.4711
15860TIP3   OH269070   6.312   3.249   1.108  0.1626  0.0839 -0.5017
15860TIP3    H169071   6.246   3.187   1.076 -0.1377 -0.9959  2.0743
15860TIP3    H269072   6.285   3.334   1.072 -1.1039 -0.8076 -1.6834
15861TIP3   OH269073   5.185   4.723  16.698  0.1355 -0.3802  0.0763
15861TIP3    H169074   5.222   4.637  16.716 -0.8074 -0.6893  0.5938
15861TIP3    H269075   5.168   4.723  16.603  3.2283  0.4995 -0.5472
15862TIP3   OH269076   0.806   5.628  11.853 -0.8808  0.3981 -0.2786
15862TIP3    H169077   0.722   5.664  11.825 -2.0101 -1.6628  0.3581
15862TIP3    H269078   0.825   5.674  11.935 -1.0936  1.2682 -0.7061
15863TIP3   OH269079   1.269   2.139  16.420  0.2055  0.1269 -0.2662
15863TIP3    H169080   1.230   2.174  16.339  0.0854 -0.4081 -0.4370
15863TIP3    H269081   1.196   2.096  16.464  0.0684  1.1977  0.5576
15864TIP3   OH269082   5.080   4.665   1.282 -0.6200  0.2623  0.6212
15864TIP3    H169083   5.169   4.696   1.265  0.0379 -0.7323  2.2113
15864TIP3    H269084   5.024   4.739   1.258  0.3247 -0.3995 -4.1862
15865TIP3   OH269085   0.143   0.973   4.576  0.1107  0.1456 -0.4488
15865TIP3    H169086   0.113   1.039   4.640  0.1818  0.2730 -0.5467
15865TIP3    H269087   0.151   0.893   4.627  0.8712  0.4147 -0.1455
15866TIP3   OH269088   1.749   5.583   4.184  0.3964  0.2130 -0.3175
15866TIP3    H169089   1.783   5.583   4.094  0.8089  3.6651 -0.2254
15866TIP3    H269090   1.827   5.587   4.239  0.0792  1.7472  0.0595
15867TIP3   OH269091   0.824   1.797  15.145 -0.0284 -0.0996  0.1029
15867TIP3    H169092   0.786   1.868  15.092  0.5772  0.1283 -0.0347
15867TIP3    H269093   0.897   1.765  15.092 -0.0411 -0.5452  0.3566
15868TIP3   OH269094   6.699   6.469   4.838 -0.3453 -0.4934 -0.2529
15868TIP3    H169095   6.726   6.558   4.861  2.8890 -1.6974  0.8882
15868TIP3    H269096   6.671   6.475   4.747  1.8150  1.3053 -0.8413
15869TIP3   OH269097   2.542   1.957   3.237  0.6255 -0.1934  0.4449
15869TIP3    H169098   2.573   1.876   3.197 -2.2986 -2.2751  2.2055
15869TIP3    H269099   2.576   1.955   3.326 -1.4584 -0.7323  1.2619
15870TIP3   OH269100   3.366   5.910  11.066 -0.2160  0.4514  0.4684
15870TIP3    H169101   3.433   5.947  11.008  0.5917 -0.1810  0.9888
15870TIP3    H269102   3.290   5.896  11.009  0.4772  0.0833 -0.3781
15871TIP3   OH269103   2.211   5.190   4.426  0.1399 -0.3581 -0.0604
15871TIP3    H169104   2.146   5.258   4.412 -2.3642 -2.5983  0.1436
15871TIP3    H269105   2.201   5.166   4.519  0.8917 -1.0744 -0.1585
15872TIP3   OH269106   4.136   5.286  15.626  0.2638 -0.0615 -0.3296
15872TIP3    H169107   4.198   5.215  15.641  1.3936  0.8024 -0.7895
15872TIP3    H269108   4.073   5.250  15.563 -0.9193 -1.6242  1.6923
15873TIP3   OH269109   6.109   6.089   0.575 -0.2752 -0.0500  0.8933
15873TIP3    H169110   6.126   6.161   0.515 -0.5043  0.0650  0.9647
15873TIP3    H269111   6.193   6.043   0.583  0.0216  0.5579  1.3073
15874TIP3   OH269112   1.123   5.200   5.856  0.3766  0.4203 -0.7942
15874TIP3    H169113   1.129   5.266   5.787 -0.0305  0.5761 -0.6856
15874TIP3    H269114   1.049   5.146   5.830  1.0502 -0.3250 -1.1631
15875TIP3   OH269115   3.088   0.201  12.483 -0.3183 -0.2669 -0.4110
15875TIP3    H169116   3.009   0.251  12.462 -0.9327 -0.6815  0.8173
15875TIP3    H269117   3.061   0.109  12.473 -0.4835 -0.4628  1.5531
15876TIP3   OH269118   4.015   4.240   5.548  0.1549 -0.6505  0.5611
15876TIP3    H169119   3.998   4.299   5.622 -0.3964 -2.0634  1.5749
15876TIP3    H269120   4.006   4.296   5.470  0.1828  0.7186  1.5283
15877TIP3   OH269121   5.677   6.723   0.383  0.4846  0.0809 -0.3316
15877TIP3    H169122   5.584   6.705   0.398  0.3809  0.6017 -0.3559
15877TIP3    H269123   5.679   6.776   0.303  0.8481 -0.4733 -0.6911
15878TIP3   OH269124   4.847   6.384   0.258  1.0044  0.3102  0.0671
15878TIP3    H169125   4.794   6.462   0.273  1.3839  0.8431 -1.3256
15878TIP3    H269126   4.909   6.383   0.331  0.9719  1.2980  0.1143
15879TIP3   OH269127   1.125   3.102   6.176  0.2613  0.0375  0.6864
15879TIP3    H169128   1.099   3.077   6.264  1.3157  0.5452  1.1556
15879TIP3    H269129   1.214   3.068   6.166 -0.7238 -2.1561 -1.0932
15880TIP3   OH269130   2.585   5.736   0.184 -0.2957 -0.9041 -0.0538
15880TIP3    H169131   2.659   5.675   0.177  1.0121  0.3152  2.3205
15880TIP3    H269132   2.582   5.759   0.277 -4.0036 -1.3003 -0.0153
15881TIP3   OH269133   5.892   2.534   1.245  0.2324 -0.4424  0.3342
15881TIP3    H169134   5.936   2.607   1.288  2.2652  0.2609 -2.7215
15881TIP3    H269135   5.811   2.522   1.294  1.2780  1.8704  2.7477
15882TIP3   OH269136   6.352   5.676  12.366  1.0644  0.2132  0.5160
15882TIP3    H169137   6.401   5.717  12.437 -0.2971  2.4494  0.2004
15882TIP3    H269138   6.372   5.730  12.289 -3.0384  2.1529  0.6784
15883TIP3   OH269139   6.562   5.144   0.635  0.5299 -0.0301  0.2218
15883TIP3    H169140   6.475   5.178   0.616  0.4959  1.0169  2.1725
15883TIP3    H269141   6.548   5.052   0.656  0.1123 -0.2772 -1.1179
15884TIP3   OH269142   5.863   3.317  15.794  0.4273  0.4602 -0.1495
15884TIP3    H169143   5.811   3.387  15.757 -1.7340 -1.0712 -0.1063
15884TIP3    H269144   5.829   3.237  15.753  1.8667 -0.6953  0.8357
15885TIP3   OH269145   0.038   5.810  16.919 -0.3467  0.2932 -0.3332
15885TIP3    H169146   0.044   5.743  16.851  0.1630  0.0965 -0.0990
15885TIP3    H269147  -0.055   5.818  16.938 -0.4976  0.4247 -1.1355
15886TIP3   OH269148   0.764   4.534   4.830  0.4775  0.3590 -0.4004
15886TIP3    H169149   0.669   4.539   4.819  0.3720 -2.2299 -1.1146
15886TIP3    H269150   0.800   4.555   4.744  0.6455  2.8677  0.2533
15887TIP3   OH269151   1.889   4.376  11.473  0.2968 -0.0721 -0.4468
15887TIP3    H169152   1.805   4.330  11.471 -0.2971  0.9292  0.8863
15887TIP3    H269153   1.868   4.465  11.445  0.8559  0.2708  0.1977
15888TIP3   OH269154   1.062   2.537   0.975  0.0002 -0.2239 -0.4490
15888TIP3    H169155   1.085   2.478   1.046 -0.0478  2.0621  1.5253
15888TIP3    H269156   1.145   2.581   0.953 -0.0085 -0.8189 -1.7524
15889TIP3   OH269157   4.228   3.230   1.854  0.5813 -0.7974 -0.6517
15889TIP3    H169158   4.200   3.321   1.841 -1.1713 -0.8341  2.4204
15889TIP3    H269159   4.311   3.237   1.901 -0.6515 -0.7609  1.5711
15890TIP3   OH269160   2.985   5.993  17.165 -0.1595 -0.0136  0.0572
15890TIP3    H169161   2.934   6.065  17.130  0.4304  1.0656  1.3906
15890TIP3    H269162   3.075   6.026  17.168  0.0626 -0.6763  1.0080
15891TIP3   OH269163   6.748   6.133   0.077 -0.2434  0.2118 -0.0881
15891TIP3    H169164   6.809   6.068   0.042  1.3692  2.0035 -0.7025
15891TIP3    H269165   6.737   6.109   0.169 -0.9413 -1.8728 -0.6942
15892TIP3   OH269166   0.452   5.299  15.785  0.0688 -0.3410  0.6309
15892TIP3    H169167   0.538   5.268  15.814 -0.0568 -0.0127  1.3540
15892TIP3    H269168   0.449   5.391  15.811  0.7995  0.5815 -2.2981
15893TIP3   OH269169   4.110   2.542  16.072 -0.4031 -0.5464 -0.7748
15893TIP3    H169170   4.099   2.633  16.045 -1.2166 -0.5347 -0.3989
15893TIP3    H269171   4.024   2.515  16.101 -0.2794 -1.6020 -1.3697
15894TIP3   OH269172   0.026   6.523  14.046  0.2241  0.3755 -0.4028
15894TIP3    H169173  -0.026   6.452  14.084  0.2731  0.2657 -0.5409
15894TIP3    H269174   0.080   6.555  14.118  0.4900  0.0086 -0.4417
15895TIP3   OH269175   3.812   1.438   5.694  0.2270  0.5153  0.4936
15895TIP3    H169176   3.748   1.447   5.624 -1.5968  0.0100  2.0586
15895TIP3    H269177   3.874   1.373   5.661 -1.0634 -0.3340 -0.3317
15896TIP3   OH269178   3.260   0.401  12.456  0.1258 -0.2219  0.2357
15896TIP3    H169179   3.242   0.308  12.471  1.2175 -0.3184  1.0009
15896TIP3    H269180   3.188   0.446  12.499  0.2172 -0.6823  0.8827
15897TIP3   OH269181   6.261   4.882   2.601 -0.0031  0.4756 -0.1331
15897TIP3    H169182   6.332   4.818   2.596  0.7008  1.2808 -0.5726
15897TIP3    H269183   6.244   4.906   2.510 -0.5515  0.5936  0.0005
15898TIP3   OH269184   0.967   1.230  15.007  0.1325 -0.3782 -0.5093
15898TIP3    H169185   1.014   1.172  15.067 -0.5807  0.8364  1.2679
15898TIP3    H269186   0.982   1.192  14.920  3.5121 -0.5873  0.1053
15899TIP3   OH269187   4.552   0.158   1.718  0.1355 -0.1945  0.3024
15899TIP3    H169188   4.485   0.227   1.712  0.0580  0.0414  3.0091
15899TIP3    H269189   4.595   0.175   1.802  1.5767 -2.1598 -0.0128
15900TIP3   OH269190   5.578   3.957   6.375 -0.5186 -0.3189  0.6407
15900TIP3    H169191   5.518   4.006   6.431 -0.0764  0.5265  0.3930
15900TIP3    H269192   5.658   4.010   6.375 -0.3110 -0.6335 -0.2917
15901TIP3   OH269193   6.631   2.253  11.966  0.0680  0.8558  0.5812
15901TIP3    H169194   6.590   2.333  11.998  0.5537  1.1469  0.4744
15901TIP3    H269195   6.713   2.247  12.015 -0.0599  0.3164  0.7369
15902TIP3   OH269196   1.880   0.932  14.590 -0.9324 -0.2083  0.0067
15902TIP3    H169197   1.972   0.931  14.618 -0.3444 -0.9201 -1.8879
15902TIP3    H269198   1.836   0.870  14.648 -0.2882  0.3284  1.0956
15903TIP3   OH269199   4.238   0.911  11.892  0.0685 -0.5589  0.3469
15903TIP3    H169200   4.247   0.818  11.914  3.3029 -0.7180 -1.3486
15903TIP3    H269201   4.206   0.911  11.802 -0.2701 -0.0158  0.4653
15904TIP3   OH269202   5.640   6.233  13.992  0.1299  0.2336 -0.1385
15904TIP3    H169203   5.701   6.306  13.979  1.5163 -0.7450  0.7620
15904TIP3    H269204   5.664   6.197  14.077 -0.5105 -1.3062 -0.6022
15905TIP3   OH269205   3.028   1.806  13.729 -0.1153  1.0509 -0.3426
15905TIP3    H169206   3.049   1.873  13.794 -1.1933 -0.0860  1.2251
15905TIP3    H269207   3.061   1.724  13.768 -1.3977  0.2536 -0.9039
15906TIP3   OH269208   0.433   6.314   2.065  0.0648 -0.1881 -0.1332
15906TIP3    H169209   0.405   6.293   2.154  0.1370 -0.2489 -0.1238
15906TIP3    H269210   0.529   6.316   2.070  0.0316  1.1867  0.0979
15907TIP3   OH269211   5.795   2.755  17.243 -0.0291 -0.3061 -0.1929
15907TIP3    H169212   5.842   2.708  17.311  0.0125  0.2567  0.1680
15907TIP3    H269213   5.727   2.694  17.214 -0.3107 -0.3918  0.6395
15908TIP3   OH269214   2.498   2.811   2.366  0.4656 -0.5584  0.1381
15908TIP3    H169215   2.424   2.871   2.361  1.3858  0.7094  1.2095
15908TIP3    H269216   2.559   2.842   2.299  0.9341 -0.2973  0.6804
15909TIP3   OH269217   5.018   1.860   0.629  0.3743  0.1470  0.5947
15909TIP3    H169218   5.108   1.876   0.603  0.9954 -2.0561  1.2494
15909TIP3    H269219   4.995   1.777   0.586 -1.3700  0.7193  0.3698
15910TIP3   OH269220   2.845   6.198  13.328  0.3116  0.0857 -0.1046
15910TIP3    H169221   2.779   6.158  13.271 -1.5272 -1.4553  2.9808
15910TIP3    H269222   2.811   6.285  13.347 -0.1887 -0.2288  0.4433
15911TIP3   OH269223   3.705   1.344  15.543  0.9133 -0.5610 -0.0211
15911TIP3    H169224   3.635   1.306  15.490  0.1886  0.4356  0.1964
15911TIP3    H269225   3.672   1.430  15.567  1.9936 -0.3009  0.5524
15912TIP3   OH269226   3.398   6.678   0.639  0.3988  0.5155  0.4214
15912TIP3    H169227   3.381   6.682   0.733  0.5924  0.0721  0.4735
15912TIP3    H269228   3.373   6.590   0.613  1.8979  0.0825  0.3642
15913TIP3   OH269229   0.402   4.424   2.142 -0.0742  0.4245  0.3205
15913TIP3    H169230   0.457   4.364   2.092 -0.8462 -0.2666  0.2782
15913TIP3    H269231   0.391   4.500   2.084  0.5330  0.4152  0.1908
15914TIP3   OH269232   6.216   6.387  14.145  0.0328 -0.2817  0.4051
15914TIP3    H169233   6.185   6.462  14.094  0.0576 -1.2875 -1.1351
15914TIP3    H269234   6.311   6.401  14.153 -0.2914  1.0373  2.1539
15915TIP3   OH269235   4.479   2.223   0.643 -0.1387 -0.1014 -0.1637
15915TIP3    H169236   4.506   2.133   0.624 -0.2568 -0.1471 -0.1157
15915TIP3    H269237   4.384   2.222   0.635 -0.1561 -0.0249  0.0170
15916TIP3   OH269238   5.487   5.356   5.784 -1.0218  0.6757 -0.4246
15916TIP3    H169239   5.570   5.402   5.782 -0.3313 -0.5722 -0.8201
15916TIP3    H269240   5.509   5.264   5.771 -2.4633  0.3335 -0.6360
15917TIP3   OH269241   3.822   3.524  15.786  0.2062  0.2742  0.2658
15917TIP3    H169242   3.859   3.589  15.845  1.1173 -1.7917  2.0711
15917TIP3    H269243   3.898   3.473  15.757 -0.4143  0.3653 -1.5663
15918TIP3   OH269244   2.617   2.667   5.720  0.3700 -0.3497  0.0774
15918TIP3    H169245   2.687   2.628   5.773 -0.0477  0.2863  1.1143
15918TIP3    H269246   2.654   2.749   5.688  0.6385 -0.7548 -0.6776
15919TIP3   OH269247   0.313   2.519   2.602  0.3999 -0.3024 -0.0458
15919TIP3    H169248   0.341   2.430   2.579  0.7148 -0.6593  1.6887
15919TIP3    H269249   0.244   2.508   2.667  2.0906  0.7274  2.0079
15920TIP3   OH269250   0.033   4.929  16.647  0.4468  0.0723  0.0382
15920TIP3    H169251   0.062   4.838  16.637 -1.8309 -0.6623 -0.1190
15920TIP3    H269252  -0.029   4.926  16.720 -2.5160  0.7690 -2.3433
15921TIP3   OH269253   2.313   2.803   0.018  0.0735  0.3940  0.4015
15921TIP3    H169254   2.296   2.779  -0.073  0.2496  0.7169  0.2805
15921TIP3    H269255   2.409   2.805   0.024  0.1356  3.9635 -0.3894
15922TIP3   OH269256   1.201   6.535   2.156  0.0436 -0.6359 -0.2542
15922TIP3    H169257   1.114   6.500   2.178  1.6012 -4.0501  0.8038
15922TIP3    H269258   1.237   6.565   2.239  0.5749 -0.8842 -0.3915
15923TIP3   OH269259   4.947   3.639   5.582  0.1825  0.5265  0.2740
15923TIP3    H169260   4.873   3.625   5.522 -0.2665 -0.8056  1.1045
15923TIP3    H269261   5.019   3.667   5.526 -0.4450  0.0072 -0.8038
15924TIP3   OH269262   0.186   4.322   5.814  0.3934  0.2210 -0.2222
15924TIP3    H169263   0.127   4.397   5.823  0.7805  0.4815  0.1756
15924TIP3    H269264   0.252   4.352   5.752  1.1768  0.6217  0.7732
15925TIP3   OH269265   1.666   0.874  16.386  0.1987  0.0902 -0.1784
15925TIP3    H169266   1.676   0.804  16.451 -0.9375 -0.8500 -0.9870
15925TIP3    H269267   1.578   0.861  16.351 -0.3178  2.4095  0.1900
15926TIP3   OH269268   2.734   4.173  11.189 -0.7507  0.1526 -0.4995
15926TIP3    H169269   2.749   4.267  11.180 -0.4363  0.1385 -0.1421
15926TIP3    H269270   2.738   4.138  11.100  0.7231  0.2424 -0.4784
15927TIP3   OH269271   6.222   3.214   3.140 -0.6741  0.4131  0.2332
15927TIP3    H169272   6.237   3.226   3.046 -1.6126 -0.0209  0.0280
15927TIP3    H269273   6.134   3.248   3.155 -0.4933  0.5608  0.9744
15928TIP3   OH269274   3.759   3.669  14.077  0.1033 -0.1151  0.1910
15928TIP3    H169275   3.715   3.745  14.115  1.6512  0.6765  0.4521
15928TIP3    H269276   3.815   3.636  14.147  0.6584 -0.5220 -0.4337
15929TIP3   OH269277   1.901   2.201  15.457  0.1274 -0.2154 -0.3265
15929TIP3    H169278   1.983   2.197  15.408 -0.6894 -1.3243 -1.6257
15929TIP3    H269279   1.902   2.123  15.512 -0.0490 -0.2267 -0.3402
15930TIP3   OH269280   1.085   2.782   1.573 -0.7948  0.1224 -0.5430
15930TIP3    H169281   1.170   2.823   1.556  0.1860 -1.2091  0.9622
15930TIP3    H269282   1.027   2.854   1.596  0.6546  0.7807  1.1002
15931TIP3   OH269283   0.537   3.697   2.891  0.0319 -0.8444 -0.1581
15931TIP3    H169284   0.510   3.702   2.983 -0.0241  0.3879 -0.2267
15931TIP3    H269285   0.494   3.773   2.850  0.8283 -0.8391 -0.9918
15932TIP3   OH269286   5.660   1.998  11.400 -0.3278  0.0234 -0.3894
15932TIP3    H169287   5.611   1.919  11.424 -0.7677  0.6420  0.7542
15932TIP3    H269288   5.656   1.999  11.304 -0.6948 -1.1016 -0.3974
15933TIP3   OH269289   0.898   5.856  13.232 -0.0749 -0.2265  0.0095
15933TIP3    H169290   0.853   5.791  13.286 -0.7013 -0.3669 -0.6757
15933TIP3    H269291   0.870   5.940  13.268 -1.2625 -0.3055 -0.7016
15934TIP3   OH269292   4.047   3.382  15.721  0.2141  0.1593  0.4180
15934TIP3    H169293   4.076   3.300  15.761 -1.5155 -1.0185 -0.6831
15934TIP3    H269294   4.089   3.384  15.636  0.6147  0.6492  0.6234
15935TIP3   OH269295   6.281   2.233  10.880 -0.2156  0.2641 -0.3608
15935TIP3    H169296   6.200   2.204  10.923  0.1829  0.3577  0.4610
15935TIP3    H269297   6.346   2.236  10.950  0.3869  0.6601 -0.9289
15936TIP3   OH269298   5.672   3.260   0.400  0.2858 -0.0390 -0.5582
15936TIP3    H169299   5.598   3.284   0.456  0.3503  2.0566 -1.3021
15936TIP3    H269300   5.749   3.291   0.448  0.6165 -1.3800 -0.2112
15937TIP3   OH269301   5.721   6.789  13.461  0.3626 -0.0994  0.0570
15937TIP3    H169302   5.739   6.836  13.542  2.0185 -0.1801 -0.2463
15937TIP3    H269303   5.751   6.700  13.478  1.5781  0.1074 -0.9433
15938TIP3   OH269304   5.435   1.495  17.018  0.0108 -0.0152 -0.1300
15938TIP3    H169305   5.440   1.401  17.039  0.4090  0.1603  0.5873
15938TIP3    H269306   5.526   1.522  17.010 -0.1298  0.0135 -1.7437
15939TIP3   OH269307   1.050   0.596   4.176 -0.3933 -0.0543 -0.3146
15939TIP3    H169308   1.120   0.578   4.238 -1.5666 -0.6910  0.8549
15939TIP3    H269309   0.996   0.662   4.219  0.5827  1.9561 -2.0707
15940TIP3   OH269310   5.876   5.324   2.943  0.4281  0.3063 -0.4562
15940TIP3    H169311   5.934   5.399   2.958  0.7982  0.2854 -1.6927
15940TIP3    H269312   5.800   5.341   2.997  0.5383  1.5544 -0.6844
15941TIP3   OH269313   3.494   6.705  15.757  0.3641 -0.3492  0.0018
15941TIP3    H169314   3.539   6.772  15.809  0.1022  2.5691 -3.3409
15941TIP3    H269315   3.561   6.675  15.694 -0.1791 -1.6112  0.0135
15942TIP3   OH269316   0.589   1.544  11.681 -0.2561  0.5052  1.1115
15942TIP3    H169317   0.564   1.503  11.598 -0.9608  2.6624  0.2099
15942TIP3    H269318   0.559   1.483  11.748  1.0586 -1.6649 -0.2157
15943TIP3   OH269319   0.497   4.734   1.781  0.2460 -0.2397  0.3264
15943TIP3    H169320   0.577   4.733   1.834 -0.5707  0.2222  1.5783
15943TIP3    H269321   0.463   4.645   1.788  0.2800 -0.2501  0.3578
15944TIP3   OH269322   1.115   6.545   0.022 -0.0881  0.2745 -0.1893
15944TIP3    H169323   1.112   6.536   0.117 -3.1086  2.0405 -0.0896
15944TIP3    H269324   1.151   6.632   0.007  0.2467  0.0548 -0.7038
15945TIP3   OH269325   4.112   2.061  15.273  0.0358  0.6399 -0.6719
15945TIP3    H169326   4.207   2.049  15.274 -0.3194 -2.4819 -0.5698
15945TIP3    H269327   4.088   2.077  15.365  0.1066 -2.0110 -0.1534
15946TIP3   OH269328   2.345   4.665  10.920 -0.0728  0.1020 -0.0114
15946TIP3    H169329   2.370   4.684  11.010 -0.2919 -2.7817  0.7081
15946TIP3    H269330   2.428   4.644  10.877  0.0985  1.9920 -0.6477
15947TIP3   OH269331   3.652   0.531  13.029 -0.2962 -0.1202 -0.8014
15947TIP3    H169332   3.686   0.442  13.026  1.4656  0.5008 -0.0104
15947TIP3    H269333   3.730   0.586  13.041 -1.4671  1.4417 -0.2167
15948TIP3   OH269334   4.113   2.486  16.959  0.4232 -0.0533 -0.2123
15948TIP3    H169335   4.171   2.508  17.032 -0.2975  2.4902 -0.3643
15948TIP3    H269336   4.025   2.504  16.992 -0.3247 -3.6859 -0.0518
15949TIP3   OH269337   5.151   5.073  15.283 -0.7339  0.8485  0.2229
15949TIP3    H169338   5.159   5.160  15.321  1.5167  0.0398  1.6641
15949TIP3    H269339   5.070   5.038  15.321  0.3132  0.9032  2.5337
15950TIP3   OH269340   2.754   5.816   2.178  0.5455 -0.7064 -0.0150
15950TIP3    H169341   2.758   5.743   2.240 -0.5184 -0.6805  0.0802
15950TIP3    H269342   2.702   5.883   2.223 -0.5993 -0.8538 -1.1080
15951TIP3   OH269343   3.391   2.004   1.190 -0.1975  0.4640  0.1007
15951TIP3    H169344   3.303   1.973   1.213 -0.1758  0.8687  0.7443
15951TIP3    H269345   3.435   1.926   1.156 -0.2015 -0.1801  1.5284
15952TIP3   OH269346   2.285   6.060  12.004  0.4685 -0.0819 -0.1008
15952TIP3    H169347   2.298   5.994  11.936  0.0246 -0.3557  0.0809
15952TIP3    H269348   2.373   6.080  12.035  0.6491 -0.1599 -0.5604
15953TIP3   OH269349   4.222   1.388   5.212 -0.2327 -0.1708  0.2486
15953TIP3    H169350   4.233   1.478   5.243  0.1192 -0.4169  0.8611
15953TIP3    H269351   4.130   1.382   5.187 -0.5108  0.0670  1.1878
15954TIP3   OH269352   6.771   5.527  12.825  0.2009 -0.2634 -0.4594
15954TIP3    H169353   6.774   5.623  12.822  0.9090 -0.2718 -0.3299
15954TIP3    H269354   6.679   5.505  12.814 -0.2001  0.4959  1.1856
15955TIP3   OH269355   1.930   4.891  13.416  0.0987  0.6878  0.0009
15955TIP3    H169356   1.963   4.852  13.497 -2.7876  0.7255  1.2616
15955TIP3    H269357   1.901   4.978  13.442  0.4506  1.2317 -1.3960
15956TIP3   OH269358   2.795   1.129  16.150  0.5801  0.0218 -0.4944
15956TIP3    H169359   2.812   1.130  16.244  3.2165 -1.5739 -0.9014
15956TIP3    H269360   2.772   1.220  16.129  0.2352  0.4452  1.6275
15957TIP3   OH269361   2.906   2.520  10.585 -0.2589  0.0324  0.5027
15957TIP3    H169362   2.853   2.491  10.510  0.4855 -0.2541  0.0850
15957TIP3    H269363   2.863   2.601  10.615  0.7018  1.3669 -1.6037
15958TIP3   OH269364   2.189   0.895   2.805 -0.2804 -0.3783  0.0773
15958TIP3    H169365   2.183   0.939   2.890  0.9276  2.4268 -1.2273
15958TIP3    H269366   2.113   0.926   2.756 -0.1015 -0.7361 -0.4369
15959TIP3   OH269367   0.987   6.091   4.020 -0.1111  0.1906 -0.6068
15959TIP3    H169368   1.005   6.126   4.107 -3.0335  0.6639 -0.1417
15959TIP3    H269369   1.034   6.149   3.960  4.2329 -1.7478  0.6910
15960TIP3   OH269370   2.993   1.969   4.453 -0.3602  0.1519 -0.4192
15960TIP3    H169371   2.989   1.873   4.458 -0.5313  0.2448  1.3347
15960TIP3    H269372   2.905   1.995   4.425 -0.4359 -0.1798 -0.4916
15961TIP3   OH269373   0.375   4.699  12.957 -0.4421  0.5291  0.2404
15961TIP3    H169374   0.457   4.747  12.944 -1.1397  2.0845  1.4104
15961TIP3    H269375   0.364   4.648  12.877  1.0296  1.2602 -0.4457
15962TIP3   OH269376   1.509   0.049  12.393  0.0183  0.0221 -0.0967
15962TIP3    H169377   1.438   0.085  12.341  0.1106 -2.5567 -2.1221
15962TIP3    H269378   1.574   0.018  12.329  1.4605 -0.6213  1.6059
15963TIP3   OH269379   1.631   3.795  11.145 -0.3212  0.2755  0.3650
15963TIP3    H169380   1.673   3.879  11.128 -0.4069  0.0016 -1.2536
15963TIP3    H269381   1.563   3.788  11.078 -1.0498 -0.5949  1.1717
15964TIP3   OH269382   4.662   2.247   4.525  0.3823  0.1655 -0.1487
15964TIP3    H169383   4.622   2.321   4.570 -0.4528 -1.0131  1.0886
15964TIP3    H269384   4.595   2.217   4.464  0.3822 -0.1266 -0.0063
15965TIP3   OH269385   6.138   1.629  15.469  0.2652 -0.2200  0.4849
15965TIP3    H169386   6.144   1.626  15.565  0.5649  0.0894  0.4781
15965TIP3    H269387   6.224   1.660  15.441 -0.1398  0.6136  0.1618
15966TIP3   OH269388   2.996   6.166   1.391  0.4661  0.1655  0.5388
15966TIP3    H169389   2.913   6.213   1.401 -0.4866 -1.5838  1.1862
15966TIP3    H269390   3.063   6.231   1.410 -0.7364  1.7028 -0.2957
15967TIP3   OH269391   4.784   6.065   3.596  0.5891  0.0443 -0.7870
15967TIP3    H169392   4.801   5.971   3.585  0.5713 -0.1206  0.5042
15967TIP3    H269393   4.865   6.099   3.634  0.6459  0.5929 -1.3814
15968TIP3   OH269394   2.143   1.399   3.864 -0.1635  0.1237  0.0132
15968TIP3    H169395   2.102   1.390   3.778 -0.5902  1.1506  0.0995
15968TIP3    H269396   2.220   1.454   3.848  0.7807 -1.1823 -0.0194
15969TIP3   OH269397   5.116   3.155   5.344  0.0959  0.1053 -0.2282
15969TIP3    H169398   5.187   3.171   5.283  0.9784 -0.8054  0.5397
15969TIP3    H269399   5.082   3.068   5.320  1.3331 -0.8534  1.4117
15970TIP3   OH269400   2.896   2.882  11.388 -0.2697 -0.2686  0.1922
15970TIP3    H169401   2.970   2.826  11.409 -1.5176 -1.2601  2.1849
15970TIP3    H269402   2.853   2.839  11.314  0.8027 -0.0220 -0.5657
15971TIP3   OH269403   0.573   0.697  16.117 -0.2453  0.3292 -0.5282
15971TIP3    H169404   0.598   0.699  16.024  0.8174 -0.6146 -0.2813
15971TIP3    H269405   0.508   0.627  16.123 -0.5491  0.6019 -0.6073
15972TIP3   OH269406   5.605   1.291  13.838 -0.0726 -0.5428  0.4795
15972TIP3    H169407   5.594   1.200  13.863 -1.6354 -0.3028  0.7390
15972TIP3    H269408   5.521   1.333  13.861  0.6465  0.9664  0.4502
15973TIP3   OH269409   1.969   4.752   1.274  0.1725 -0.2010 -0.5322
15973TIP3    H169410   1.918   4.679   1.311  1.4998 -0.8011  0.1428
15973TIP3    H269411   1.982   4.728   1.183 -1.2804  0.2595 -0.8833
15974TIP3   OH269412   3.789   3.631  16.435  0.3512  0.2899 -0.6666
15974TIP3    H169413   3.745   3.558  16.478  0.2373  0.0207 -1.2299
15974TIP3    H269414   3.788   3.702  16.499  0.0132 -0.0438 -0.3042
15975TIP3   OH269415   1.713   1.057  12.716 -0.0889 -0.3263  0.2080
15975TIP3    H169416   1.786   1.055  12.654  1.6596  0.9833  2.1545
15975TIP3    H269417   1.754   1.049  12.802 -2.4257 -1.6266  1.2525
15976TIP3   OH269418   2.476   1.560  14.548  0.0196  0.2921 -0.2297
15976TIP3    H169419   2.410   1.509  14.502  0.0038 -3.2252  3.3397
15976TIP3    H269420   2.559   1.523  14.519  0.2045  1.3166 -1.0022
15977TIP3   OH269421   3.241   2.093   0.515  0.3048  0.0785 -0.1680
15977TIP3    H169422   3.264   2.180   0.549 -1.5505  0.7268 -0.5110
15977TIP3    H269423   3.150   2.081   0.542 -0.1052 -0.8682 -1.9449
15978TIP3   OH269424   4.757   1.887  12.513 -0.3577 -0.4823  0.4680
15978TIP3    H169425   4.686   1.896  12.450  0.3311  1.6059 -0.0582
15978TIP3    H269426   4.718   1.841  12.588 -2.0829  0.0920 -0.0719
15979TIP3   OH269427   5.274   6.330  15.438  0.1623 -0.6178 -0.0996
15979TIP3    H169428   5.359   6.365  15.466  0.4829 -1.4466 -0.0307
15979TIP3    H269429   5.276   6.337  15.342  0.0536 -0.0586 -0.0644
15980TIP3   OH269430   2.189   0.129   3.395  0.0665 -0.5407  0.1275
15980TIP3    H169431   2.110   0.137   3.342  0.8943  0.6660 -0.9780
15980TIP3    H269432   2.215   0.219   3.414  0.5451 -0.9358  1.4500
15981TIP3   OH269433   6.387   6.629   2.301 -0.0775  0.1327  0.5372
15981TIP3    H169434   6.386   6.724   2.289 -0.0961  0.2317  1.3294
15981TIP3    H269435   6.392   6.617   2.395 -1.7446 -0.6640  0.5346
15982TIP3   OH269436   2.845   0.446   0.526 -0.1436 -0.5343  0.4214
15982TIP3    H169437   2.930   0.420   0.561 -0.0161  0.1190  0.5995
15982TIP3    H269438   2.838   0.399   0.442  0.2298 -0.8676  0.5748
15983TIP3   OH269439   2.335   0.043   6.395 -0.1289 -0.0425  0.0324
15983TIP3    H169440   2.325  -0.004   6.478  0.4022  0.9859  0.6939
15983TIP3    H269441   2.393   0.117   6.416  1.1917 -0.5954 -1.5886
15984TIP3   OH269442   2.091   1.975  15.704  0.1439  0.0882 -0.2430
15984TIP3    H169443   2.159   1.946  15.644  0.2285  0.0062 -0.1070
15984TIP3    H269444   2.009   1.944  15.664  0.1480  0.5757 -0.6346
15985TIP3   OH269445   5.862   5.006  15.268 -0.8614  0.6259  0.1956
15985TIP3    H169446   5.834   4.933  15.323 -1.4386  1.3606  0.8785
15985TIP3    H269447   5.789   5.021  15.208  0.4865 -1.3804 -2.0465
15986TIP3   OH269448   0.263   6.673  14.123  0.5877 -0.3578 -0.1013
15986TIP3    H169449   0.222   6.704  14.203  0.9595  0.7433 -0.3245
15986TIP3    H269450   0.355   6.661  14.146  1.1141  1.9293 -0.8708
15987TIP3   OH269451   2.580   2.604   3.697 -0.6182 -0.2514 -0.5081
15987TIP3    H169452   2.485   2.599   3.703 -0.4909 -0.4610  1.6439
15987TIP3    H269453   2.600   2.697   3.702 -0.5632 -0.3713  2.0063
15988TIP3   OH269454   3.783   6.097   1.193  0.9651 -0.4880 -0.4291
15988TIP3    H169455   3.737   6.169   1.149  0.2628 -0.8540 -0.3050
15988TIP3    H269456   3.869   6.133   1.215  0.4263  0.4826  0.1026
15989TIP3   OH269457   2.712   1.105   5.472 -0.1760  0.1398 -0.1598
15989TIP3    H169458   2.756   1.033   5.517 -0.9509 -0.1776  0.0981
15989TIP3    H269459   2.658   1.146   5.539 -0.8063  0.0982 -0.6411
15990TIP3   OH269460   6.512   5.955   3.546  0.8667  0.4419 -0.5306
15990TIP3    H169461   6.531   5.878   3.599  3.0430  1.2147 -0.1248
15990TIP3    H269462   6.520   5.925   3.455 -1.3475 -0.5144 -0.4347
15991TIP3   OH269463   0.176   0.893   4.211  0.1409 -0.2507 -0.2590
15991TIP3    H169464   0.241   0.848   4.157  0.1348 -0.2842 -0.2384
15991TIP3    H269465   0.211   0.887   4.300 -0.9000 -2.1041  0.0612
15992TIP3   OH269466   2.737   5.334   3.909  0.0540 -0.2442 -0.3579
15992TIP3    H169467   2.800   5.280   3.862 -1.0711 -1.0181 -1.0228
15992TIP3    H269468   2.652   5.304   3.878 -0.6245  1.4202 -0.1799
15993TIP3   OH269469   6.132   3.751  12.072  0.4538  0.3249 -0.6835
15993TIP3    H169470   6.147   3.833  12.026  4.3767 -0.4150 -0.9250
15993TIP3    H269471   6.212   3.737  12.123 -0.2922 -3.1144 -0.3404
15994TIP3   OH269472   2.876   2.766   0.621  0.4704 -0.5373  0.5467
15994TIP3    H169473   2.900   2.838   0.563 -0.1573 -0.3030  0.5657
15994TIP3    H269474   2.826   2.808   0.691 -0.6497 -1.1041  0.1007
15995TIP3   OH269475   4.596   3.236   0.917 -0.4045 -0.6118  0.0141
15995TIP3    H169476   4.639   3.174   0.859  0.6608  0.4973 -0.3911
15995TIP3    H269477   4.637   3.221   1.002  1.7633  1.3461 -0.6485
15996TIP3   OH269478   4.270   5.993   0.940 -0.5879 -0.3482 -0.2613
15996TIP3    H169479   4.183   6.032   0.955  0.0088  1.6261 -1.6588
15996TIP3    H269480   4.301   6.035   0.859  2.6705  0.8165  1.4950
15997TIP3   OH269481   4.458   1.149   2.257 -0.5714  0.0586 -0.0666
15997TIP3    H169482   4.476   1.188   2.171  0.7913  0.5732  0.4455
15997TIP3    H269483   4.377   1.192   2.285  0.7765  2.4147  0.3949
15998TIP3   OH269484   0.427   5.296  15.146 -0.5355  0.3164 -0.5986
15998TIP3    H169485   0.455   5.289  15.054 -1.9296  1.8864 -1.1859
15998TIP3    H269486   0.351   5.239  15.152 -1.8626  1.9677 -1.0737
15999TIP3   OH269487   4.832   5.173  17.134 -0.0823  0.0630 -0.3600
15999TIP3    H169488   4.875   5.217  17.060 -1.0162 -0.0566 -0.9817
15999TIP3    H269489   4.758   5.229  17.155  0.5822  0.4588  0.9537
16000TIP3   OH269490   6.143   0.254   5.260  0.7439  0.1024 -0.5923
16000TIP3    H169491   6.160   0.292   5.346  0.7231 -0.5396 -0.3072
16000TIP3    H269492   6.230   0.242   5.221  0.7776 -0.1266 -0.4431
16001TIP3   OH269493   1.930   2.109   4.050 -0.1633  0.4755 -0.0419
16001TIP3    H169494   1.988   2.184   4.033 -0.1203  0.0925 -1.7393
16001TIP3    H269495   1.946   2.085   4.141  3.2607 -0.4057 -0.8408
16002TIP3   OH269496   2.632   0.947  15.144  0.0316 -0.2554 -0.0074
16002TIP3    H169497   2.540   0.922  15.140 -0.4602  1.7740 -1.9932
16002TIP3    H269498   2.677   0.880  15.093 -0.6707  0.1235 -1.1499
16003TIP3   OH269499   6.358   3.756  14.247  0.1814 -0.8909  0.0780
16003TIP3    H169500   6.308   3.676  14.232 -0.0871 -0.7826  0.3667
16003TIP3    H269501   6.325   3.818  14.182 -1.1292 -0.3558  1.2019
16004TIP3   OH269502   5.840   6.129  11.176 -0.0586  0.6065  0.2922
16004TIP3    H169503   5.911   6.162  11.120 -0.2696  0.6319  0.0392
16004TIP3    H269504   5.860   6.164  11.263  0.4554  0.2932  0.3048
16005TIP3   OH269505   4.530   6.375  13.763  0.1169 -0.2716 -0.0165
16005TIP3    H169506   4.524   6.434  13.688  3.4622 -1.2216 -1.1483
16005TIP3    H269507   4.594   6.417  13.821  1.2299 -1.8840 -0.0349
16006TIP3   OH269508   1.984   2.925   0.378  0.9177  0.3234 -0.2329
16006TIP3    H169509   2.072   2.886   0.383  1.4216  1.3372 -0.9732
16006TIP3    H269510   1.926   2.858   0.414  1.6870 -1.4035 -2.0893
16007TIP3   OH269511   4.737   3.582  11.447  0.6440 -0.7492 -0.5404
16007TIP3    H169512   4.799   3.548  11.512  2.5484 -0.5315 -2.2037
16007TIP3    H269513   4.662   3.523  11.453  0.9894 -1.0072  1.5213
16008TIP3   OH269514   1.581   5.474  13.835 -0.0131 -0.0871 -0.4818
16008TIP3    H169515   1.669   5.512  13.832  0.3283 -0.7870  0.5198
16008TIP3    H269516   1.571   5.431  13.750  0.0873  1.1564 -1.1258
16009TIP3   OH269517   6.094   3.181   3.524 -0.2178 -0.2755  0.2041
16009TIP3    H169518   6.103   3.239   3.599  0.5519 -2.3657  1.7880
16009TIP3    H269519   6.161   3.211   3.462 -0.9584  1.5469  0.2739
16010TIP3   OH269520   0.867   4.755  15.656  0.1951 -0.6507 -0.2908
16010TIP3    H169521   0.899   4.677  15.701  0.7804  0.4949  1.3196
16010TIP3    H269522   0.869   4.731  15.563  2.3312 -1.8276  0.0270
16011TIP3   OH269523   0.384   6.811  11.452 -0.3761  0.4506  0.2152
16011TIP3    H169524   0.456   6.798  11.513 -1.1202 -0.5264  0.9106
16011TIP3    H269525   0.424   6.805  11.365  0.0210 -2.4899  0.5657
16012TIP3   OH269526   0.723   4.755   4.329  0.3437  0.2708 -0.4125
16012TIP3    H169527   0.659   4.728   4.263  0.7652 -0.2752 -0.5996
16012TIP3    H269528   0.746   4.845   4.304 -1.0846  0.8202  0.2383
16013TIP3   OH269529   2.665   4.216   0.711 -0.1058  0.0039  0.0074
16013TIP3    H169530   2.708   4.238   0.629  0.3673 -1.0944 -0.0455
16013TIP3    H269531   2.650   4.301   0.753 -0.2977  0.5672 -1.1748
16014TIP3   OH269532   0.762   1.320  10.680 -0.1671 -0.0151 -0.0614
16014TIP3    H169533   0.670   1.335  10.657  0.7039  0.6252 -3.3697
16014TIP3    H269534   0.776   1.375  10.757 -1.7531  2.3685 -1.3997
16015TIP3   OH269535   0.850   4.688  15.385  0.0380  0.2421  0.8638
16015TIP3    H169536   0.938   4.669  15.353 -0.0777  0.4865  0.4024
16015TIP3    H269537   0.795   4.620  15.347 -0.1539  0.7220  0.2695
16016TIP3   OH269538   0.744   5.094   4.612  0.0461  0.0976 -0.6221
16016TIP3    H169539   0.665   5.145   4.629 -0.9471 -1.7962  0.7044
16016TIP3    H269540   0.714   5.003   4.609  2.4149 -0.8883  1.9551
16017TIP3   OH269541   5.716   4.859   3.980 -0.4661 -0.3899 -0.3584
16017TIP3    H169542   5.796   4.856   4.032 -1.1116 -0.5931  0.6467
16017TIP3    H269543   5.679   4.772   3.988 -0.2076 -0.6438 -1.7711
16018TIP3   OH269544   6.633   6.391  14.948  0.2327  0.2449  0.2246
16018TIP3    H169545   6.693   6.327  14.986 -0.0411 -0.5813 -0.6980
16018TIP3    H269546   6.579   6.340  14.887  0.8185  1.5482 -1.4225
16019TIP3   OH269547   0.659   4.598   0.447 -0.7883 -0.8830 -0.3332
16019TIP3    H169548   0.568   4.625   0.439 -0.2671  1.4419  0.9691
16019TIP3    H269549   0.697   4.613   0.360 -0.9287  1.1263 -0.0778
16020TIP3   OH269550   1.928   2.434  16.017  0.3040 -0.1396  0.2145
16020TIP3    H169551   1.888   2.354  15.983  1.5377 -1.9405  2.8431
16020TIP3    H269552   1.867   2.464  16.085  1.9191 -1.3305  2.2683
16021TIP3   OH269553   1.508   0.573   0.659  0.1415 -0.0564  0.1988
16021TIP3    H169554   1.502   0.651   0.604  0.0487 -1.1240 -1.3063
16021TIP3    H269555   1.593   0.582   0.703  0.7693  0.1972 -1.0341
16022TIP3   OH269556   0.174   4.330  15.417  0.2682 -0.1538 -0.0290
16022TIP3    H169557   0.158   4.399  15.353 -0.6019  1.5117  1.9151
16022TIP3    H269558   0.110   4.346  15.487  1.2665 -1.8250  1.3239
16023TIP3   OH269559   0.731   6.035  17.158 -0.1909  0.4877  0.2278
16023TIP3    H169560   0.658   6.080  17.115  1.6595  1.5944 -1.8106
16023TIP3    H269561   0.703   5.943  17.160 -1.2030  0.7207 -1.5514
16024TIP3   OH269562   0.248   5.042   3.781 -0.3378 -0.0679  0.0762
16024TIP3    H169563   0.327   5.095   3.780 -0.1387 -0.3509  1.1833
16024TIP3    H269564   0.264   4.974   3.846 -0.2686 -1.9942 -1.8905
16025TIP3   OH269565   4.179   0.585   3.527  0.6298 -0.4878  0.0262
16025TIP3    H169566   4.202   0.638   3.451 -0.7853 -1.1869 -0.9094
16025TIP3    H269567   4.252   0.524   3.537  0.8686 -0.3247 -0.7017
16026TIP3   OH269568   4.748   3.198   1.401  0.3432  0.8816  0.3124
16026TIP3    H169569   4.754   3.140   1.478 -0.3446 -0.6592 -0.7650
16026TIP3    H269570   4.833   3.189   1.358  0.2120  0.6076  0.1082
16027TIP3   OH269571   4.426   5.139   1.413 -0.7236  0.9696 -0.2958
16027TIP3    H169572   4.357   5.097   1.360 -0.1018  0.4336 -0.6899
16027TIP3    H269573   4.415   5.232   1.397 -0.4414  0.8034 -1.4995
16028TIP3   OH269574   5.724   0.624   5.697  0.2245 -0.3933 -0.6132
16028TIP3    H169575   5.806   0.582   5.670  0.2341  1.1192 -3.1041
16028TIP3    H269576   5.658   0.556   5.686  0.5896 -0.5071 -2.3279
16029TIP3   OH269577   1.119   1.481  10.259 -0.2873  0.2566  0.0008
16029TIP3    H169578   1.072   1.409  10.301 -1.4596  0.4300 -0.9873
16029TIP3    H269579   1.126   1.548  10.327 -1.7896  0.3601  0.0612
16030TIP3   OH269580   1.564   5.846  12.591  0.2375 -0.0826 -0.4144
16030TIP3    H169581   1.624   5.785  12.634 -1.3874 -1.3968  0.0034
16030TIP3    H269582   1.504   5.791  12.542 -1.2611  1.1705 -0.0185
16031TIP3   OH269583   1.503   1.253   3.660 -0.0440 -0.0063  0.2862
16031TIP3    H169584   1.440   1.324   3.648  0.4324  0.1674 -1.3580
16031TIP3    H269585   1.529   1.229   3.571  2.4750  0.1874  0.9360
16032TIP3   OH269586   0.168   2.496  12.975  0.5291 -0.3293  0.2178
16032TIP3    H169587   0.177   2.580  12.929  0.5935 -0.0252  0.7816
16032TIP3    H269588   0.080   2.466  12.953 -0.6865  1.4120  2.5334
16033TIP3   OH269589   2.592   5.082   4.299 -0.4081  0.3240 -0.4109
16033TIP3    H169590   2.608   4.992   4.272 -0.1883  0.1586  0.2818
16033TIP3    H269591   2.640   5.092   4.381  0.0505  1.2466 -0.7828
16034TIP3   OH269592   3.759   3.368   3.229 -0.6550 -0.1456 -0.4468
16034TIP3    H169593   3.852   3.344   3.234 -0.3737  0.9001 -0.5226
16034TIP3    H269594   3.755   3.456   3.265 -1.7207 -0.4218  0.1284
16035TIP3   OH269595   0.427   3.440  14.850 -0.4720 -0.1887  0.5130
16035TIP3    H169596   0.423   3.349  14.879  0.2786 -1.0165 -1.8366
16035TIP3    H269597   0.425   3.491  14.931  2.5809 -2.3896  2.0695
16036TIP3   OH269598   6.788   0.395   6.199 -0.0255 -0.1270 -0.2514
16036TIP3    H169599   6.858   0.369   6.140  0.0151 -0.6910  0.0377
16036TIP3    H269600   6.797   0.490   6.207  0.3222 -0.1191 -0.6937
16037TIP3   OH269601   4.775   1.487  14.806  0.4924  0.1975  0.5391
16037TIP3    H169602   4.715   1.544  14.758  0.3937 -1.8986 -1.9725
16037TIP3    H269603   4.718   1.428  14.855  0.3490 -2.3575 -2.5195
16038TIP3   OH269604   4.734   4.693   1.309  1.2262  0.3315  0.9142
16038TIP3    H169605   4.774   4.653   1.386  0.8710 -0.9546  0.4491
16038TIP3    H269606   4.644   4.660   1.309  0.5320  2.1654  1.2342
16039TIP3   OH269607   1.958   4.885  11.144 -0.0177  0.0175 -0.5630
16039TIP3    H169608   1.983   4.965  11.099 -1.1787 -0.4671 -2.0998
16039TIP3    H269609   1.882   4.910  11.197  0.5521  0.2800  0.1381
16040TIP3   OH269610   5.751   2.861  12.295 -0.2986  0.2093 -0.0454
16040TIP3    H169611   5.826   2.802  12.297  0.7109  1.4835  0.8703
16040TIP3    H269612   5.786   2.945  12.327 -1.8111  1.1564 -0.8278
16041TIP3   OH269613   0.922   3.542  12.047 -0.1450  0.0666 -0.4003
16041TIP3    H169614   0.901   3.612  12.109  1.1667 -0.8847  1.1349
16041TIP3    H269615   0.862   3.471  12.070  1.8828 -1.1491  1.3517
16042TIP3   OH269616   3.572   6.050  11.910  0.3434  0.1055  0.4868
16042TIP3    H169617   3.553   5.990  11.838 -1.6131  2.0479 -0.6762
16042TIP3    H269618   3.638   6.111  11.874  1.0148 -0.2636  1.0782
16043TIP3   OH269619   6.046   1.793  16.259  0.2820 -0.3735 -0.2910
16043TIP3    H169620   5.991   1.819  16.185 -0.4795  0.1843  0.4576
16043TIP3    H269621   6.083   1.709  16.233 -0.6149 -0.5653 -0.9826
16044TIP3   OH269622   1.347   4.092  13.565 -0.2485  0.2743 -0.1278
16044TIP3    H169623   1.434   4.098  13.606 -0.5344 -0.2934  0.5507
16044TIP3    H269624   1.319   4.003  13.581 -0.7391  0.3045 -0.8149
16045TIP3   OH269625   4.164   5.300   5.866 -0.6059  0.1746 -0.0849
16045TIP3    H169626   4.239   5.349   5.832 -0.5605  1.1769  1.4336
16045TIP3    H269627   4.177   5.297   5.960 -0.9304 -2.2805 -0.0831
16046TIP3   OH269628   5.186   1.230  13.949 -0.1028 -0.1683 -0.0910
16046TIP3    H169629   5.121   1.221  14.018 -1.5056  0.8475 -1.2647
16046TIP3    H269630   5.266   1.255  13.995 -1.2001  1.2294  1.0954
16047TIP3   OH269631   2.303   2.967   1.141 -0.1732  0.1847  0.0495
16047TIP3    H169632   2.391   2.941   1.112 -1.2032 -1.2055 -1.9301
16047TIP3    H269633   2.304   2.951   1.236  2.3457  2.1132  0.4262
16048TIP3   OH269634   0.089   5.436   4.193  0.5150 -0.4081 -0.1542
16048TIP3    H169635   0.105   5.341   4.193 -2.4415 -0.9404 -1.9870
16048TIP3    H269636   0.075   5.458   4.101 -2.3452  1.1643  0.6125
16049TIP3   OH269637   3.069   4.088   2.895 -0.0586 -0.2348  0.0538
16049TIP3    H169638   3.097   4.063   2.807 -2.5287  0.3825 -0.9442
16049TIP3    H269639   2.981   4.052   2.904  0.2386 -0.4582  2.3562
16050TIP3   OH269640   6.709   3.112   5.829 -0.6510  0.3860  0.6444
16050TIP3    H169641   6.778   3.172   5.860 -0.8940 -0.9484  3.9893
16050TIP3    H269642   6.628   3.162   5.837 -0.4910  0.6761  0.4335
16051TIP3   OH269643   2.046   2.503  13.833 -0.4462  0.4119  0.2415
16051TIP3    H169644   2.102   2.512  13.755 -1.6938  1.2004 -0.5836
16051TIP3    H269645   2.093   2.442  13.889  1.4044  1.3069 -0.2946
16052TIP3   OH269646   6.751   1.624   5.505 -0.6049 -0.0073  0.2188
16052TIP3    H169647   6.811   1.606   5.577  0.8779 -0.9231 -1.1934
16052TIP3    H269648   6.691   1.691   5.539  1.4784  1.2447  1.5296
16053TIP3   OH269649   0.641   5.824  13.079  0.1948  0.9653 -0.1614
16053TIP3    H169650   0.551   5.792  13.072  0.2638  1.0398 -1.4671
16053TIP3    H269651   0.670   5.794  13.166 -0.3759 -0.8913 -0.5790
16054TIP3   OH269652   0.063   0.752  12.678  0.1626  0.5010 -0.1988
16054TIP3    H169653   0.063   0.832  12.732 -0.4459  0.2478  0.1874
16054TIP3    H269654  -0.029   0.736  12.659  0.1539 -0.8814  0.8958
16055TIP3   OH269655   4.896   1.510   0.979 -0.3611  0.4447  0.3091
16055TIP3    H169656   4.974   1.555   1.012  0.8315 -1.0232 -0.4264
16055TIP3    H269657   4.876   1.446   1.047 -0.2465  0.0560 -0.0265
16056TIP3   OH269658   2.533   0.784  13.256  0.2228  0.0090 -0.0474
16056TIP3    H169659   2.618   0.789  13.300  0.8279  1.1682 -1.3031
16056TIP3    H269660   2.554   0.780  13.163 -1.0770 -0.7462 -0.3195
16057TIP3   OH269661   6.530   3.173   0.918  0.0622 -0.2206  0.3532
16057TIP3    H169662   6.457   3.151   0.975  0.4250 -0.0765  0.8755
16057TIP3    H269663   6.501   3.251   0.870 -0.6608 -0.9792 -0.4478
16058TIP3   OH269664   1.636   3.331   5.230  0.3584 -0.3006  0.2732
16058TIP3    H169665   1.558   3.377   5.196 -0.5989 -0.1895  2.5755
16058TIP3    H269666   1.616   3.239   5.218 -0.8549 -0.3263  2.3880
16059TIP3   OH269667   6.597   3.792   1.029  0.0466  0.1272  0.6427
16059TIP3    H169668   6.570   3.833   0.947 -2.0154 -3.2511 -0.4673
16059TIP3    H269669   6.530   3.816   1.092  0.2227  0.5796  0.6558
16060TIP3   OH269670   2.449   0.835   6.635 -0.6396  0.5645  0.4078
16060TIP3    H169671   2.397   0.826   6.555 -2.1418  1.0550  1.3186
16060TIP3    H269672   2.403   0.783   6.700  0.4902  0.2958  1.0007
16061TIP3   OH269673   3.301   0.929  13.332  0.0434 -0.3649  0.0623
16061TIP3    H169674   3.369   0.997  13.333  1.2667 -1.5631  0.4242
16061TIP3    H269675   3.222   0.974  13.302  1.0676  0.9898 -0.6463
16062TIP3   OH269676   2.514   2.573  13.136 -0.4889 -0.2208 -0.0372
16062TIP3    H169677   2.590   2.616  13.097 -0.7903  0.3373 -0.0133
16062TIP3    H269678   2.535   2.480  13.133  0.5307 -0.0244  0.6695
16063TIP3   OH269679   2.561   3.230  12.675 -0.3367 -0.0518 -0.3218
16063TIP3    H169680   2.568   3.137  12.653 -1.2678 -0.2225  0.0617
16063TIP3    H269681   2.517   3.231  12.760  0.4884  0.7120  0.1092
16064TIP3   OH269682   5.487   4.603   5.890  0.4854  0.5204 -0.2806
16064TIP3    H169683   5.438   4.526   5.864 -1.7481  2.2797 -1.4705
16064TIP3    H269684   5.493   4.597   5.985 -0.1133 -0.8412 -0.3161
16065TIP3   OH269685   6.357   5.875  12.608 -0.3563 -0.5903 -0.1430
16065TIP3    H169686   6.371   5.933  12.682  0.3286 -0.0336 -0.6985
16065TIP3    H269687   6.311   5.799  12.644 -0.2535 -0.2037  0.7935
16066TIP3   OH269688   3.154   6.071   0.185  0.3444 -0.5479 -0.5382
16066TIP3    H169689   3.212   5.995   0.194  0.4275 -0.2516  1.8403
16066TIP3    H269690   3.187   6.134   0.249 -1.1337  0.5886 -0.8584
16067TIP3   OH269691   0.608   3.817   1.774 -0.5570  0.8419  0.3313
16067TIP3    H169692   0.654   3.826   1.691  2.3045 -1.5018  1.5701
16067TIP3    H269693   0.565   3.732   1.769 -0.4900  0.7460  1.1676
16068TIP3   OH269694   5.673   5.171   3.341 -0.0077  0.6899  0.1012
16068TIP3    H169695   5.701   5.105   3.404 -1.8280 -0.1193  0.0970
16068TIP3    H269696   5.649   5.121   3.263  0.7446  1.5503 -0.6871
16069TIP3   OH269697   4.414   1.808  14.511  0.4450 -0.2218 -0.6101
16069TIP3    H169698   4.405   1.726  14.462  0.1450  0.9941 -2.6572
16069TIP3    H269699   4.330   1.853  14.498 -0.1759 -0.4873  2.2192
16070TIP3   OH269700   4.252   0.589   2.636  0.4837 -0.0292 -0.1993
16070TIP3    H169701   4.302   0.560   2.712 -0.8739 -0.0375  0.7083
16070TIP3    H269702   4.208   0.510   2.604 -3.0303  0.8590  2.1376
16071TIP3   OH269703   0.578   0.308   3.480  0.4459 -0.3820 -0.2334
16071TIP3    H169704   0.653   0.366   3.470 -0.6577  0.7678 -2.1208
16071TIP3    H269705   0.521   0.330   3.406 -2.4655 -0.1685  2.0201
16072TIP3   OH269706   5.609   4.043   0.251  0.1764 -0.6218  0.1392
16072TIP3    H169707   5.703   4.026   0.257  0.4523  0.2901 -1.4693
16072TIP3    H269708   5.574   4.017   0.337  1.8726 -1.0828  0.6926
16073TIP3   OH269709   3.301   6.746  11.841 -0.2718 -0.0850 -0.1324
16073TIP3    H169710   3.306   6.826  11.788 -3.3304  0.9672  1.0589
16073TIP3    H269711   3.209   6.720  11.837  0.1437 -1.9931  1.7750
16074TIP3   OH269712   1.432   5.278  11.883  0.6576  0.3646 -0.4126
16074TIP3    H169713   1.421   5.224  11.805  1.0298 -0.8406  0.3456
16074TIP3    H269714   1.525   5.298  11.885  0.8546 -0.5790  0.3326
16075TIP3   OH269715   1.374   5.584  12.976  0.0115  0.1354  0.4086
16075TIP3    H169716   1.329   5.595  13.060  0.6954 -0.8536  0.9261
16075TIP3    H269717   1.342   5.501  12.943  0.8752 -0.2065  0.4206
16076TIP3   OH269718   1.459   3.982  16.727 -0.0648 -0.2241  0.2056
16076TIP3    H169719   1.498   4.054  16.678  0.2522 -1.4316 -1.3566
16076TIP3    H269720   1.511   3.976  16.807  1.5846 -0.4049 -0.8610
16077TIP3   OH269721   1.478   5.015   2.338  0.0664 -0.4005  0.0549
16077TIP3    H169722   1.427   5.096   2.325  1.4937  0.5386  0.2256
16077TIP3    H269723   1.526   5.004   2.256  0.0537 -0.9511  0.1213
16078TIP3   OH269724   0.996   3.382   2.926  0.2339  0.1324  0.3539
16078TIP3    H169725   1.054   3.329   2.981 -0.6545  0.4372  1.6181
16078TIP3    H269726   0.909   3.370   2.965 -0.2942  0.9399 -0.5564
16079TIP3   OH269727   1.159   4.399   1.362 -0.3912  0.6091 -0.1628
16079TIP3    H169728   1.244   4.370   1.394  0.1461  2.0809 -0.1961
16079TIP3    H269729   1.161   4.383   1.267  0.1137  1.2380 -0.2630
16080TIP3   OH269730   1.121   2.279   5.274 -0.2363 -0.6878  0.4323
16080TIP3    H169731   1.181   2.205   5.265  0.2651 -0.2634  0.2902
16080TIP3    H269732   1.132   2.330   5.194 -0.4227 -0.3393  0.6257
16081TIP3   OH269733   6.807   4.831   5.159  0.3893 -0.2359 -0.0265
16081TIP3    H169734   6.745   4.759   5.144  1.3586 -0.8755 -0.9673
16081TIP3    H269735   6.753   4.910   5.155 -0.3675 -0.7880 -0.8614
16082TIP3   OH269736   1.697   1.757  11.902 -0.0598  0.4102  0.0239
16082TIP3    H169737   1.620   1.706  11.924  1.1501 -0.8735  1.4077
16082TIP3    H269738   1.680   1.844  11.939 -0.7311  0.0634  0.5195
16083TIP3   OH269739   5.546   4.629  12.156  0.4963 -0.4471  0.1980
16083TIP3    H169740   5.635   4.598  12.142  0.2801 -2.3954  2.6661
16083TIP3    H269741   5.555   4.701  12.219  0.3679 -0.3635  0.1207
16084TIP3   OH269742   3.639   5.184  12.354 -0.1995 -0.8832 -0.0413
16084TIP3    H169743   3.662   5.104  12.401  1.6374  0.9828  2.3995
16084TIP3    H269744   3.689   5.179  12.272 -0.0916 -2.2196  0.0993
16085TIP3   OH269745   1.258   3.828   2.837  0.7356 -0.0579 -0.4440
16085TIP3    H169746   1.219   3.809   2.752 -0.6408 -1.8006  0.5619
16085TIP3    H269747   1.340   3.778   2.837  0.5912 -0.2967 -0.6145
16086TIP3   OH269748   4.494   5.695  13.426 -0.3222  0.1503 -0.9135
16086TIP3    H169749   4.481   5.789  13.417  0.7822  0.2161 -2.1096
16086TIP3    H269750   4.563   5.686  13.491 -1.4598  0.0960  0.2993
16087TIP3   OH269751   6.811   2.230   1.915  0.5276  0.0213  0.4759
16087TIP3    H169752   6.831   2.137   1.929  2.3432  0.4444  0.8098
16087TIP3    H269753   6.817   2.242   1.820 -0.2409 -0.3082  0.3805
16088TIP3   OH269754   6.039   1.879   1.538 -0.4991 -0.9053 -0.3026
16088TIP3    H169755   6.068   1.914   1.454  0.6942 -1.0531  0.0359
16088TIP3    H269756   6.045   1.954   1.598  0.7417 -1.3205  0.1175
16089TIP3   OH269757   6.607   6.686  12.781  0.2826 -0.3655  0.5666
16089TIP3    H169758   6.597   6.593  12.801 -0.8783 -0.5587 -0.8557
16089TIP3    H269759   6.542   6.729  12.837  0.7273 -0.4230  1.1277
16090TIP3   OH269760   6.676   2.169   5.108 -0.0256 -0.2888 -0.1066
16090TIP3    H169761   6.766   2.175   5.141  0.1567  2.3229 -0.9482
16090TIP3    H269762   6.629   2.238   5.154 -0.9158  0.1884 -1.6929
16091TIP3   OH269763   2.628   2.346  14.392  0.2470 -0.0088 -0.1261
16091TIP3    H169764   2.603   2.279  14.329  1.3611 -0.9874  0.4558
16091TIP3    H269765   2.582   2.322  14.472 -0.9414  1.0729 -0.4632
16092TIP3   OH269766   3.143   1.117   2.656  0.1959 -1.0463 -0.0880
16092TIP3    H169767   3.095   1.124   2.574 -0.2767  0.7878  0.3380
16092TIP3    H269768   3.202   1.043   2.643  0.4493 -0.4815 -2.2350
16093TIP3   OH269769   3.155   6.189   1.126  0.1956  0.0281 -0.2130
16093TIP3    H169770   3.086   6.241   1.084  0.5413  0.6795  0.0083
16093TIP3    H269771   3.220   6.254   1.154  1.2541 -0.6358 -1.0732
16094TIP3   OH269772   6.073   4.711   1.441  0.2180  0.0412 -0.1134
16094TIP3    H169773   6.098   4.630   1.397 -3.1198 -0.3016 -1.5229
16094TIP3    H269774   6.041   4.683   1.526 -1.1229 -0.1731 -0.6764
16095TIP3   OH269775   0.002   0.370   0.602 -0.1336 -0.0904 -0.1656
16095TIP3    H169776   0.079   0.380   0.658 -0.7502 -1.7027  1.0041
16095TIP3    H269777   0.038   0.370   0.513  1.2589 -1.1425  0.3696
16096TIP3   OH269778   5.784   1.806   5.717 -0.2965  0.1108  0.0761
16096TIP3    H169779   5.819   1.734   5.666  1.4371  1.4473 -0.6609
16096TIP3    H269780   5.854   1.830   5.777 -1.0925  0.7454  0.7626
16097TIP3   OH269781   4.352   5.766   2.914 -0.0959  0.0222 -0.1375
16097TIP3    H169782   4.300   5.716   2.851 -0.7910  1.6856 -0.8971
16097TIP3    H269783   4.331   5.727   2.999 -0.5740 -1.0195 -0.7232
16098TIP3   OH269784   2.679   3.255   2.105 -0.2927 -0.0957  0.2198
16098TIP3    H169785   2.604   3.202   2.130 -0.8906  0.8563  0.4750
16098TIP3    H269786   2.700   3.226   2.016 -0.0546 -1.3599  0.6693
16099TIP3   OH269787   2.860   1.686   2.616 -0.1997 -0.2281 -0.6761
16099TIP3    H169788   2.910   1.752   2.568  0.5734 -1.1835 -1.1809
16099TIP3    H269789   2.878   1.705   2.708 -0.0876  0.3438 -0.8129
16100TIP3   OH269790   1.974   1.207  12.115 -0.1159 -0.2708  0.2627
16100TIP3    H169791   2.014   1.157  12.186 -2.0124 -1.1034  0.7762
16100TIP3    H269792   1.880   1.200  12.130 -0.5425 -0.0609 -2.0519
16101TIP3   OH269793   6.134   4.618  16.136 -0.1696  0.1501 -0.3185
16101TIP3    H169794   6.052   4.602  16.183 -0.9155 -0.5872 -1.8295
16101TIP3    H269795   6.203   4.597  16.200 -1.1542 -2.1978  0.0214
16102TIP3   OH269796   2.696   6.261   0.460  0.0003  0.0431  0.5833
16102TIP3    H169797   2.633   6.281   0.529 -0.3489 -0.9036  0.5430
16102TIP3    H269798   2.648   6.273   0.379 -0.4754 -1.7583  0.5711
16103TIP3   OH269799   5.192   4.914  15.576  0.5400  0.0649 -0.5006
16103TIP3    H169800   5.266   4.900  15.517  0.4609 -0.1045 -0.5603
16103TIP3    H269801   5.157   4.999  15.551  0.8472  0.2473 -0.3285
16104TIP3   OH269802   3.077   6.001  13.084 -0.6889 -0.0489 -0.0818
16104TIP3    H169803   3.048   6.070  13.023  1.9179  0.6050 -0.6379
16104TIP3    H269804   3.100   5.928  13.027 -0.8652 -0.4254  0.3287
16105TIP3   OH269805   0.756   2.944  11.363  0.3885  0.1695  0.2087
16105TIP3    H169806   0.698   2.939  11.288 -0.0661  0.6108  0.5211
16105TIP3    H269807   0.705   2.906  11.435  1.5698 -2.1110 -0.1273
16106TIP3   OH269808   2.390   6.750  15.519  0.2803 -0.1283 -0.3990
16106TIP3    H169809   2.399   6.753  15.614 -0.0707  0.8920 -0.3966
16106TIP3    H269810   2.320   6.813  15.499 -0.5934 -1.3242 -1.2097
16107TIP3   OH269811   1.005   0.219   2.937  0.2293 -0.4979  0.5540
16107TIP3    H169812   1.071   0.275   2.977  0.0225 -0.7588  1.2606
16107TIP3    H269813   0.974   0.163   3.008 -0.4881 -0.6306  0.1436
16108TIP3   OH269814   4.487   6.771  14.041 -0.5479  0.2342 -0.0039
16108TIP3    H169815   4.479   6.866  14.046  0.7528  0.4402 -1.3549
16108TIP3    H269816   4.410   6.743  13.992 -1.5979  0.4482  1.4975
16109TIP3   OH269817   2.649   1.449  13.006 -0.3125  0.1032  0.1342
16109TIP3    H169818   2.566   1.451  12.958  1.2842 -0.4289 -2.7938
16109TIP3    H269819   2.694   1.530  12.979  1.3803 -1.1044 -0.7175
16110TIP3   OH269820   2.429   6.188   5.510  0.4478 -0.0407 -0.6487
16110TIP3    H169821   2.442   6.132   5.587 -1.9622 -0.1999 -0.3199
16110TIP3    H269822   2.450   6.132   5.436  0.7139 -0.5428 -0.1980
16111TIP3   OH269823   5.816   1.403  14.033 -0.0424  0.4258  0.0949
16111TIP3    H169824   5.886   1.338  14.031 -0.5166 -0.0779 -0.4006
16111TIP3    H269825   5.752   1.370  13.970 -0.2321  1.4364 -0.2408
16112TIP3   OH269826   6.582   4.621   1.945 -1.0281 -0.9088 -0.3456
16112TIP3    H169827   6.627   4.552   1.895  0.2970 -0.5769  0.3664
16112TIP3    H269828   6.593   4.595   2.036  1.0993  1.1945  0.0296
16113TIP3   OH269829   2.726   3.343  13.036 -0.2817  0.3429  0.0327
16113TIP3    H169830   2.642   3.389  13.046 -0.2383  0.4931 -0.3049
16113TIP3    H269831   2.772   3.391  12.968 -0.1927 -0.1461 -0.2504
16114TIP3   OH269832   3.964   0.697   0.541  0.2963 -0.6056  0.2087
16114TIP3    H169833   4.044   0.705   0.593 -0.9630  1.0901  1.9583
16114TIP3    H269834   3.958   0.603   0.522  1.8509 -0.9794  1.4283
16115TIP3   OH269835   0.980   2.436  15.213  0.4817  0.3558  0.3709
16115TIP3    H169836   1.005   2.364  15.154 -2.4754  1.2296 -2.0998
16115TIP3    H269837   1.029   2.512  15.180  0.8602  0.2611  0.7161
16116TIP3   OH269838   2.576   3.544   4.287 -0.4044 -0.1422 -0.4388
16116TIP3    H169839   2.550   3.457   4.319 -0.8402 -0.0075 -0.4133
16116TIP3    H269840   2.541   3.604   4.353 -0.0035  0.0460 -0.3971
16117TIP3   OH269841   6.014   1.559   6.204 -0.1079  0.1305  0.0330
16117TIP3    H169842   6.086   1.514   6.247 -1.8672 -3.0316 -0.1501
16117TIP3    H269843   5.964   1.599   6.275  1.4719  1.8759  0.1970
16118TIP3   OH269844   3.148   5.889  16.097 -0.0210  0.1640  0.1701
16118TIP3    H169845   3.149   5.982  16.117 -0.6254 -0.0485  1.2333
16118TIP3    H269846   3.062   5.874  16.057 -0.3489 -0.1374  0.9908
16119TIP3   OH269847   6.806   4.109  15.575 -0.7464  0.2094 -0.9541
16119TIP3    H169848   6.756   4.189  15.593  0.0414  0.0027  2.6049
16119TIP3    H269849   6.741   4.041  15.566 -1.3078  0.7941 -1.3680
16120TIP3   OH269850   6.717   4.508   4.822 -0.6141 -0.4515  0.0450
16120TIP3    H169851   6.641   4.567   4.827 -0.2807  0.0881 -1.0873
16120TIP3    H269852   6.685   4.434   4.770 -0.9798 -1.2124  1.3191
16121TIP3   OH269853   6.816   2.421  16.495 -0.2751 -0.5058 -0.1532
16121TIP3    H169854   6.889   2.453  16.441 -0.3908  0.0889  0.0400
16121TIP3    H269855   6.753   2.386  16.432  0.4090 -1.5162 -0.2944
16122TIP3   OH269856   2.007   2.331  11.639  0.1918 -0.3488 -0.7130
16122TIP3    H169857   1.980   2.265  11.576  0.2290 -2.7301  1.6763
16122TIP3    H269858   1.925   2.363  11.677  0.3239 -1.8371  0.8715
16123TIP3   OH269859   5.985   0.160  15.979 -0.2655 -0.1743 -0.0710
16123TIP3    H169860   5.957   0.101  15.910  1.9913  0.9991 -2.0575
16123TIP3    H269861   5.932   0.238  15.967 -1.8072 -0.9945  1.2742
16124TIP3   OH269862   5.907   3.726  12.671 -0.2361 -0.3578  0.6017
16124TIP3    H169863   5.900   3.821  12.656  0.1433 -0.2187  1.2729
16124TIP3    H269864   5.909   3.717  12.766 -0.6871 -1.0772  0.5444
16125TIP3   OH269865   5.072   1.067  16.833 -0.0519 -0.2615  0.1625
16125TIP3    H169866   5.021   1.046  16.911 -1.2577 -0.2623 -0.6215
16125TIP3    H269867   5.014   1.049  16.760  0.8185  0.4340 -0.7208
16126TIP3   OH269868   2.351   5.886  16.566 -0.2310 -0.3415 -0.0651
16126TIP3    H169869   2.397   5.944  16.506 -0.3516 -0.9631 -0.7686
16126TIP3    H269870   2.260   5.887  16.537 -0.3978 -0.2213  0.4468
16127TIP3   OH269871   6.306   1.323   3.442  0.5723  0.0281  0.6808
16127TIP3    H169872   6.335   1.303   3.530  1.0953 -1.7622  0.1266
16127TIP3    H269873   6.227   1.270   3.430  1.2990 -0.8651 -0.3901
16128TIP3   OH269874   5.218   6.353   3.893 -0.5440  0.0059 -1.0471
16128TIP3    H169875   5.254   6.366   3.981 -1.7131  2.3776 -0.8925
16128TIP3    H269876   5.259   6.272   3.863  1.2818  0.1217  0.9653
16129TIP3   OH269877   0.197   3.504   2.479 -0.2089 -0.1043 -0.1395
16129TIP3    H169878   0.208   3.519   2.386  1.6521 -0.6387 -0.0273
16129TIP3    H269879   0.104   3.520   2.496 -0.2706  1.3940 -1.8100
16130TIP3   OH269880   1.071   2.894  12.607  0.3004 -0.1260 -0.6514
16130TIP3    H169881   1.026   2.974  12.580  1.5795  1.2785  1.2415
16130TIP3    H269882   1.024   2.864  12.685  0.8717 -0.2419 -0.3451
16131TIP3   OH269883   1.980   5.366  16.804  0.4165 -0.1471  0.6039
16131TIP3    H169884   1.896   5.328  16.779  0.2212  0.4770  0.3168
16131TIP3    H269885   2.019   5.395  16.721  1.1136 -0.8443  0.6851
16132TIP3   OH269886   5.266   5.219  13.125 -0.1500  0.4843  0.7494
16132TIP3    H169887   5.245   5.163  13.200 -0.7753  1.6668  1.4548
16132TIP3    H269888   5.357   5.243  13.138  0.1903 -0.5103  0.3359
16133TIP3   OH269889   0.522   6.599  14.481  0.1651  0.4383  0.3911
16133TIP3    H169890   0.540   6.689  14.510 -0.0882  0.7950 -0.5469
16133TIP3    H269891   0.443   6.606  14.428 -1.3923 -0.7579  2.4802
16134TIP3   OH269892   5.331   4.065   4.345  0.4314 -0.6413 -0.5379
16134TIP3    H169893   5.329   4.004   4.271 -3.2244 -1.1731 -0.1022
16134TIP3    H269894   5.293   4.146   4.309 -2.4550 -1.2583  0.9696
16135TIP3   OH269895   0.839   0.506  16.381  0.4115 -0.2906 -0.3645
16135TIP3    H169896   0.748   0.482  16.397  0.4215  0.6964  1.3067
16135TIP3    H269897   0.866   0.449  16.309 -1.8707  0.2351 -1.6889
16136TIP3   OH269898   0.955   0.563   0.124 -0.0500  0.6726 -0.1866
16136TIP3    H169899   1.039   0.548   0.168 -0.0216  0.2280 -0.3897
16136TIP3    H269900   0.929   0.651   0.153 -0.0763  0.3559  0.7904
16137TIP3   OH269901   0.033   5.233  15.000 -0.0834 -0.1359 -0.4801
16137TIP3    H169902  -0.054   5.248  15.036  1.0280 -0.2181  2.3753
16137TIP3    H269903   0.093   5.257  15.071  2.1841 -1.2683 -1.9448
16138TIP3   OH269904   5.327   0.952   1.489 -0.3538 -0.1331 -0.4636
16138TIP3    H169905   5.330   0.896   1.412 -0.6265 -0.1890 -0.4318
16138TIP3    H269906   5.359   0.896   1.560  3.2198  0.9133 -1.1433
16139TIP3   OH269907   5.871   2.853  16.409 -0.2904 -0.4544 -0.0742
16139TIP3    H169908   5.830   2.780  16.455 -0.4251 -0.8577 -0.8469
16139TIP3    H269909   5.834   2.851  16.321 -0.3893  0.6180 -0.0659
16140TIP3   OH269910   5.678   5.971   4.813  0.4274 -0.2310 -0.5821
16140TIP3    H169911   5.603   5.955   4.756 -0.0949 -0.5878  0.1940
16140TIP3    H269912   5.752   5.983   4.753 -0.0035 -1.1763 -1.3185
16141TIP3   OH269913   5.478   2.593   1.624  0.0520 -0.1094  0.2836
16141TIP3    H169914   5.451   2.678   1.590  0.8225 -0.6501 -1.7737
16141TIP3    H269915   5.399   2.556   1.662 -0.2582  1.5724  1.3410
16142TIP3   OH269916   1.717   2.815  16.244  0.3720  0.0560 -0.2485
16142TIP3    H169917   1.739   2.856  16.160 -0.4407 -0.1059 -0.5433
16142TIP3    H269918   1.630   2.848  16.265  0.0239 -0.9247 -0.1088
16143TIP3   OH269919   0.644   5.911  16.591 -0.0445  0.0113  0.2568
16143TIP3    H169920   0.710   5.913  16.521  0.0338  1.5679  0.3694
16143TIP3    H269921   0.562   5.890  16.546  0.5192 -2.1027  0.1314
16144TIP3   OH269922   1.943   6.423   3.753  0.1885 -0.1112 -0.0067
16144TIP3    H169923   1.882   6.496   3.760 -0.3255 -0.5786  0.4094
16144TIP3    H269924   1.938   6.379   3.838  0.4485 -0.6616 -0.2751
16145TIP3   OH269925   2.987   0.234   2.329 -0.4827 -0.1582 -0.0991
16145TIP3    H169926   3.029   0.151   2.353 -0.5151  0.0863  0.8202
16145TIP3    H269927   3.056   0.285   2.287 -0.5536 -0.7868 -0.9911
16146TIP3   OH269928   3.081   4.991  11.850 -0.7644 -0.4752 -0.3476
16146TIP3    H169929   3.034   5.059  11.899 -0.1552  0.4744 -1.0796
16146TIP3    H269930   3.105   5.032  11.767 -1.0988 -1.8396 -1.1322
16147TIP3   OH269931   5.170   0.885  15.639  0.6926  0.0878 -0.1909
16147TIP3    H169932   5.217   0.811  15.599  0.2790  0.3980 -1.2416
16147TIP3    H269933   5.235   0.923  15.699  1.6024  0.1588 -1.1999
16148TIP3   OH269934   5.100   6.195  11.631 -0.1424 -0.9303 -0.1341
16148TIP3    H169935   5.193   6.194  11.608  0.4118  0.4875  1.8515
16148TIP3    H269936   5.062   6.264  11.577 -0.0665 -1.6203 -1.0638
16149TIP3   OH269937   5.123   1.080   3.667 -0.4624  0.0074  0.1911
16149TIP3    H169938   5.053   1.016   3.668 -0.6225  0.1844  1.8650
16149TIP3    H269939   5.151   1.087   3.758  1.8336 -0.1723 -0.4556
16150TIP3   OH269940   0.833   5.510   3.124  0.0436  0.3694 -0.5350
16150TIP3    H169941   0.890   5.468   3.059  1.2479 -0.8540  1.2448
16150TIP3    H269942   0.855   5.603   3.119 -1.2803  0.5905 -3.2019
16151TIP3   OH269943   2.295   3.654   4.896  0.4398  0.0680 -0.1414
16151TIP3    H169944   2.222   3.712   4.917  1.3248  1.4568 -0.8558
16151TIP3    H269945   2.373   3.707   4.913  1.2785 -1.2660  0.2133
16152TIP3   OH269946   3.628   1.888  13.304 -0.3329 -0.5590 -1.0055
16152TIP3    H169947   3.556   1.949  13.323  1.4207  1.7539 -1.6106
16152TIP3    H269948   3.678   1.884  13.386  0.5089  0.1287 -1.4844
16153TIP3   OH269949   4.652   5.577  13.983 -0.2889 -0.8099  0.1781
16153TIP3    H169950   4.650   5.482  13.983 -0.1850 -0.8497 -2.7919
16153TIP3    H269951   4.561   5.603  13.966 -0.4168 -0.3612  1.4907
16154TIP3   OH269952   2.321   2.857  12.267  0.3010  0.3095  0.2101
16154TIP3    H169953   2.347   2.780  12.319 -3.2905 -2.2557 -1.5870
16154TIP3    H269954   2.361   2.842  12.181  1.1525  1.4512  0.3972
16155TIP3   OH269955   3.807   2.899  11.969  0.0598  0.3741  0.6318
16155TIP3    H169956   3.762   2.983  11.976  0.4965  0.6806 -0.2146
16155TIP3    H269957   3.853   2.889  12.052 -1.7207 -0.0447  1.6041
16156TIP3   OH269958   5.900   3.718  13.296  0.4196  0.2595 -0.4489
16156TIP3    H169959   5.964   3.742  13.363 -1.4284 -0.3893  1.6344
16156TIP3    H269960   5.892   3.796  13.241  1.7877  0.9067  0.2499
16157TIP3   OH269961   1.134   5.524  11.499 -0.3958 -0.2251 -0.2340
16157TIP3    H169962   1.095   5.438  11.481 -0.9065 -0.0832  0.1906
16157TIP3    H269963   1.134   5.569  11.414 -2.5444  0.3370  0.0483
16158TIP3   OH269964   6.649   3.310   4.859 -0.0899 -0.0277  0.4472
16158TIP3    H169965   6.680   3.234   4.909  0.8966  0.2981  0.3415
16158TIP3    H269966   6.603   3.364   4.924  2.8140  1.3317  1.4710
16159TIP3   OH269967   6.386   6.506   5.168 -0.5351  0.4016  0.0653
16159TIP3    H169968   6.326   6.575   5.140 -0.9852 -0.1530 -0.3394
16159TIP3    H269969   6.376   6.504   5.264 -1.4335  0.0638 -0.0331
16160TIP3   OH269970   6.666   2.757  13.334 -0.4527 -0.1870  0.1875
16160TIP3    H169971   6.621   2.770  13.250 -0.9080 -0.3494  0.4050
16160TIP3    H269972   6.600   2.779  13.400  0.2034  0.8847  0.4937
16161TIP3   OH269973   0.621   1.790  10.978  0.1028 -0.1416 -0.1752
16161TIP3    H169974   0.553   1.856  10.997  0.3500 -0.0844  0.5110
16161TIP3    H269975   0.652   1.813  10.891 -1.5433 -0.8395 -0.9857
16162TIP3   OH269976   0.666   2.918  14.680 -0.0774  0.2682  0.2737
16162TIP3    H169977   0.652   2.911  14.775 -0.2078 -2.0457  0.1126
16162TIP3    H269978   0.585   2.958  14.648 -1.1620 -1.3551  0.8662
16163TIP3   OH269979   3.586   4.715  16.717  0.0655  0.4406 -0.1203
16163TIP3    H169980   3.548   4.675  16.638 -0.7554 -3.3597  2.0349
16163TIP3    H269981   3.681   4.706  16.705 -0.0483  0.1262 -0.8170
16164TIP3   OH269982   0.743   4.773   0.930  0.4372  0.2032  0.3378
16164TIP3    H169983   0.787   4.688   0.924  1.6980  0.5737  3.6833
16164TIP3    H269984   0.650   4.751   0.926  0.7656 -1.1617 -0.4351
16165TIP3   OH269985   3.953   2.046  16.147  0.0624 -0.3487 -0.3917
16165TIP3    H169986   3.903   1.993  16.084  0.4017  0.0859 -1.0251
16165TIP3    H269987   3.916   2.134  16.138  1.1358  0.0385 -1.0751
16166TIP3   OH269988   6.541   0.994   4.191  0.7071 -0.2054  0.1173
16166TIP3    H169989   6.619   0.943   4.214  0.1295 -1.2286 -0.1593
16166TIP3    H269990   6.573   1.083   4.182  1.4411 -0.2085  2.2807
16167TIP3   OH269991   2.080   0.631   5.837  0.2846 -0.1991 -0.7089
16167TIP3    H169992   2.154   0.687   5.816  0.8276 -0.7001 -0.1696
16167TIP3    H269993   2.116   0.542   5.832 -0.0131 -0.4010  0.5546
16168TIP3   OH269994   4.757   2.712  12.033  0.4398  0.0712  0.2363
16168TIP3    H169995   4.735   2.805  12.031  1.3177  0.2502 -1.9358
16168TIP3    H269996   4.852   2.710  12.042  0.6367 -0.5624 -1.7434
16169TIP3   OH269997   4.859   5.436   2.753  0.3228 -0.1511  0.2910
16169TIP3    H169998   4.914   5.514   2.764 -0.6984  0.6234  0.0418
16169TIP3    H269999   4.887   5.399   2.669 -0.8665  1.3581 -0.8020
16170TIP3   OH270000   5.827   6.700   1.315 -0.5336 -0.1470 -0.0955
16170TIP3    H170001   5.898   6.752   1.353  0.4715 -0.2265 -1.8315
16170TIP3    H270002   5.859   6.610   1.319 -0.4399 -0.1550 -1.1052
16171TIP3   OH270003   6.356   5.910   5.623  0.0773 -0.2397 -0.1902
16171TIP3    H170004   6.317   5.847   5.562  0.3437 -0.5304 -0.0574
16171TIP3    H270005   6.375   5.987   5.569  2.8322 -1.4768 -1.0559
16172TIP3   OH270006   5.521   1.993  14.333  0.1277 -0.0166 -0.1152
16172TIP3    H170007   5.497   1.925  14.270 -2.0824 -0.7730  1.4993
16172TIP3    H270008   5.611   1.972  14.357 -0.3997 -2.2242  0.0938
16173TIP3   OH270009   1.815   5.430  13.477 -0.1487 -0.4657  0.4892
16173TIP3    H170010   1.868   5.390  13.547  0.0372 -2.3285 -0.7050
16173TIP3    H270011   1.864   5.509  13.453  2.2579 -2.2835 -0.7572
16174TIP3   OH270012   0.984   0.508   1.753  0.1072 -0.1208 -0.3974
16174TIP3    H170013   0.993   0.604   1.757 -1.3966  0.0207  0.0488
16174TIP3    H270014   0.951   0.491   1.664  1.0783 -0.2984 -0.7301
16175TIP3   OH270015   0.220   2.930  12.692  0.0917  0.5291 -0.8371
16175TIP3    H170016   0.282   2.962  12.758 -0.0951  0.5462 -0.6709
16175TIP3    H270017   0.275   2.900  12.620  0.2901  0.6702 -0.7435
16176TIP3   OH270018   4.377   3.825  13.758 -0.5687 -0.2258 -0.5265
16176TIP3    H170019   4.292   3.867  13.745 -0.2876  0.7200  0.6610
16176TIP3    H270020   4.418   3.828  13.671 -0.9904  0.9874 -0.6899
16177TIP3   OH270021   5.076   5.733   0.063 -0.2185  0.1223  0.1461
16177TIP3    H170022   5.170   5.728   0.076 -0.1818  0.9252  0.2518
16177TIP3    H270023   5.054   5.824   0.082 -0.8863  0.1470 -0.6834
16178TIP3   OH270024   2.754   0.391  12.740 -0.5908 -0.1944 -0.5479
16178TIP3    H170025   2.747   0.296  12.748  1.1949 -0.3357 -0.5417
16178TIP3    H270026   2.695   0.425  12.808 -1.2905 -1.2946 -0.5989
16179TIP3   OH270027   4.780   6.265   3.168  0.5434 -0.1810  0.0535
16179TIP3    H170028   4.745   6.202   3.230  2.2322 -0.7543  0.4629
16179TIP3    H270029   4.758   6.230   3.082  1.5033 -1.3627  0.2775
16180TIP3   OH270030   5.896   0.659  10.829  0.1030  0.4248  0.7166
16180TIP3    H170031   5.900   0.624  10.740 -0.6363  0.6785  0.5840
16180TIP3    H270032   5.881   0.753  10.817  0.5406  0.5447  1.1000
16181TIP3   OH270033   5.478   3.304   3.494 -0.0088  0.6723 -0.0503
16181TIP3    H170034   5.515   3.318   3.407  1.9366  0.6824  0.7476
16181TIP3    H270035   5.483   3.209   3.507  1.1990  0.8122  0.6535
16182TIP3   OH270036   3.480   0.789  16.697  0.0059 -0.5185 -0.2693
16182TIP3    H170037   3.420   0.862  16.683  0.2144 -0.6609 -2.0055
16182TIP3    H270038   3.552   0.826  16.749 -0.6309  0.1158  0.1631
16183TIP3   OH270039   3.941   4.022   6.267 -0.1321  0.1134  0.1069
16183TIP3    H170040   4.009   3.954   6.258 -0.5793 -0.2087 -0.9718
16183TIP3    H270041   3.987   4.104   6.250  0.5525  0.1511  2.0632
16184TIP3   OH270042   3.437   0.090   2.447 -0.2189 -0.2425 -0.1294
16184TIP3    H170043   3.440   0.180   2.413 -0.9571 -0.1179  0.1326
16184TIP3    H270044   3.520   0.080   2.495 -1.2235  1.1358  1.9614
16185TIP3   OH270045   4.319   6.604   5.745  0.3051 -0.3854  0.5701
16185TIP3    H170046   4.224   6.611   5.753  0.3463  1.0929 -0.1190
16185TIP3    H270047   4.352   6.628   5.831  0.0541 -1.1560  0.8885
16186TIP3   OH270048   4.221   5.704   3.167 -0.2826  0.2796 -0.1743
16186TIP3    H170049   4.182   5.785   3.136 -0.7388  0.5390  1.0848
16186TIP3    H270050   4.147   5.642   3.171 -0.2712  0.3251  0.6736
16187TIP3   OH270051   1.326   4.806   3.875 -0.1093 -0.3951  0.0473
16187TIP3    H170052   1.308   4.714   3.896  0.1545 -0.3551  0.4443
16187TIP3    H270053   1.303   4.853   3.954  3.0302 -0.4704  1.0688
16188TIP3   OH270054   6.247   6.058  11.597  0.0904  0.5716  0.7869
16188TIP3    H170055   6.314   6.048  11.530 -1.4426  1.2661 -0.8960
16188TIP3    H270056   6.201   5.974  11.598 -1.5557  1.3889 -0.9478
16189TIP3   OH270057   6.608   6.213  13.279  0.0429  0.2302 -0.3813
16189TIP3    H170058   6.594   6.152  13.352  0.0148 -0.6880 -1.1424
16189TIP3    H270059   6.524   6.216  13.233  0.6469 -0.8112 -1.5807
16190TIP3   OH270060   1.547   2.694   3.614  0.4518  0.0238 -0.0953
16190TIP3    H170061   1.603   2.618   3.599 -0.2203 -0.4244 -0.3465
16190TIP3    H270062   1.602   2.754   3.665  0.9714 -0.6468  0.1478
16191TIP3   OH270063   6.164   3.530  14.937 -0.7986  0.0921 -0.2374
16191TIP3    H170064   6.134   3.595  14.873 -2.9038 -1.1425 -0.5471
16191TIP3    H270065   6.134   3.565  15.021  2.0868  1.7838  0.1379
16192TIP3   OH270066   0.854   3.025  15.533  0.1182 -0.1775  0.3146
16192TIP3    H170067   0.874   2.933  15.521 -1.4143 -0.4121 -0.5836
16192TIP3    H270068   0.827   3.032  15.625  0.6598 -0.5419  0.5004
16193TIP3   OH270069   2.350   4.533  12.146  0.4233  0.0983  0.2226
16193TIP3    H170070   2.366   4.605  12.206  0.7083 -0.8370  1.2988
16193TIP3    H270071   2.395   4.558  12.065  2.0937  0.2819  1.1951
16194TIP3   OH270072   4.242   5.614   3.771  0.3503  0.0660 -0.0860
16194TIP3    H170073   4.191   5.672   3.827  0.7637  1.3495 -1.0309
16194TIP3    H270074   4.243   5.530   3.818  1.1548  1.2687  2.1122
16195TIP3   OH270075   0.215   5.872   2.002  0.3413 -0.0837  0.1634
16195TIP3    H170076   0.218   5.905   1.912  3.6356 -1.4925 -0.3570
16195TIP3    H270077   0.179   5.784   1.994 -2.4615  0.9844  0.6983
16196TIP3   OH270078   4.798   2.642   6.109 -0.5228  0.6997  0.0342
16196TIP3    H170079   4.848   2.676   6.182  0.1001  1.8625 -0.9266
16196TIP3    H270080   4.811   2.547   6.113  0.6482  0.8781  0.5980
16197TIP3   OH270081   4.292   6.337  12.910  0.1272 -0.1252  0.6645
16197TIP3    H170082   4.244   6.340  12.827  0.4038 -0.1248  0.5062
16197TIP3    H270083   4.333   6.423  12.917  1.5101 -0.7207 -0.0259
16198TIP3   OH270084   5.903   3.136  13.893  0.0893 -0.8028  0.3933
16198TIP3    H170085   5.853   3.099  13.966  0.8037  0.5325  1.5678
16198TIP3    H270086   5.977   3.180  13.934  1.4046 -1.4510 -1.2503
16199TIP3   OH270087   3.401   0.944   4.193  0.3213 -0.1289  0.2087
16199TIP3    H170088   3.372   0.900   4.114  1.0635 -1.1748  0.5150
16199TIP3    H270089   3.334   0.923   4.259  1.2768 -1.7940  0.6725
16200TIP3   OH270090   4.781   3.879  13.059 -0.4837 -0.0116  0.4782
16200TIP3    H170091   4.871   3.856  13.083  0.0974  1.2862 -0.3760
16200TIP3    H270092   4.731   3.870  13.140  0.9211  1.8073  1.5903
16201TIP3   OH270093   5.207   5.371  12.897  0.6371 -0.0605  0.4331
16201TIP3    H170094   5.136   5.433  12.913  1.8197  1.3819  0.2659
16201TIP3    H270095   5.204   5.311  12.972  0.0882  0.7939  1.1055
16202TIP3   OH270096   0.200   2.928   4.352  1.0357  0.4619 -0.5756
16202TIP3    H170097   0.109   2.957   4.343  1.4246  1.6688 -0.6484
16202TIP3    H270098   0.220   2.940   4.444  0.5249 -1.6154 -0.1718
16203TIP3   OH270099   0.054   1.739   2.204 -0.2100  0.7861 -0.1294
16203TIP3    H170100   0.092   1.662   2.246 -1.0161  0.2420 -0.4037
16203TIP3    H270101  -0.038   1.717   2.191 -0.3084  1.5533 -0.7744
16204TIP3   OH270102   4.377   0.741   3.363 -0.1256  0.0260  0.3114
16204TIP3    H170103   4.388   0.834   3.381 -1.1130  0.2881 -0.3782
16204TIP3    H270104   4.372   0.736   3.267  0.1319 -0.7600  0.3357
16205TIP3   OH270105   1.251   1.696   3.029 -0.0563  0.0247  0.2806
16205TIP3    H170106   1.304   1.746   3.091  2.2741 -2.6549  0.5713
16205TIP3    H270107   1.222   1.619   3.079  0.3078 -1.2362 -1.4061
16206TIP3   OH270108   4.541   3.823   4.014  0.2084 -0.3027  0.2456
16206TIP3    H170109   4.583   3.873   3.943 -0.6821  1.8339  1.1797
16206TIP3    H270110   4.501   3.748   3.970  0.0517  0.7536 -1.4573
16207TIP3   OH270111   5.976   2.055   4.659  0.0801  0.2773 -0.1738
16207TIP3    H170112   5.949   2.090   4.574 -2.4724  0.5381  0.7010
16207TIP3    H270113   6.052   2.107   4.683  0.5244  0.5411 -2.0734
16208TIP3   OH270114   0.086   2.018  11.838  0.1884 -0.1835  0.1988
16208TIP3    H170115   0.151   1.986  11.900  0.4665  0.0908  0.0500
16208TIP3    H270116   0.133   2.025  11.755  0.5788  2.2677  0.5967
16209TIP3   OH270117   4.525   0.104  15.399 -0.4042 -0.2145  0.1100
16209TIP3    H170118   4.453   0.055  15.439 -1.5492  1.1573 -0.2256
16209TIP3    H270119   4.581   0.037  15.361 -0.6286 -1.4051  1.8155
16210TIP3   OH270120   3.366   3.183  13.348  0.0426  0.5232  0.1122
16210TIP3    H170121   3.328   3.260  13.305  0.1188  0.2882 -0.3805
16210TIP3    H270122   3.444   3.163  13.297 -0.9639 -0.9817 -0.8889
16211TIP3   OH270123   5.686   4.754   1.054 -0.3521  0.4738  0.4376
16211TIP3    H170124   5.672   4.666   1.020 -0.3296 -0.2459  2.2685
16211TIP3    H270125   5.647   4.811   0.987  2.3897 -0.7215 -2.2935
16212TIP3   OH270126   3.488   3.025  11.047  0.3353 -0.4071 -0.3923
16212TIP3    H170127   3.554   3.087  11.078  0.9255 -1.1657 -0.1218
16212TIP3    H270128   3.534   2.968  10.985  0.0328 -1.1677  0.0676
16213TIP3   OH270129   0.439   4.292  15.694  0.1167 -0.4313 -0.3144
16213TIP3    H170130   0.362   4.257  15.739 -0.5398 -1.0368 -1.8555
16213TIP3    H270131   0.406   4.367  15.644  0.8641  0.3269  0.3206
16214TIP3   OH270132   4.422   4.010   1.479  0.6739  0.1299  0.8125
16214TIP3    H170133   4.359   3.992   1.409 -0.5476  0.5265  1.7883
16214TIP3    H270134   4.425   3.929   1.529 -1.1982  1.0136  2.4014
16215TIP3   OH270135   3.039   0.321  16.127  0.4081 -0.5289  0.0597
16215TIP3    H170136   3.022   0.377  16.051  1.9947  0.3337  0.3173
16215TIP3    H270137   3.060   0.383  16.197 -1.6608 -1.2851  1.3858
16216TIP3   OH270138   3.888   4.435   5.679  0.4775 -0.2910 -0.0397
16216TIP3    H170139   3.833   4.506   5.714 -0.1839 -0.1607 -1.3040
16216TIP3    H270140   3.963   4.432   5.738 -0.6134 -0.0838  1.3814
16217TIP3   OH270141   3.203   6.144  16.945  0.1450 -0.4181  0.3048
16217TIP3    H170142   3.243   6.200  17.012 -0.7001  0.8395 -0.2038
16217TIP3    H270143   3.177   6.065  16.992  1.4605 -0.4323  1.0277
16218TIP3   OH270144   1.492   3.904  12.913  0.3455 -0.2195 -0.1343
16218TIP3    H170145   1.413   3.852  12.925  0.1763 -0.1048 -0.7484
16218TIP3    H270146   1.549   3.850  12.858  0.8710 -0.4823  0.6497
16219TIP3   OH270147   5.439   5.723  13.610 -0.4859 -0.0626 -0.2886
16219TIP3    H170148   5.445   5.818  13.602  0.0063 -0.1762 -1.4247
16219TIP3    H270149   5.506   5.700  13.674 -1.4692  0.4778  0.9395
16220TIP3   OH270150   5.810   5.700   4.167  0.0426 -0.3015 -0.3412
16220TIP3    H170151   5.800   5.633   4.099 -1.9987 -1.6102  1.1900
16220TIP3    H270152   5.797   5.783   4.121  0.8276 -1.0354 -1.9320
16221TIP3   OH270153   4.404   3.340  16.231  0.1132 -0.4428 -0.1603
16221TIP3    H170154   4.487   3.301  16.256 -0.2365  0.3133  2.3789
16221TIP3    H270155   4.415   3.434  16.249 -1.3527 -0.3686  0.4047
16222TIP3   OH270156   0.924   3.257   1.405 -0.2911 -0.4643 -0.5191
16222TIP3    H170157   0.907   3.270   1.312 -1.8898  0.3467 -0.1260
16222TIP3    H270158   0.939   3.345   1.439 -0.5595 -0.6784  0.1551
16223TIP3   OH270159   6.543   1.320  15.861  0.1760  0.5733 -0.2450
16223TIP3    H170160   6.633   1.343  15.837  0.1838  0.3781 -0.3974
16223TIP3    H270161   6.508   1.274  15.785  0.5595 -1.0071  0.5192
16224TIP3   OH270162   5.758   0.202   0.269 -0.6000 -0.0740  0.5905
16224TIP3    H170163   5.707   0.150   0.207 -1.5962  2.1591 -0.5268
16224TIP3    H270164   5.849   0.174   0.256 -1.0955 -1.3151 -0.1870
16225TIP3   OH270165   1.857   1.181   5.856  0.3273 -0.0179 -0.2206
16225TIP3    H170166   1.927   1.246   5.852  0.9465 -0.5999  1.0218
16225TIP3    H270167   1.787   1.225   5.906  0.3872  0.0307 -0.1783
16226TIP3   OH270168   0.886   3.588  14.465  0.2374  0.2136  0.4138
16226TIP3    H170169   0.937   3.541  14.531 -0.4308 -1.2174 -0.0660
16226TIP3    H270170   0.878   3.677  14.500  0.6855 -0.2747  1.8092
16227TIP3   OH270171   0.247   1.176   3.357 -0.1771 -0.3729 -0.3708
16227TIP3    H170172   0.235   1.257   3.307  0.1419  0.0164  0.1741
16227TIP3    H270173   0.341   1.159   3.352 -0.3468 -1.1157 -1.1010
16228TIP3   OH270174   2.113   5.055   5.941  0.2836 -0.3172  0.1609
16228TIP3    H170175   2.076   5.075   5.855  2.7762 -0.2467 -0.9150
16228TIP3    H270176   2.077   5.123   5.999  0.3243  0.9414 -1.2769
16229TIP3   OH270177   2.464   0.757   6.009  0.4367  0.3238 -0.1657
16229TIP3    H170178   2.428   0.841   5.982 -0.6101 -0.2247 -0.5108
16229TIP3    H270179   2.478   0.709   5.927  1.2010  0.2324  0.0154
16230TIP3   OH270180   0.863   5.410  15.143 -0.7677  0.1439 -0.2797
16230TIP3    H170181   0.883   5.495  15.103 -0.5760  0.2992  0.1413
16230TIP3    H270182   0.904   5.346  15.085 -1.6517  0.2810 -1.0844
16231TIP3   OH270183   0.720   4.555   2.215 -0.5015 -0.6938  0.5766
16231TIP3    H170184   0.648   4.556   2.278 -0.7068 -0.6591  0.3431
16231TIP3    H270185   0.796   4.524   2.265 -0.3618  0.5517  1.1612
16232TIP3   OH270186   6.666   5.895   4.612 -0.3270  0.3268 -0.3970
16232TIP3    H170187   6.698   5.971   4.662 -2.2487  0.4887  0.6328
16232TIP3    H270188   6.638   5.832   4.679 -0.5440 -0.5104 -1.2627
16233TIP3   OH270189   5.976   5.253   1.326 -0.4841  0.1223  0.3297
16233TIP3    H170190   5.996   5.159   1.334  1.0265  0.3389 -0.6736
16233TIP3    H270191   5.938   5.276   1.410  0.2893 -1.1240  1.0490
16234TIP3   OH270192   3.806   3.846   5.415 -0.1286 -0.8006  0.3555
16234TIP3    H170193   3.787   3.756   5.441  1.1477 -1.1556  0.1019
16234TIP3    H270194   3.871   3.876   5.478 -0.9178  0.1310  0.7527
16235TIP3   OH270195   6.147   6.355  15.115  0.2874  0.0835 -0.1335
16235TIP3    H170196   6.231   6.313  15.098  0.4546  0.0262  0.8056
16235TIP3    H270197   6.166   6.419  15.184 -0.8352 -1.3086  1.4996
16236TIP3   OH270198   4.190   6.707  12.502  0.0944 -0.0821 -0.6246
16236TIP3    H170199   4.104   6.722  12.464  0.6337  0.7779 -1.5068
16236TIP3    H270200   4.246   6.773  12.462  0.6551  0.9189  1.7426
16237TIP3   OH270201   0.169   2.726  12.051  0.2070 -0.1673  0.5315
16237TIP3    H170202   0.154   2.762  11.964 -0.7054  2.1223  1.5850
16237TIP3    H270203   0.086   2.684  12.075  0.7349 -1.5431 -0.0385
16238TIP3   OH270204   6.622   0.478  16.781  0.8968  0.8447  0.6154
16238TIP3    H170205   6.687   0.543  16.810  1.2619  0.9347 -0.3602
16238TIP3    H270206   6.654   0.395  16.816  1.3097  0.9542  0.5035
16239TIP3   OH270207   6.124   3.650   1.406  0.1048 -0.0075  0.5602
16239TIP3    H170208   6.059   3.586   1.436  0.1804 -0.6342 -0.6023
16239TIP3    H270209   6.194   3.645   1.471  1.8030 -3.7292 -1.3838
16240TIP3   OH270210   3.733   3.766   2.823  0.3859 -0.1339 -0.2117
16240TIP3    H170211   3.740   3.764   2.918  0.6632 -0.4043 -0.2387
16240TIP3    H270212   3.705   3.856   2.804 -1.6749 -0.6704  0.2456
16241TIP3   OH270213   1.860   3.885   2.090 -0.2274 -0.1259 -0.4755
16241TIP3    H170214   1.893   3.807   2.135 -2.6881 -0.0543  1.5563
16241TIP3    H270215   1.891   3.958   2.142 -1.9542  0.0183  0.3783
16242TIP3   OH270216   3.394   1.212   0.680 -0.0238 -0.1610  0.0536
16242TIP3    H170217   3.429   1.208   0.591  1.8358 -0.2069  0.7688
16242TIP3    H270218   3.408   1.124   0.716 -0.1719  0.0354  0.5964
16243TIP3   OH270219   6.602   0.273   2.037  0.0760  0.6235  0.7417
16243TIP3    H170220   6.653   0.261   2.118  2.4630  0.4267 -0.7428
16243TIP3    H270221   6.524   0.321   2.065 -0.4082 -1.6827  3.5862
16244TIP3   OH270222   2.659   6.370   4.661  0.2420  0.2271 -0.3753
16244TIP3    H170223   2.606   6.316   4.602 -0.2457  0.8814 -0.5561
16244TIP3    H270224   2.649   6.330   4.747 -0.3727  0.2073 -0.4527
16245TIP3   OH270225   0.031   4.429  11.317  0.4120 -0.2604 -0.6144
16245TIP3    H170226   0.010   4.463  11.404  3.7236  0.9306 -0.1907
16245TIP3    H270227   0.053   4.337  11.332 -0.8667 -0.5581 -0.5104
16246TIP3   OH270228   2.085   5.870   1.146  0.7583  0.5895 -0.0142
16246TIP3    H170229   2.045   5.845   1.063 -0.1028  1.1804  0.2175
16246TIP3    H270230   2.012   5.875   1.207  1.4779 -0.6419  0.9879
16247TIP3   OH270231   6.509   1.166  16.757  0.1372 -0.9950  0.1022
16247TIP3    H170232   6.476   1.248  16.792  1.3255 -0.6955  0.5446
16247TIP3    H270233   6.444   1.139  16.692 -0.5085  0.0297  0.3211
16248TIP3   OH270234   1.339   1.307  13.345  0.4749  0.2353  0.1097
16248TIP3    H170235   1.327   1.300  13.250  2.4268  0.6115 -0.1880
16248TIP3    H270236   1.378   1.224  13.371 -0.4303 -0.0254  0.6588
16249TIP3   OH270237   3.882   5.088  16.773  0.1616  0.1448  0.1340
16249TIP3    H170238   3.910   5.114  16.685 -1.7628  0.2431 -0.4571
16249TIP3    H270239   3.947   5.128  16.831  0.2076  1.9133 -1.1004
16250TIP3   OH270240   5.445   4.858  15.479 -0.0718 -0.0414  0.7779
16250TIP3    H170241   5.427   4.764  15.479 -0.5994  0.0565  0.1348
16250TIP3    H270242   5.438   4.884  15.387  2.9138  0.0947  0.5298
16251TIP3   OH270243   4.268   5.453   3.557  0.1761 -0.0274  0.1003
16251TIP3    H170244   4.235   5.508   3.486  0.0604  1.9792  1.6630
16251TIP3    H270245   4.248   5.502   3.637  1.3146 -1.7139  1.4610
16252TIP3   OH270246   5.692   4.662  14.638  0.3987 -0.2824 -0.3852
16252TIP3    H170247   5.639   4.608  14.579 -0.0334  1.3499 -1.5327
16252TIP3    H270248   5.783   4.639  14.616  0.1971 -1.4748  0.0309
16253TIP3   OH270249   3.654   6.657   1.543 -0.6043 -0.2058  0.2931
16253TIP3    H170250   3.568   6.634   1.507 -0.5765 -1.6796  1.1027
16253TIP3    H270251   3.636   6.676   1.635 -0.1667  0.1846  0.2990
16254TIP3   OH270252   1.138   2.467   5.587 -0.0517  0.6264 -0.2541
16254TIP3    H170253   1.080   2.392   5.578  0.5610  0.0032  0.8196
16254TIP3    H270254   1.103   2.533   5.527 -1.4830  0.0344 -0.0672
16255TIP3   OH270255   0.805   0.767  13.635 -0.9430  0.3855  0.1699
16255TIP3    H170256   0.792   0.861  13.621  0.6686  0.5579 -0.3380
16255TIP3    H270257   0.819   0.758  13.729  1.1957  0.9936 -0.0527
16256TIP3   OH270258   2.647   5.201  16.380  0.2209 -0.6478 -0.6262
16256TIP3    H170259   2.566   5.177  16.336  0.3821 -0.2343 -1.1470
16256TIP3    H270260   2.641   5.296  16.394  1.1982 -0.3825 -1.8864
16257TIP3   OH270261   3.970   4.129  12.266 -0.1337  0.0211 -0.7390
16257TIP3    H170262   4.038   4.128  12.334 -0.4712  2.4873 -0.3338
16257TIP3    H270263   4.006   4.185  12.197 -1.3907  0.6634 -0.8901
16258TIP3   OH270264   3.988   2.724   3.299 -0.1754  0.6522 -0.4455
16258TIP3    H170265   3.972   2.649   3.243 -0.6981  0.5944 -0.2244
16258TIP3    H270266   4.083   2.724   3.314 -0.2227 -0.1565 -0.1636
16259TIP3   OH270267   6.052   5.345   3.707 -0.1860 -0.2789 -0.0948
16259TIP3    H170268   5.999   5.281   3.754 -1.7136  0.5754 -0.6100
16259TIP3    H270269   6.014   5.349   3.620 -0.4117  1.6376  0.0588
16260TIP3   OH270270   2.777   1.374   0.877 -0.0093  0.1174 -0.1565
16260TIP3    H170271   2.853   1.325   0.846 -0.6271 -0.0245 -1.4761
16260TIP3    H270272   2.716   1.307   0.909 -0.5416  0.0698 -1.2623
16261TIP3   OH270273   3.820   6.496   3.841  0.2528 -0.1653 -0.0355
16261TIP3    H170274   3.859   6.559   3.780  1.6923  0.6283  1.6723
16261TIP3    H270275   3.788   6.549   3.914 -2.7842 -0.9556 -0.7053
16262TIP3   OH270276   1.526   4.979   3.415  0.3342 -0.2021  0.4045
16262TIP3    H170277   1.490   5.068   3.416 -1.6708 -0.9785  0.0796
16262TIP3    H270278   1.467   4.929   3.471  1.7576 -1.2269  1.0027
16263TIP3   OH270279   0.556   6.156   3.267  0.4122 -0.3673 -0.7776
16263TIP3    H170280   0.517   6.159   3.180  2.0155  2.1140 -1.4636
16263TIP3    H270281   0.574   6.063   3.282 -0.1632 -0.8553 -2.9675
16264TIP3   OH270282   5.840   1.544   4.298  0.4683  0.1767 -0.1439
16264TIP3    H170283   5.754   1.510   4.322 -0.3347  2.0763 -0.2268
16264TIP3    H270284   5.863   1.498   4.217 -1.3316  1.0178 -1.1569
16265TIP3   OH270285   5.035   1.432   3.274 -0.3613 -0.2088  0.8872
16265TIP3    H170286   5.115   1.467   3.235  0.4604 -0.5522  2.2465
16265TIP3    H270287   5.063   1.352   3.319 -1.6251 -0.8086  0.6466
16266TIP3   OH270288   0.664   0.423  14.036  0.4336 -0.0382  0.3625
16266TIP3    H170289   0.758   0.405  14.023  0.6582  0.1909  1.5525
16266TIP3    H270290   0.663   0.498  14.096 -0.5154  0.9455 -0.8806
16267TIP3   OH270291   0.299   6.234   6.044  0.0955 -0.6419 -0.0683
16267TIP3    H170292   0.371   6.297   6.034 -1.8276  2.0848  2.2107
16267TIP3    H270293   0.255   6.262   6.124 -2.3445 -3.4375 -0.3746
16268TIP3   OH270294   0.248   0.430   1.999 -0.0739 -0.5640  0.3598
16268TIP3    H170295   0.177   0.426   2.063  1.0323 -0.9768  1.5967
16268TIP3    H270296   0.231   0.509   1.948 -0.5718  0.1870  1.6714
16269TIP3   OH270297   5.949   3.585   5.855  0.5660  0.1625  0.2159
16269TIP3    H170298   5.985   3.624   5.935 -0.9890  1.9202  0.1080
16269TIP3    H270299   5.986   3.639   5.784 -1.1482  1.1040  0.0214
16270TIP3   OH270300   0.942   3.517   1.443 -0.0011  0.3962  0.2189
16270TIP3    H170301   0.877   3.579   1.410 -0.7551 -0.1090  0.7313
16270TIP3    H270302   1.025   3.548   1.407 -1.0185 -1.1949 -3.7523
16271TIP3   OH270303   3.353   4.177   4.945 -0.2669  0.3055 -0.0072
16271TIP3    H170304   3.296   4.122   4.999  0.3327 -2.3076 -1.9619
16271TIP3    H270305   3.293   4.217   4.881 -0.0394 -2.1234 -1.8045
16272TIP3   OH270306   4.058   4.764   5.647  0.6483  0.0367 -0.9092
16272TIP3    H170307   3.965   4.755   5.666  0.6553  1.0095 -0.3941
16272TIP3    H270308   4.069   4.725   5.560 -0.5168  1.3000 -1.6393
16273TIP3   OH270309   2.867   6.093   1.091 -0.9348 -0.1295  0.5878
16273TIP3    H170310   2.821   6.064   1.012  0.6033 -0.1722 -0.3195
16273TIP3    H270311   2.874   6.188   1.081 -2.2291  0.0720  1.5049
16274TIP3   OH270312   6.555   3.183  13.157 -0.2838 -0.0105  0.2843
16274TIP3    H170313   6.558   3.269  13.198  0.6439 -0.6784  1.6634
16274TIP3    H270314   6.615   3.190  13.082 -1.0625  0.8638 -0.2569
16275TIP3   OH270315   6.174   3.941   4.078  0.1619 -0.4931  0.2463
16275TIP3    H170316   6.214   3.974   3.998 -2.7079  0.3067 -0.9349
16275TIP3    H270317   6.157   4.020   4.131  1.9314 -1.0038  1.6223
16276TIP3   OH270318   0.952   1.784   2.210  0.2173 -0.0484 -0.0818
16276TIP3    H170319   0.914   1.730   2.141 -0.8368  1.1601 -0.4672
16276TIP3    H270320   0.974   1.867   2.167 -0.8701  0.8755  1.1004
16277TIP3   OH270321   5.799   4.842  10.176  0.1478 -0.4216  0.4186
16277TIP3    H170322   5.891   4.826  10.155  0.1696  0.9354 -0.5811
16277TIP3    H270323   5.786   4.935  10.159 -2.1813 -1.2184 -2.5210
16278TIP3   OH270324   1.043   1.720  14.998 -0.2103 -0.0987  0.5835
16278TIP3    H170325   1.012   1.665  14.926 -0.8912  1.0410 -0.0256
16278TIP3    H270326   1.137   1.727  14.984 -0.5354  1.3455 -1.1063
16279TIP3   OH270327   4.081   5.790  15.747  0.2884  0.2360 -0.1218
16279TIP3    H170328   4.110   5.862  15.691 -1.3893 -0.5542 -2.0879
16279TIP3    H270329   4.032   5.833  15.817  0.4202  1.1076 -0.5567
16280TIP3   OH270330   6.797   3.848   0.664 -0.0382 -0.4865 -0.2449
16280TIP3    H170331   6.793   3.926   0.719  1.4824 -0.3917 -0.2586
16280TIP3    H270332   6.798   3.881   0.574 -0.1879 -0.5505 -0.2705
16281TIP3   OH270333   3.362   4.221  13.940 -0.1273  0.3108 -0.2734
16281TIP3    H170334   3.312   4.219  13.858  2.0428 -3.3020 -1.6002
16281TIP3    H270335   3.308   4.172  14.002 -0.2906  0.2851 -0.4315
16282TIP3   OH270336   0.115   6.715  11.332  0.3421  0.0024 -0.4013
16282TIP3    H170337   0.198   6.751  11.364  0.4101  0.7594 -1.4314
16282TIP3    H270338   0.140   6.631  11.292  0.2970 -0.8188  1.2479
16283TIP3   OH270339   6.221   5.936  14.969  0.8349  0.5007 -0.3700
16283TIP3    H170340   6.136   5.906  15.002  2.3626 -4.8022 -0.8974
16283TIP3    H270341   6.208   5.945  14.875  1.1291 -1.6611 -0.6514
16284TIP3   OH270342   5.457   3.688   2.391 -0.3197  0.0109 -0.1199
16284TIP3    H170343   5.432   3.645   2.472  1.2443 -1.6292 -0.4951
16284TIP3    H270344   5.501   3.768   2.419  0.5267 -0.7249  0.6465
16285TIP3   OH270345   1.123   5.412   5.369 -0.0128  0.4224 -0.3073
16285TIP3    H170346   1.035   5.435   5.398 -0.1012  1.3959 -1.3004
16285TIP3    H270347   1.170   5.389   5.449 -1.9838 -2.9745 -0.0411
16286TIP3   OH270348   2.172   0.083  15.206 -0.2252 -0.6509  0.5334
16286TIP3    H170349   2.196   0.031  15.129  2.0618 -0.6480  1.2297
16286TIP3    H270350   2.124   0.021  15.262 -0.5634 -1.0559 -0.1888
16287TIP3   OH270351   6.642   2.850   5.931  0.1097 -0.3962 -0.8079
16287TIP3    H170352   6.689   2.932   5.917 -0.1021 -0.4598 -1.9878
16287TIP3    H270353   6.584   2.842   5.855 -1.1563 -0.7703  0.1783
16288TIP3   OH270354   5.443   2.244   2.205  0.2346  0.1303  0.3054
16288TIP3    H170355   5.420   2.337   2.199  2.2540  0.5780 -0.9158
16288TIP3    H270356   5.503   2.239   2.280 -1.8885 -0.6623  2.0349
16289TIP3   OH270357   0.679   1.287   2.981 -0.5398  0.1002 -0.2728
16289TIP3    H170358   0.749   1.305   3.044 -0.7660  0.8210 -0.2166
16289TIP3    H270359   0.600   1.322   3.023 -0.8059 -0.0271 -0.6660
16290TIP3   OH270360   6.493   0.014   4.986 -0.5526  0.1350  0.0177
16290TIP3    H170361   6.575  -0.011   5.027 -0.2154 -1.2903 -1.5030
16290TIP3    H270362   6.444   0.059   5.056  0.9402 -0.1999  1.2991
16291TIP3   OH270363   6.155   1.711  16.881  0.3398  0.1045  0.5889
16291TIP3    H170364   6.243   1.675  16.869 -0.3113 -0.9977 -1.0129
16291TIP3    H270365   6.100   1.661  16.821 -0.8969  2.6678 -0.4518
16292TIP3   OH270366   5.017   6.737  14.870 -0.1240  0.2992  0.0579
16292TIP3    H170367   5.066   6.656  14.883 -0.7090 -0.0868 -0.1185
16292TIP3    H270368   5.022   6.754  14.776 -1.7965 -0.6904 -0.2310
16293TIP3   OH270369   0.191   5.645  11.599  0.4117  0.8394 -0.0959
16293TIP3    H170370   0.128   5.591  11.646  0.4687  1.3920  0.6236
16293TIP3    H270371   0.190   5.611  11.509 -0.7696  0.7366 -0.0448
16294TIP3   OH270372   0.238   5.884   5.395 -0.3237  0.2613 -0.3546
16294TIP3    H170373   0.230   5.966   5.347 -2.4602  0.0225 -0.4276
16294TIP3    H270374   0.183   5.822   5.348 -2.0875 -0.1143  2.0584
16295TIP3   OH270375   3.969   4.404  13.181  0.1390 -0.0232 -0.5627
16295TIP3    H170376   3.903   4.350  13.225 -0.8290 -0.5146 -2.6094
16295TIP3    H270377   4.020   4.441  13.253 -2.1697  0.1474  1.0331
16296TIP3   OH270378   5.539   5.445   1.786  0.0208 -0.1196  0.1543
16296TIP3    H170379   5.625   5.442   1.828  0.2481  0.6174 -0.2540
16296TIP3    H270380   5.558   5.427   1.693 -0.4208 -1.2807  0.2825
16297TIP3   OH270381   0.346   1.955  16.560 -0.0820 -0.1459  0.5715
16297TIP3    H170382   0.278   1.894  16.530  0.3598 -0.5187  0.3120
16297TIP3    H270383   0.351   1.941  16.654 -0.5428  0.0606  0.6246
16298TIP3   OH270384   3.999   0.189  11.212  0.0497  0.1781 -0.4981
16298TIP3    H170385   4.022   0.269  11.164 -0.2518  0.0900 -0.7891
16298TIP3    H270386   3.968   0.220  11.297 -1.5438  0.4521 -1.1799
16299TIP3   OH270387   2.060   3.910   2.888 -0.3028 -0.2729  0.0402
16299TIP3    H170388   1.982   3.895   2.942  0.4059  0.2669  1.2293
16299TIP3    H270389   2.028   3.904   2.798 -1.7162 -0.0988  0.5135
16300TIP3   OH270390   2.065   1.914  12.267 -0.4967 -0.0564 -0.0835
16300TIP3    H170391   2.046   1.907  12.173 -2.2086  0.9012  0.1673
16300TIP3    H270392   2.141   1.857  12.280 -1.0486 -1.2408 -1.8179
16301TIP3   OH270393   4.768   3.877  12.788 -0.3111 -0.1420  0.0947
16301TIP3    H170394   4.717   3.958  12.778 -0.7060 -0.4796 -0.6882
16301TIP3    H270395   4.757   3.853  12.880 -2.2485 -0.6528 -0.2431
16302TIP3   OH270396   5.408   0.025  13.788  0.6935 -0.0694  0.0475
16302TIP3    H170397   5.453  -0.021  13.717  1.4905  0.7996 -0.0139
16302TIP3    H270398   5.342   0.079  13.744  0.0362 -0.8271  0.0908
16303TIP3   OH270399   1.863   5.080   5.805 -0.0573  0.4702  0.1218
16303TIP3    H170400   1.860   5.005   5.745 -0.2757  0.1064  0.5875
16303TIP3    H270401   1.783   5.130   5.785  0.0601  0.5514 -0.1492
16304TIP3   OH270402   5.282   6.759   3.365  0.5217  0.4572  0.0937
16304TIP3    H170403   5.332   6.833   3.331  0.3063  0.4861 -0.1610
16304TIP3    H270404   5.203   6.756   3.311  1.9765 -1.9196 -2.0238
16305TIP3   OH270405   4.743   2.916   4.462 -0.0615  0.6182 -0.2368
16305TIP3    H170406   4.743   2.931   4.556  0.0530  0.9234 -0.2859
16305TIP3    H270407   4.817   2.966   4.429 -0.0100  0.3920 -0.4705
16306TIP3   OH270408   5.872   3.454   0.557 -0.3874  0.1346 -0.1605
16306TIP3    H170409   5.863   3.505   0.476  1.0049 -1.4645 -1.3632
16306TIP3    H270410   5.883   3.520   0.625 -1.6285  1.5173 -1.2565
16307TIP3   OH270411   4.297   6.730  14.523  0.2581  0.0695  0.1199
16307TIP3    H170412   4.263   6.689  14.603  0.1854  1.0123  0.5861
16307TIP3    H270413   4.289   6.824  14.540 -4.4187  0.4054 -2.9399
16308TIP3   OH270414   2.377   3.133  16.703  0.5596 -0.4708  0.1388
16308TIP3    H170415   2.397   3.043  16.677  0.9005 -0.6523  0.9926
16308TIP3    H270416   2.331   3.170  16.628 -0.2173 -1.5740  0.0547
16309TIP3   OH270417   6.096   3.497  17.217  0.1145 -0.1810  0.2767
16309TIP3    H170418   6.136   3.435  17.278  1.3366 -1.5000 -1.8043
16309TIP3    H270419   6.165   3.562  17.201  0.0335 -0.2281 -0.2534
16310TIP3   OH270420   5.640   6.291   4.411 -0.5615  0.5190 -0.4824
16310TIP3    H170421   5.628   6.320   4.321  1.5641  0.3300 -0.8600
16310TIP3    H270422   5.682   6.365   4.455 -0.5699  0.1950  0.0756
16311TIP3   OH270423   1.476   1.126   6.109 -0.0170 -0.7769 -0.0656
16311TIP3    H170424   1.453   1.100   6.198 -3.2892 -1.0619 -0.9344
16311TIP3    H270425   1.400   1.174   6.077  2.5697  2.5805 -1.4713
16312TIP3   OH270426   2.313   6.427   3.876 -0.4092  0.2407 -0.3009
16312TIP3    H170427   2.386   6.410   3.935  0.6707  1.5594 -1.2503
16312TIP3    H270428   2.301   6.345   3.829 -0.7186 -0.5484  1.1240
16313TIP3   OH270429   6.496   0.107  16.163  0.4971 -0.2973  0.0318
16313TIP3    H170430   6.511   0.027  16.214  0.8591  0.0526  0.4753
16313TIP3    H270431   6.402   0.106  16.144  0.1979  0.0272  1.4747
16314TIP3   OH270432   1.779   2.735   4.388  0.5162 -0.3408 -0.4843
16314TIP3    H170433   1.709   2.676   4.359  1.8322 -1.1364 -2.1032
16314TIP3    H270434   1.798   2.707   4.477 -0.3106 -0.9829 -0.4989
16315TIP3   OH270435   2.994   1.086   5.359  0.3543 -0.2760 -0.0815
16315TIP3    H170436   2.906   1.056   5.383  0.0760 -1.5333 -2.5612
16315TIP3    H270437   3.010   1.161   5.416 -2.1671 -0.2756  0.6800
16316TIP3   OH270438   0.783   5.484  10.659 -0.0588 -0.3662  0.0889
16316TIP3    H170439   0.841   5.511  10.588 -1.5108  1.1378 -0.5650
16316TIP3    H270440   0.767   5.391  10.644  1.6932 -0.6563 -0.0554
16317TIP3   OH270441   4.600   6.436   5.138 -0.2682 -0.4208 -0.2200
16317TIP3    H170442   4.507   6.446   5.116 -1.0235  1.1511  3.3907
16317TIP3    H270443   4.608   6.348   5.174 -0.3421 -0.4994 -0.3918
16318TIP3   OH270444   0.674   3.074  16.649  0.0698  0.0387 -0.0969
16318TIP3    H170445   0.657   2.981  16.638 -1.4954  0.4731 -1.5447
16318TIP3    H270446   0.742   3.094  16.585  0.8629 -0.2338  0.6608
16319TIP3   OH270447   0.047   6.716   0.968  0.0975  0.3452  0.2459
16319TIP3    H170448   0.040   6.727   1.063  0.3968 -0.4392  0.3641
16319TIP3    H270449   0.087   6.630   0.957  2.2540  1.4230 -0.5563
16320TIP3   OH270450   6.267   6.323  12.161  0.7506  0.0094 -0.5533
16320TIP3    H170451   6.191   6.325  12.102  1.1058  2.1691 -0.9926
16320TIP3    H270452   6.237   6.371  12.238  0.4924 -2.2756  0.8089
16321TIP3   OH270453   3.302   3.694  16.192 -0.3364  0.0966 -0.2177
16321TIP3    H170454   3.241   3.765  16.172  0.1255  0.8917  1.1304
16321TIP3    H270455   3.370   3.701  16.125  1.2815  2.8322  1.6309
16322TIP3   OH270456   1.426   6.521  12.372 -0.3406  0.3196  0.0677
16322TIP3    H170457   1.511   6.557  12.348 -1.1245  1.4809 -1.0543
16322TIP3    H270458   1.416   6.442  12.319  0.3995 -0.2930  0.8353
16323TIP3   OH270459   4.988   6.108   1.104 -0.4855 -0.0760  0.2850
16323TIP3    H170460   4.941   6.188   1.078  1.6336  1.1005 -0.0158
16323TIP3    H270461   4.927   6.037   1.082 -1.9114  1.3680 -0.5922
16324TIP3   OH270462   0.289   6.011  12.831 -0.0787 -0.4182  0.1853
16324TIP3    H170463   0.309   6.077  12.897  0.5968 -1.1500  0.7347
16324TIP3    H270464   0.300   6.056  12.748 -0.0422  0.2772  0.5604
16325TIP3   OH270465   4.293   2.190  13.317  0.1479 -0.1475  0.1879
16325TIP3    H170466   4.286   2.173  13.411  0.2578  0.7403  0.3571
16325TIP3    H270467   4.369   2.140  13.289  0.1233 -0.4011  0.5750
16326TIP3   OH270468   0.784   2.614   0.344  0.0984 -0.1721 -0.2133
16326TIP3    H170469   0.853   2.648   0.401 -2.2208  1.2770  1.8367
16326TIP3    H270470   0.771   2.524   0.373  0.0703  0.0426  0.4502
16327TIP3   OH270471   1.103   0.241  12.817  0.4295  0.1069 -0.2741
16327TIP3    H170472   1.097   0.291  12.898 -0.8089 -1.2979  0.5383
16327TIP3    H270473   1.191   0.204  12.817  0.5819  0.4752  0.2186
16328TIP3   OH270474   4.733   3.214  11.716  0.5584  0.2758 -0.0073
16328TIP3    H170475   4.675   3.277  11.760  2.3110 -0.3098  3.2074
16328TIP3    H270476   4.692   3.129  11.731  0.7829  0.1386 -0.1772
16329TIP3   OH270477   2.492   5.881   5.528  0.4509 -0.5175 -0.3714
16329TIP3    H170478   2.562   5.931   5.569 -0.8375 -0.1792  1.5123
16329TIP3    H270479   2.505   5.892   5.434  2.1391  0.6003 -0.0123
16330TIP3   OH270480   3.760   1.018  15.833 -0.1962 -0.0977 -0.0666
16330TIP3    H170481   3.777   1.004  15.740  1.3955  0.3198  0.1543
16330TIP3    H270482   3.763   0.930  15.871  1.6396 -0.0281 -0.0197
16331TIP3   OH270483   5.493   0.831   3.902  0.0066  0.8716  0.2290
16331TIP3    H170484   5.513   0.910   3.852  1.1950  0.5468  0.1818
16331TIP3    H270485   5.498   0.760   3.839  0.4753  0.5834  0.5827
16332TIP3   OH270486   0.320   3.931   0.122  0.6837  0.5228 -0.3790
16332TIP3    H170487   0.398   3.885   0.090  0.2042 -0.8540  0.3945
16332TIP3    H270488   0.335   3.939   0.216 -0.6346 -0.7413 -0.0674
16333TIP3   OH270489   0.540   5.099   2.639  0.3353 -0.1540 -0.5273
16333TIP3    H170490   0.493   5.169   2.593 -1.2705 -1.0697 -0.3148
16333TIP3    H270491   0.564   5.137   2.724  0.6994  0.5855 -0.9640
16334TIP3   OH270492   0.978   3.565  16.456  0.4335 -0.1137  0.3098
16334TIP3    H170493   0.993   3.622  16.531  0.5052  0.0404  0.1812
16334TIP3    H270494   1.060   3.516  16.446 -0.1769 -1.3707  1.3752
16335TIP3   OH270495   3.574   0.347  14.194 -0.0308  0.3117 -0.3778
16335TIP3    H170496   3.585   0.364  14.287  0.2229  1.2014 -0.5633
16335TIP3    H270497   3.663   0.341  14.160 -0.0882  2.1648 -0.9341
16336TIP3   OH270498   6.761   2.499  13.371  0.0133 -0.0371 -0.1913
16336TIP3    H170499   6.740   2.591  13.355  0.2115  0.2727  1.2453
16336TIP3    H270500   6.780   2.464  13.284 -1.4733  0.9086 -0.9356
16337TIP3   OH270501   3.000   3.048  13.178 -0.5478  0.6699 -0.1536
16337TIP3    H170502   2.916   3.022  13.140  0.4557 -0.7343 -1.4809
16337TIP3    H270503   3.048   2.966  13.189  0.6919  1.4656  0.4953
16338TIP3   OH270504   3.786   2.228   4.031 -0.0993 -0.0036  0.5408
16338TIP3    H170505   3.833   2.307   4.004  0.0774  0.3620  1.8925
16338TIP3    H270506   3.810   2.163   3.965 -1.0626  1.3397 -1.1682
16339TIP3   OH270507   0.325   1.161   4.450 -0.3765 -0.1181 -0.3649
16339TIP3    H170508   0.274   1.081   4.460  0.2096 -0.4315  0.1222
16339TIP3    H270509   0.359   1.179   4.538 -1.1939  1.1278 -0.2909
16340TIP3   OH270510   4.566   0.989   4.616 -0.7667 -0.2207  0.0674
16340TIP3    H170511   4.648   0.993   4.665 -0.9597 -0.4160  0.4071
16340TIP3    H270512   4.502   1.031   4.673 -0.5080  1.6877 -1.0049
16341TIP3   OH270513   1.957   1.197  15.101 -0.0206  0.7677  0.0027
16341TIP3    H170514   1.901   1.274  15.113 -1.2131  0.3876 -2.7787
16341TIP3    H270515   1.897   1.127  15.076  1.2085 -0.7924  1.3243
16342TIP3   OH270516   2.369   0.924  12.710 -0.4192 -0.4501 -0.9739
16342TIP3    H170517   2.433   0.875  12.657  0.4541  1.2651 -1.5638
16342TIP3    H270518   2.418   1.001  12.741 -1.0171 -1.2153  2.0516
16343TIP3   OH270519   4.891   4.459  11.516  0.2113 -0.0523 -0.2342
16343TIP3    H170520   4.977   4.500  11.500  0.6859  0.1536  2.5427
16343TIP3    H270521   4.881   4.396  11.445  2.2084  0.6622 -1.1983
16344TIP3   OH270522   6.054   4.553   0.646  0.3104 -0.4013  0.0051
16344TIP3    H170523   6.058   4.458   0.642 -0.1829 -0.3786 -1.2229
16344TIP3    H270524   6.058   4.582   0.555 -0.8154  0.6913  0.2840
16345TIP3   OH270525   3.828   1.056   5.774 -0.1307  0.5577  0.3072
16345TIP3    H170526   3.829   1.005   5.855 -0.9274 -1.0302 -0.6513
16345TIP3    H270527   3.887   1.009   5.715 -1.5325  0.2493 -0.8694
16346TIP3   OH270528   6.145   2.120   1.067 -0.2611  0.4359 -0.7461
16346TIP3    H170529   6.160   2.177   0.992  2.4737  2.8278  1.5027
16346TIP3    H270530   6.058   2.143   1.099  0.3755  2.6293 -0.5308
16347TIP3   OH270531   4.974   1.165   4.134 -0.7808  0.1591  0.2067
16347TIP3    H170532   4.957   1.073   4.112  0.3839  0.1254 -0.5815
16347TIP3    H270533   4.891   1.209   4.115 -1.6975 -0.8980  1.6504
16348TIP3   OH270534   1.370   5.440  14.295  0.2979  0.4643 -0.1939
16348TIP3    H170535   1.454   5.459  14.338  1.8395  1.5655 -3.5854
16348TIP3    H270536   1.368   5.345  14.288  0.5102  0.3312  1.2883
16349TIP3   OH270537   6.596   2.046   1.539 -0.1238  0.5547 -0.2779
16349TIP3    H170538   6.591   2.066   1.446 -0.2106  0.5513 -0.2742
16349TIP3    H270539   6.509   2.014   1.562 -0.1498  0.7080 -0.1597
16350TIP3   OH270540   0.194   5.739  14.286  0.4813 -0.4473 -0.0481
16350TIP3    H170541   0.250   5.679  14.237  1.4696  0.6423 -0.2521
16350TIP3    H270542   0.248   5.768  14.359 -0.8165 -1.6749  1.4370
16351TIP3   OH270543   5.825   5.175  14.972  0.2536  0.2360  0.1914
16351TIP3    H170544   5.750   5.161  15.029 -0.4910  3.0469 -0.0293
16351TIP3    H270545   5.799   5.139  14.887  0.0433 -0.8254  0.7029
16352TIP3   OH270546   3.249   2.768   2.295  0.0742  0.0384  0.4853
16352TIP3    H170547   3.188   2.757   2.368  1.2149  0.5749  1.5366
16352TIP3    H270548   3.212   2.714   2.224 -1.9010  0.7969  0.9115
16353TIP3   OH270549   0.924   5.087  12.432 -0.0685  0.1881  0.1301
16353TIP3    H170550   0.906   5.157  12.369 -0.7968 -0.4778 -0.3962
16353TIP3    H270551   1.006   5.113  12.473  1.1938 -0.1317 -2.1378
16354TIP3   OH270552   5.346   3.597   0.391  0.1433  0.0265  0.0918
16354TIP3    H170553   5.434   3.575   0.422  0.5417 -0.6563 -1.4403
16354TIP3    H270554   5.323   3.677   0.438  1.1314 -0.3967  1.3229
16355TIP3   OH270555   2.030   3.010  13.156 -0.6987 -0.0936  0.3203
16355TIP3    H170556   2.070   3.048  13.234  2.4906 -0.6607 -0.9797
16355TIP3    H270557   2.031   2.915  13.172 -0.5553 -0.1779 -0.1802
16356TIP3   OH270558   6.378   0.170  14.102  0.1452 -0.9221 -0.6905
16356TIP3    H170559   6.342   0.175  14.191  0.1921 -1.7678 -0.6244
16356TIP3    H270560   6.305   0.142  14.048  0.6110 -2.3360 -0.6077
16357TIP3   OH270561   2.496   5.802  16.144 -0.0495 -0.4192 -0.3889
16357TIP3    H170562   2.424   5.845  16.097  0.3180  0.9441  0.3077
16357TIP3    H270563   2.554   5.873  16.172  1.2035 -1.4495 -0.3050
16358TIP3   OH270564   2.889   1.901  16.151  0.1712 -0.0688  0.1387
16358TIP3    H170565   2.796   1.879  16.150  0.2581 -0.4354  0.2978
16358TIP3    H270566   2.896   1.978  16.093 -0.4189  0.7129  1.0849
16359TIP3   OH270567   5.724   4.100  10.800 -0.5581 -0.6126 -0.3199
16359TIP3    H170568   5.809   4.113  10.757  0.5416 -2.4732  1.2010
16359TIP3    H270569   5.704   4.185  10.840  1.8966 -0.8433  1.5327
16360TIP3   OH270570   3.365   2.067  14.016  0.0862  0.3348  0.4654
16360TIP3    H170571   3.365   2.146  13.963  2.1280  0.6848  0.9680
16360TIP3    H270572   3.438   2.016  13.984 -0.6746 -0.9598  0.7430
16361TIP3   OH270573   2.752   5.250  13.193 -0.1283 -0.4524  0.2031
16361TIP3    H170574   2.811   5.230  13.120  1.3828 -1.0168  1.5369
16361TIP3    H270575   2.747   5.168  13.242  0.3781  0.4264  1.7474
16362TIP3   OH270576   3.635   6.471  12.321 -0.6403  0.0399  0.7240
16362TIP3    H170577   3.573   6.402  12.346 -0.6130 -0.2913 -0.1246
16362TIP3    H270578   3.588   6.525  12.259 -0.7425  0.9429  1.5725
16363TIP3   OH270579   1.038   6.490  15.483 -0.0206 -0.3815 -0.5900
16363TIP3    H170580   1.115   6.508  15.428  0.6340 -1.0770  0.0911
16363TIP3    H270581   1.061   6.525  15.569 -0.7156 -0.0549 -0.5279
16364TIP3   OH270582   0.045   5.196   2.572  0.7105  0.2249 -0.1141
16364TIP3    H170583   0.005   5.204   2.485 -1.4904 -0.5335  0.7813
16364TIP3    H270584  -0.026   5.217   2.632  2.0925  0.2813  1.5092
16365TIP3   OH270585   1.572   3.395  14.200  0.3521 -0.1460 -0.3301
16365TIP3    H170586   1.581   3.300  14.206  0.6793 -0.1057 -0.1694
16365TIP3    H270587   1.485   3.409  14.164 -0.1362 -0.4856  0.6967
16366TIP3   OH270588   1.395   0.909   5.147 -0.2746  0.4174  0.8654
16366TIP3    H170589   1.420   0.850   5.218 -0.4626  0.4228  0.9389
16366TIP3    H270590   1.449   0.882   5.073  0.1508  0.6173  1.0992
16367TIP3   OH270591   5.540   1.656   1.452 -0.9982  0.0585  0.1763
16367TIP3    H170592   5.524   1.660   1.547 -0.3891 -0.8064  0.3232
16367TIP3    H270593   5.629   1.688   1.442 -1.9197  2.5902 -0.3919
16368TIP3   OH270594   1.709   4.438  15.294 -0.1817 -0.0412  0.7366
16368TIP3    H170595   1.706   4.388  15.212  0.9779  0.9108  0.1040
16368TIP3    H270596   1.724   4.528  15.267 -1.7157  0.6023  1.9015
16369TIP3   OH270597   3.597   5.545  11.833 -0.3207  0.7098  0.2450
16369TIP3    H170598   3.672   5.574  11.885 -0.6305  1.4374  0.2861
16369TIP3    H270599   3.531   5.613  11.846 -0.6447  0.5497 -0.5543
16370TIP3   OH270600   3.680   1.449  15.955 -0.8253 -0.0035  0.0398
16370TIP3    H170601   3.764   1.419  15.920 -0.8932  0.0026 -0.1272
16370TIP3    H270602   3.670   1.400  16.037  0.9825  2.4850  1.8475
16371TIP3   OH270603   5.507   3.785  15.067 -0.1403  0.4229 -0.2513
16371TIP3    H170604   5.438   3.827  15.119 -1.6210  1.1250 -2.6834
16371TIP3    H270605   5.468   3.701  15.040  0.6745 -0.0099 -0.0881
16372TIP3   OH270606   3.182   1.374   2.398 -0.6303 -0.0995  0.1030
16372TIP3    H170607   3.226   1.455   2.426 -2.0487  0.5215  0.5773
16372TIP3    H270608   3.196   1.370   2.304 -1.5314  1.3131 -0.1037
16373TIP3   OH270609   4.235   3.049   6.909  0.8272  0.1077 -0.2769
16373TIP3    H170610   4.318   3.014   6.877  0.2972 -2.1261  0.7212
16373TIP3    H270611   4.169   3.005   6.857  0.1953  0.8076 -0.0751
16374TIP3   OH270612   5.424   3.557   5.179  0.2531 -0.1608 -0.6888
16374TIP3    H170613   5.332   3.580   5.193  0.3732  0.2674 -0.5986
16374TIP3    H270614   5.422   3.465   5.154 -0.1615 -0.3077 -0.1355
16375TIP3   OH270615   6.680   4.942  11.003 -0.7352 -0.7974 -0.2613
16375TIP3    H170616   6.671   4.873  10.938 -1.9129  0.0473 -1.0109
16375TIP3    H270617   6.616   4.921  11.070  0.1446 -1.4015  0.4040
16376TIP3   OH270618   5.384   6.692  13.302  0.8033  0.2151  0.1588
16376TIP3    H170619   5.444   6.633  13.346  0.1204  0.1342  1.0022
16376TIP3    H270620   5.438   6.740  13.240  1.7767  0.3073  1.0679
16377TIP3   OH270621   4.827   4.094  16.894 -0.0549 -0.3796  0.0887
16377TIP3    H170622   4.742   4.051  16.904 -0.6271  0.6954  0.0470
16377TIP3    H270623   4.867   4.090  16.981 -0.1087 -0.9754  0.0857
16378TIP3   OH270624   3.234   6.439   2.318  0.3986 -0.4146 -0.1404
16378TIP3    H170625   3.280   6.400   2.244  0.5921  1.7506 -1.1801
16378TIP3    H270626   3.282   6.519   2.338 -1.2951  0.4821  0.4891
16379TIP3   OH270627   3.143   0.113  11.072 -0.2795 -0.3789 -0.3891
16379TIP3    H170628   3.202   0.076  11.007  3.3925  1.1756  1.8796
16379TIP3    H270629   3.092   0.178  11.024  0.0123 -1.5792 -2.3560
16380TIP3   OH270630   3.604   0.560   2.218  0.1274  0.1259 -0.1926
16380TIP3    H170631   3.544   0.633   2.230 -1.6365 -1.4143  0.6672
16380TIP3    H270632   3.629   0.564   2.126 -0.4690  1.4218 -0.3066
16381TIP3   OH270633   1.225   1.573   3.294  0.6905  0.2097  0.5661
16381TIP3    H170634   1.215   1.496   3.351 -3.2986 -1.6524 -2.4535
16381TIP3    H270635   1.147   1.625   3.310  1.1976  1.3834 -0.7228
16382TIP3   OH270636   3.658   4.444   3.683 -0.1147  0.5755 -0.3751
16382TIP3    H170637   3.676   4.480   3.769 -0.1619  0.1765 -0.1968
16382TIP3    H270638   3.742   4.447   3.637 -0.1978  1.2480 -0.4888
16383TIP3   OH270639   6.283   3.688  17.157 -0.3283 -0.2181  0.1119
16383TIP3    H170640   6.334   3.647  17.087 -1.2178  0.9104 -1.2519
16383TIP3    H270641   6.309   3.780  17.153 -1.5127  0.1270  0.2423
16384TIP3   OH270642   2.981   0.426  15.646 -0.1183  0.3092  0.5801
16384TIP3    H170643   2.955   0.344  15.604 -0.6348  0.0647  1.3682
16384TIP3    H270644   2.920   0.492  15.611  0.6488  0.4668 -0.4695
16385TIP3   OH270645   2.968   3.799  17.062  0.2343 -0.4151 -0.2534
16385TIP3    H170646   2.887   3.751  17.078 -0.5935  0.7949 -0.7057
16385TIP3    H270647   3.027   3.734  17.025  0.2169 -1.8212  2.0927
16386TIP3   OH270648   5.466   6.020  13.633  0.2097 -0.1928  0.2196
16386TIP3    H170649   5.457   6.000  13.726  1.4611 -0.8792  0.2157
16386TIP3    H270650   5.541   6.080  13.628 -1.2869  1.6769 -0.1333
16387TIP3   OH270651   1.307   1.598   1.488  0.3645  0.2932 -0.4115
16387TIP3    H170652   1.400   1.589   1.511  0.2870  2.3966  0.8121
16387TIP3    H270653   1.306   1.592   1.392  1.4885 -1.9192 -0.3247
16388TIP3   OH270654   6.761   0.704  11.269 -0.0640  0.2882  0.7059
16388TIP3    H170655   6.737   0.783  11.317  2.0464  0.5238  1.4066
16388TIP3    H270656   6.853   0.715  11.247 -0.2798 -1.0607 -1.0109
16389TIP3   OH270657   2.667   0.105  12.313  0.5010  0.2178 -0.1295
16389TIP3    H170658   2.666   0.145  12.400  0.4700 -0.3989  0.1521
16389TIP3    H270659   2.575   0.097  12.289  0.5174  0.7967 -0.4151
16390TIP3   OH270660   1.211   4.285  12.685  0.0239 -0.2031  0.2515
16390TIP3    H170661   1.290   4.307  12.635 -1.1360  2.0207 -0.6804
16390TIP3    H270662   1.142   4.336  12.643 -1.1278  1.2368  3.7438
16391TIP3   OH270663   6.057   0.487   0.322  0.0059  0.2733  0.5327
16391TIP3    H170664   6.008   0.498   0.241  0.8660  0.3130  0.0055
16391TIP3    H270665   6.095   0.399   0.315 -0.7510 -0.1235  1.3537
16392TIP3   OH270666   3.161   1.264  12.107 -0.2640  0.2368 -0.0280
16392TIP3    H170667   3.255   1.247  12.114  0.1886  1.7378 -2.1897
16392TIP3    H270668   3.121   1.202  12.169  1.8675 -3.0153 -1.7732
16393TIP3   OH270669   0.239   3.259  12.655  0.7166 -0.0830 -0.5348
16393TIP3    H170670   0.318   3.215  12.686 -0.0029 -1.6142 -0.8139
16393TIP3    H270671   0.210   3.207  12.580 -1.2524 -0.3208  0.3462
16394TIP3   OH270672   4.181   3.418  16.462  0.5749 -0.0728  0.8368
16394TIP3    H170673   4.267   3.433  16.422 -0.6784 -1.2454 -2.4893
16394TIP3    H270674   4.189   3.333  16.505  0.9979 -0.3725  0.1830
16395TIP3   OH270675   6.533   0.603  12.030  0.3863  0.9078 -0.0178
16395TIP3    H170676   6.622   0.577  12.003  0.4015  1.5614 -0.6221
16395TIP3    H270677   6.521   0.690  11.992  0.1919  1.6263  1.6810
16396TIP3   OH270678   0.259   0.771  14.656  0.2630  0.0051 -0.0426
16396TIP3    H170679   0.267   0.862  14.685  1.6376 -0.2806  0.5111
16396TIP3    H270680   0.317   0.764  14.581  0.8597 -0.6456  0.4717
16397TIP3   OH270681   3.769   5.827   3.425  0.4558  0.3861 -0.7792
16397TIP3    H170682   3.776   5.778   3.507  0.0755  1.0886 -0.3152
16397TIP3    H270683   3.853   5.872   3.417  0.3082  0.7274 -0.4913
16398TIP3   OH270684   1.732   6.323  14.509  0.1933 -0.0065  0.2131
16398TIP3    H170685   1.686   6.285  14.434 -0.6688  1.6545 -0.1182
16398TIP3    H270686   1.819   6.283  14.507  0.0398 -0.2805 -1.4146
16399TIP3   OH270687   0.160   2.584   4.817 -0.4695 -0.1135  0.0102
16399TIP3    H170688   0.069   2.581   4.849 -1.4230  0.5209 -2.5437
16399TIP3    H270689   0.197   2.661   4.858 -0.3733 -1.5584  2.7970
16400TIP3   OH270690   1.052   1.042   5.094  0.2935  0.2276 -0.1133
16400TIP3    H170691   1.100   1.088   5.162  0.0640 -1.1315  0.9910
16400TIP3    H270692   1.033   0.956   5.132 -0.6714 -0.2044 -1.5325
16401TIP3   OH270693   4.318   1.615   4.042  0.2487  0.6435 -0.2669
16401TIP3    H170694   4.385   1.606   4.110 -0.4276  0.1606  0.3383
16401TIP3    H270695   4.236   1.627   4.090 -0.6575 -2.3869 -0.9517
16402TIP3   OH270696   2.952   4.057  13.982  0.1225  0.3563  0.0082
16402TIP3    H170697   2.942   4.152  13.972 -0.9283  0.4352  1.6751
16402TIP3    H270698   2.951   4.043  14.077  1.2728 -1.2242 -0.2025
16403TIP3   OH270699   0.240   5.978  11.606  0.2201  0.3387 -0.8315
16403TIP3    H170700   0.221   5.910  11.670  2.8671 -0.5318 -0.9333
16403TIP3    H270701   0.157   6.025  11.595 -0.5859 -0.2717  2.3015
16404TIP3   OH270702   3.565   1.312  15.023  0.0112  0.4020 -0.0547
16404TIP3    H170703   3.568   1.408  15.016 -0.1922  0.4508  0.5075
16404TIP3    H270704   3.477   1.293  15.055 -0.8121 -0.1257 -2.5383
16405TIP3   OH270705   5.866   1.358   4.097  0.8722 -0.9861 -1.0405
16405TIP3    H170706   5.884   1.397   4.011  0.1490 -1.7704 -1.5625
16405TIP3    H270707   5.827   1.273   4.076  0.0065 -0.8678  0.0704
16406TIP3   OH270708   1.914   2.114   0.963  0.1014 -0.6747 -0.3912
16406TIP3    H170709   1.876   2.187   1.012 -1.9792 -1.3797 -0.9011
16406TIP3    H270710   1.839   2.068   0.926  1.4880 -1.9117 -1.7505
16407TIP3   OH270711   0.026   0.100  14.654 -0.3513  0.0292 -0.1741
16407TIP3    H170712  -0.065   0.127  14.665 -0.4558 -0.2490 -0.3609
16407TIP3    H270713   0.075   0.161  14.709 -0.7677 -0.5809  0.9002
16408TIP3   OH270714   3.779   2.382   5.899 -0.1648 -0.2370 -0.1795
16408TIP3    H170715   3.694   2.404   5.861  0.4342  0.2528 -1.2564
16408TIP3    H270716   3.841   2.435   5.850  0.7326 -0.3671  0.8104
16409TIP3   OH270717   1.420   1.226  15.216  0.2383  0.1098  0.0138
16409TIP3    H170718   1.417   1.130  15.214 -3.4183  0.1545  0.1713
16409TIP3    H270719   1.392   1.252  15.128 -0.2314  1.0503  0.4406
16410TIP3   OH270720   1.213   2.320  11.612  0.1401 -0.4422 -0.2060
16410TIP3    H170721   1.165   2.343  11.692 -3.2480 -0.7784 -2.0436
16410TIP3    H270722   1.239   2.405  11.574  1.1000 -0.2619  0.8234
16411TIP3   OH270723   1.125   1.890  10.607 -0.3282 -0.3881  0.0827
16411TIP3    H170724   1.193   1.944  10.649 -0.5157  0.6372 -0.8958
16411TIP3    H270725   1.044   1.940  10.620 -0.4421 -0.2383 -1.1676
16412TIP3   OH270726   2.177   6.036  15.386 -0.0593  0.2015  0.3171
16412TIP3    H170727   2.156   5.942  15.391 -2.0533  0.6099  0.0403
16412TIP3    H270728   2.173   6.056  15.293 -0.8705  0.8152  0.4763
16413TIP3   OH270729   6.255   3.812   5.458 -0.4840  0.1508  0.3644
16413TIP3    H170730   6.216   3.790   5.542 -0.7762  1.9639  0.7055
16413TIP3    H270731   6.317   3.883   5.477  2.0022 -1.7156 -0.3878
16414TIP3   OH270732   4.219   1.644  13.395  0.0047  0.7582  0.6718
16414TIP3    H170733   4.125   1.636  13.406 -0.4212  2.2373 -1.4537
16414TIP3    H270734   4.240   1.732  13.427  0.3738  1.0665 -0.3695
16415TIP3   OH270735   6.347   6.460   1.304 -0.9493  0.9046  0.5250
16415TIP3    H170736   6.322   6.531   1.364 -0.7095  1.7540 -0.3676
16415TIP3    H270737   6.392   6.505   1.232  0.2712 -0.2840  0.5444
16416TIP3   OH270738   1.791   3.089   3.523  0.1773 -0.1121 -0.2952
16416TIP3    H170739   1.797   3.007   3.475 -0.9150  0.0986 -0.8012
16416TIP3    H270740   1.878   3.129   3.513  0.0330 -0.1678 -1.9217
16417TIP3   OH270741   5.506   6.631  15.092 -0.5236  0.4274 -0.2083
16417TIP3    H170742   5.584   6.685  15.086 -0.2666  0.0832  0.0057
16417TIP3    H270743   5.527   6.566  15.159 -0.7308 -0.0950 -0.6402
16418TIP3   OH270744   4.821   1.581   0.528  0.5011 -0.1476  0.0391
16418TIP3    H170745   4.785   1.571   0.440  0.6196  1.1683 -0.1633
16418TIP3    H270746   4.746   1.607   0.581  0.6765  0.2213  0.1003
16419TIP3   OH270747   6.149   3.949  11.748  0.1616 -0.0327  1.0308
16419TIP3    H170748   6.151   4.043  11.734  0.9449 -0.0837  0.8098
16419TIP3    H270749   6.175   3.912  11.664 -2.2974 -0.5038  0.4212
16420TIP3   OH270750   6.404   3.618   0.752  0.3044  0.4806  0.2496
16420TIP3    H170751   6.484   3.565   0.758  0.4673  0.7659  0.6438
16420TIP3    H270752   6.422   3.694   0.807  0.4240  1.4167 -1.0868
16421TIP3   OH270753   4.368   5.018  13.001 -0.7102  0.4879 -0.0719
16421TIP3    H170754   4.310   4.984  13.069 -1.1775 -1.4247 -1.3808
16421TIP3    H270755   4.418   4.942  12.972 -0.3151  1.3370 -1.6699
16422TIP3   OH270756   5.109   1.360   5.571 -0.1399  0.3013 -0.4068
16422TIP3    H170757   5.096   1.374   5.477 -3.1132  0.9071  0.0617
16422TIP3    H270758   5.070   1.437   5.612  1.5496  0.2495  1.3220
16423TIP3   OH270759   6.032   4.160  15.824 -0.2497 -0.3125  0.0955
16423TIP3    H170760   6.076   4.230  15.776 -0.2728  0.1730  0.7717
16423TIP3    H270761   6.103   4.104  15.855 -0.3716 -2.5451 -3.3454
16424TIP3   OH270762   3.773   1.967   5.598 -0.2712 -0.0897  0.6255
16424TIP3    H170763   3.821   2.027   5.656 -1.7387 -0.8366  2.6573
16424TIP3    H270764   3.819   1.884   5.605 -0.6432 -0.2684  1.0015
16425TIP3   OH270765   1.880   2.276  12.585  0.4115  0.1655  0.0137
16425TIP3    H170766   1.915   2.244  12.502  0.3276  0.4743 -0.1434
16425TIP3    H270767   1.842   2.199  12.627  0.6931 -0.0423 -0.1126
16426TIP3   OH270768   6.556   3.325  13.561 -0.2735  0.5511 -0.0160
16426TIP3    H170769   6.498   3.338  13.487 -0.0442  0.2498 -0.2476
16426TIP3    H270770   6.506   3.357  13.637 -0.6580  0.4823 -0.2403
16427TIP3   OH270771   1.894   6.147  12.711 -0.1532 -0.0379 -0.4499
16427TIP3    H170772   1.836   6.184  12.777  0.2014 -1.0051  0.4175
16427TIP3    H270773   1.852   6.168  12.628 -0.2977  1.7178  0.0440
16428TIP3   OH270774   6.025   3.422   1.194 -0.1478 -0.3996  0.5239
16428TIP3    H170775   5.995   3.410   1.284  1.7465 -1.2795  1.0553
16428TIP3    H270776   5.970   3.363   1.143 -0.4561 -0.7419  1.2457
16429TIP3   OH270777   3.347   0.006   5.923  1.1637 -0.3282  0.0149
16429TIP3    H170778   3.383   0.074   5.980  0.2809  0.2218 -0.0695
16429TIP3    H270779   3.319  -0.063   5.983  0.6948  0.0299  0.2059
16430TIP3   OH270780   0.475   6.070   5.022  0.1971  0.1701  0.6113
16430TIP3    H170781   0.523   6.105   5.097 -0.3328 -0.4192  1.2330
16430TIP3    H270782   0.421   6.143   4.993 -0.8300 -0.0835  1.8421
16431TIP3   OH270783   1.281   6.416   6.036  0.2204  0.6480  0.1922
16431TIP3    H170784   1.254   6.344   5.979 -0.0282  0.4638  0.5432
16431TIP3    H270785   1.268   6.383   6.125  0.5813  0.9463  0.3561
16432TIP3   OH270786   1.312   3.441  16.543 -0.2138 -0.3235 -0.0760
16432TIP3    H170787   1.386   3.463  16.487 -0.4807  1.8178  0.3751
16432TIP3    H270788   1.308   3.512  16.607 -2.8384 -0.2431 -0.2671
16433TIP3   OH270789   1.897   6.019  11.110  0.4245 -0.5945  0.2205
16433TIP3    H170790   1.954   5.981  11.043  0.6506  1.0523 -0.5501
16433TIP3    H270791   1.921   5.973  11.190  1.5503 -1.2163 -0.4576
16434TIP3   OH270792   0.248   4.997   5.404  0.1237  0.0934  0.0169
16434TIP3    H170793   0.339   5.016   5.429  0.3740 -0.3072 -0.5637
16434TIP3    H270794   0.253   4.913   5.359 -0.9394 -1.2774  2.3512
16435TIP3   OH270795   2.130   0.486   0.253  0.6195 -0.2834  0.0715
16435TIP3    H170796   2.138   0.398   0.217 -0.2910 -0.0789 -0.6407
16435TIP3    H270797   2.204   0.494   0.314  1.7840 -0.8667 -1.2450
16436TIP3   OH270798   5.080   4.621   0.392 -0.1527  0.2235  0.4662
16436TIP3    H170799   5.155   4.610   0.333  2.3216  5.2051  2.3607
16436TIP3    H270800   5.003   4.608   0.337  2.0883 -1.1345 -2.4586
16437TIP3   OH270801   5.046   2.969  14.371  0.3729 -0.2898  0.5011
16437TIP3    H170802   5.073   3.052  14.410  1.5266 -0.7586  0.7089
16437TIP3    H270803   5.116   2.908  14.392  0.5893 -0.7882 -1.5424
16438TIP3   OH270804   1.996   2.217  14.334 -0.0215 -0.4618 -0.3813
16438TIP3    H170805   1.927   2.228  14.269  0.2668  0.4618 -0.5381
16438TIP3    H270806   2.015   2.306  14.364  0.7811 -0.7525 -0.0123
16439TIP3   OH270807   2.758   4.244  11.480 -0.0006 -0.1273 -0.7014
16439TIP3    H170808   2.677   4.294  11.468 -0.9898 -1.4103  0.4264
16439TIP3    H270809   2.760   4.184  11.405  0.5211  0.6786 -1.3503
16440TIP3   OH270810   1.066   6.515   5.086  0.3238 -0.0399  0.0554
16440TIP3    H170811   1.153   6.501   5.048 -0.2035 -3.0786 -0.1777
16440TIP3    H270812   1.082   6.523   5.180  1.1612  2.9033 -0.2899
16441TIP3   OH270813   0.687   3.785  15.014  0.4353 -0.4876 -0.0771
16441TIP3    H170814   0.759   3.828  15.059  1.0191 -1.0702 -0.4489
16441TIP3    H270815   0.693   3.815  14.923 -1.2335  1.3301  0.3826
16442TIP3   OH270816   6.665   6.060  13.512 -0.0112 -0.0098  0.3859
16442TIP3    H170817   6.715   6.069  13.593 -0.9674 -1.1905  1.1208
16442TIP3    H270818   6.709   5.990  13.464 -0.4574 -0.4981  0.6754
16443TIP3   OH270819   5.406   4.267  12.725  0.2783  0.0257  0.2022
16443TIP3    H170820   5.386   4.201  12.791  0.5232 -0.6553 -0.3958
16443TIP3    H270821   5.320   4.296  12.694  0.1409 -2.1126 -1.5802
16444TIP3   OH270822   6.718   6.051   4.140  0.2317  0.3052 -0.0649
16444TIP3    H170823   6.768   6.010   4.070  1.5138  0.8456  0.5018
16444TIP3    H270824   6.769   6.032   4.219  0.1243  1.8019  0.3735
16445TIP3   OH270825   0.996   2.523   5.827 -1.0265  0.5738  0.0579
16445TIP3    H170826   1.039   2.495   5.745 -0.3167  1.5690  0.0772
16445TIP3    H270827   0.903   2.529   5.804 -1.2578 -2.1128  0.1532
16446TIP3   OH270828   2.970   4.493   1.090  0.5317 -0.1231 -0.4575
16446TIP3    H170829   3.035   4.458   1.150 -0.7416  1.8896  2.1683
16446TIP3    H270830   2.887   4.452   1.116 -0.0619  0.8657 -0.7313
16447TIP3   OH270831   5.487   6.700  15.744 -0.2164  0.1806  0.2500
16447TIP3    H170832   5.494   6.791  15.714 -0.0356  0.3056  0.6765
16447TIP3    H270833   5.409   6.698  15.799 -1.2319 -0.3102 -1.1623
16448TIP3   OH270834   2.650   1.006  15.430  0.1916 -0.1129 -0.3434
16448TIP3    H170835   2.675   0.997  15.338 -0.0872 -0.9454 -0.3430
16448TIP3    H270836   2.723   1.054  15.470  0.4994 -0.1008 -0.9147
16449TIP3   OH270837   4.253   3.865   3.781 -0.0848 -0.3880  0.1504
16449TIP3    H170838   4.293   3.787   3.819  0.5680 -0.2599 -0.2845
16449TIP3    H270839   4.296   3.877   3.697  1.4912  1.7965  1.2193
16450TIP3   OH270840   5.284   4.730  13.291  0.0367 -0.4015  0.1389
16450TIP3    H170841   5.216   4.779  13.245  0.3036  1.8966  2.0369
16450TIP3    H270842   5.357   4.726  13.229 -0.9164 -0.6442 -0.9800
16451TIP3   OH270843   3.604   5.338   6.095  0.2756 -0.0439 -0.2922
16451TIP3    H170844   3.582   5.247   6.114 -1.3328  0.6872  1.5013
16451TIP3    H270845   3.698   5.337   6.078  0.6748 -1.7019  1.8275
16452TIP3   OH270846   4.831   3.120   5.971  0.7563  0.2276 -0.1446
16452TIP3    H170847   4.880   3.049   5.930  0.2773 -0.6265  0.7429
16452TIP3    H270848   4.822   3.093   6.063 -0.3422  0.9273 -0.0434
16453TIP3   OH270849   4.511   4.292  16.090 -0.1268 -0.1387 -0.2049
16453TIP3    H170850   4.423   4.324  16.110 -0.3463 -1.0305  0.2793
16453TIP3    H270851   4.568   4.346  16.144 -0.4844 -0.4686  0.5113
16454TIP3   OH270852   5.064   0.220  13.322 -0.7580 -0.1480  0.3184
16454TIP3    H170853   5.058   0.185  13.233 -0.5757  0.6034  0.0026
16454TIP3    H270854   5.086   0.145  13.376  1.5591 -0.1988 -0.6367
16455TIP3   OH270855   2.328   3.333  10.573 -0.0300 -0.0301 -1.2433
16455TIP3    H170856   2.318   3.295  10.661  0.1514  1.8525 -0.3735
16455TIP3    H270857   2.245   3.316  10.529 -0.5088 -0.0895 -0.3291
16456TIP3   OH270858   1.803   0.062  14.458  0.1009  0.1641  0.0967
16456TIP3    H170859   1.775  -0.009  14.400  0.4367 -0.1606  0.3287
16456TIP3    H270860   1.874   0.025  14.509  0.3770  0.7181  0.1206
16457TIP3   OH270861   3.010   2.962   5.049 -0.2695  0.0113 -0.0621
16457TIP3    H170862   2.928   2.957   4.999 -1.0007  1.5579  0.9566
16457TIP3    H270863   3.058   3.034   5.009  0.6468 -0.9468 -0.7099
16458TIP3   OH270864   5.245   4.402  12.478 -0.3288  0.0387 -0.3252
16458TIP3    H170865   5.232   4.353  12.396  0.7553 -2.7656  1.1067
16458TIP3    H270866   5.156   4.428  12.504 -1.1275 -2.4153 -0.4193
16459TIP3   OH270867   4.555   2.713   5.296 -0.1439  0.2268  0.0966
16459TIP3    H170868   4.469   2.754   5.292  0.9850  2.8095  1.1991
16459TIP3    H270869   4.541   2.624   5.264 -2.8841  1.1229 -1.3046
16460TIP3   OH270870   5.614   2.949  11.767  0.1423  0.0367 -0.3094
16460TIP3    H170871   5.597   2.963  11.861 -2.4953 -0.9214 -0.6061
16460TIP3    H270872   5.637   2.857  11.760  0.6121  0.1748 -0.5587
16461TIP3   OH270873   1.085   5.429   4.136 -0.2240 -0.5680  0.1239
16461TIP3    H170874   1.124   5.471   4.212 -0.6456  0.2306 -0.0954
16461TIP3    H270875   0.991   5.431   4.153 -0.4198  0.8363 -1.0199
16462TIP3   OH270876   5.656   5.318  16.616 -0.1332  0.5730 -0.2029
16462TIP3    H170877   5.655   5.235  16.663 -0.3814  0.1227 -1.0156
16462TIP3    H270878   5.730   5.311  16.556 -0.7773  0.5376 -0.9983
16463TIP3   OH270879   0.736   4.615  11.536  0.3432  0.0878  0.4334
16463TIP3    H170880   0.727   4.639  11.443  1.9829  0.0368  0.2549
16463TIP3    H270881   0.646   4.597  11.564 -0.1292 -0.3972 -1.2817
16464TIP3   OH270882   5.502   1.997  16.126  0.4195 -0.3389 -0.1889
16464TIP3    H170883   5.577   1.938  16.140  1.6122  1.0597 -0.5556
16464TIP3    H270884   5.505   2.057  16.201  0.6411  0.7299 -1.0471
16465TIP3   OH270885   3.035   6.273   1.990  0.0914  0.2067 -0.0430
16465TIP3    H170886   3.002   6.212   2.055  0.5003 -1.2030 -1.1245
16465TIP3    H270887   2.982   6.352   2.001  0.2965  0.0664  2.1129
16466TIP3   OH270888   3.447   4.858   4.665 -0.3885  0.1241  0.1268
16466TIP3    H170889   3.448   4.909   4.746 -1.1531  1.6653 -0.7982
16466TIP3    H270890   3.502   4.908   4.605  1.1721 -1.6495  0.0374
16467TIP3   OH270891   6.246   0.221   3.165 -0.2450  0.9204  0.5323
16467TIP3    H170892   6.273   0.297   3.113 -0.1801  0.8244  0.4250
16467TIP3    H270893   6.295   0.229   3.247  0.2606  0.6452  0.2631
16468TIP3   OH270894   1.741   0.389   3.498 -0.2036 -0.4944  0.1845
16468TIP3    H170895   1.787   0.472   3.509  0.5938 -1.0205  0.9144
16468TIP3    H270896   1.713   0.365   3.586 -0.0390 -1.2188  0.0427
16469TIP3   OH270897   3.598   4.245   1.033 -0.6458  1.2472 -0.5991
16469TIP3    H170898   3.518   4.298   1.033 -1.4430  0.0727 -2.6919
16469TIP3    H270899   3.646   4.274   0.955 -0.9760 -0.9451 -1.6308
16470TIP3   OH270900   4.691   3.841  13.726  0.2365 -0.2922  0.7146
16470TIP3    H170901   4.756   3.872  13.790  0.3142 -1.4669  1.2147
16470TIP3    H270902   4.706   3.747  13.721 -0.6743 -0.3978 -0.0302
16471TIP3   OH270903   4.236   5.018   3.161 -0.3246 -0.5443 -0.6990
16471TIP3    H170904   4.154   5.044   3.119  0.2182  1.6341 -0.5147
16471TIP3    H270905   4.300   5.018   3.090  0.9063  4.5920  0.1692
16472TIP3   OH270906   5.109   4.746   5.651  0.3894 -0.2636 -0.3025
16472TIP3    H170907   5.022   4.713   5.628 -0.1492 -0.9528  2.4826
16472TIP3    H270908   5.122   4.821   5.594 -2.1577 -0.0035 -0.6044
16473TIP3   OH270909   2.674   1.045  11.975  0.0484  0.5567  0.2743
16473TIP3    H170910   2.658   1.084  11.889  3.1785  1.0523 -0.1643
16473TIP3    H270911   2.650   1.114  12.037  0.9339  1.4556 -0.3487
16474TIP3   OH270912   0.718   1.590  14.576 -0.4580 -0.3052  0.0937
16474TIP3    H170913   0.699   1.626  14.489 -0.7995  0.6619  0.5597
16474TIP3    H270914   0.784   1.650  14.612 -0.1100 -0.8656  0.3838
16475TIP3   OH270915   2.897   2.616  12.063 -0.8950 -0.8184 -0.3689
16475TIP3    H170916   2.914   2.708  12.045 -1.3245 -1.0519 -2.0397
16475TIP3    H270917   2.962   2.592  12.129 -0.6971  0.6326 -0.0115
16476TIP3   OH270918   4.277   5.491  15.465  0.2732  0.1701  0.2546
16476TIP3    H170919   4.195   5.495  15.513 -0.3159  0.8238 -0.7716
16476TIP3    H270920   4.341   5.457  15.527 -1.1049 -1.7896  0.6291
16477TIP3   OH270921   5.922   5.369  12.186  0.2403  0.0556  0.0325
16477TIP3    H170922   5.951   5.293  12.236  1.7438  0.2423 -0.5130
16477TIP3    H270923   5.979   5.441  12.217 -0.4027  0.6931 -0.2549
16478TIP3   OH270924   2.228   1.824  13.860 -0.2544  0.1064 -0.0355
16478TIP3    H170925   2.142   1.783  13.850  1.0307 -2.4948 -1.1441
16478TIP3    H270926   2.260   1.793  13.945  0.3937 -0.6213 -0.5280
16479TIP3   OH270927   4.631   3.872   2.077  0.1221 -0.5632  0.1669
16479TIP3    H170928   4.705   3.837   2.029  0.9295  0.2243  0.8236
16479TIP3    H270929   4.622   3.962   2.046  0.3435 -0.2063  1.1137
16480TIP3   OH270930   4.560   4.042  16.007  0.2449  0.3060  0.1629
16480TIP3    H170931   4.585   4.007  16.093  1.8671  1.4328  0.1664
16480TIP3    H270932   4.529   4.131  16.026 -1.9377 -0.3789 -0.0965
16481TIP3   OH270933   5.170   2.639  10.838 -0.1490 -1.1901  0.0365
16481TIP3    H170934   5.106   2.630  10.767  1.0950 -2.1104 -0.9763
16481TIP3    H270935   5.255   2.638  10.795  0.6780 -2.7469  1.6072
16482TIP3   OH270936   0.055   6.206  12.707  0.2073 -0.2419 -0.7197
16482TIP3    H170937   0.046   6.275  12.642 -0.9130 -1.3499 -1.7933
16482TIP3    H270938   0.087   6.130  12.657 -0.0229 -0.9132  0.1312
16483TIP3   OH270939   3.838   6.024   4.326 -0.7907 -0.9442 -0.0873
16483TIP3    H170940   3.769   5.961   4.349 -0.4283 -0.8370  1.3711
16483TIP3    H270941   3.796   6.110   4.335 -0.4516 -0.8760  0.8877
16484TIP3   OH270942   2.485   1.899   1.615  0.0304 -0.1371  0.1124
16484TIP3    H170943   2.441   1.984   1.614 -1.1155 -0.7144 -1.8220
16484TIP3    H270944   2.532   1.895   1.532 -1.6599 -2.2346 -0.7991
16485TIP3   OH270945   0.124   0.016   2.373 -0.0523 -0.2269 -0.6283
16485TIP3    H170946   0.065  -0.027   2.434 -1.0876 -1.0567 -2.1700
16485TIP3    H270947   0.095   0.108   2.371  0.7572  0.0811  0.9997
16486TIP3   OH270948   2.432   0.468   4.624  0.5341 -0.3220  0.1810
16486TIP3    H170949   2.357   0.486   4.567 -0.0986  1.0864  1.4117
16486TIP3    H270950   2.503   0.521   4.588  0.8412 -1.3336 -0.7369
16487TIP3   OH270951   1.772   0.609  13.721 -0.2610  0.5404 -0.4064
16487TIP3    H170952   1.693   0.662  13.710 -1.0522 -0.6072 -0.2461
16487TIP3    H270953   1.820   0.621  13.639 -0.7567  0.9636 -0.6376
16488TIP3   OH270954   5.290   0.030   0.588  0.1724 -0.3870  0.1843
16488TIP3    H170955   5.362  -0.016   0.631  0.3290 -1.4184 -1.1644
16488TIP3    H270956   5.327   0.115   0.564  0.5556 -0.4192  0.6561
16489TIP3   OH270957   5.113   5.368   4.791 -0.5749  0.3445  0.3160
16489TIP3    H170958   5.206   5.349   4.777 -0.3763  0.7350  1.1216
16489TIP3    H270959   5.082   5.400   4.706 -0.2525 -0.8975 -0.2867
16490TIP3   OH270960   5.516   5.054   3.941 -0.2379  0.2417 -0.3335
16490TIP3    H170961   5.586   4.988   3.941  0.4382  0.9403  0.5961
16490TIP3    H270962   5.532   5.105   4.021 -0.7429  1.5311 -1.0488
16491TIP3   OH270963   2.368   6.593   1.127  0.2675 -0.1622 -0.0152
16491TIP3    H170964   2.359   6.614   1.220  1.3319 -1.0345  0.3031
16491TIP3    H270965   2.417   6.510   1.126 -0.3649 -0.5341 -1.3307
16492TIP3   OH270966   3.593   0.895  16.254  0.3014 -0.2060  0.2006
16492TIP3    H170967   3.654   0.901  16.327 -0.4158 -1.1768  0.8990
16492TIP3    H270968   3.593   0.982  16.215  0.6988  0.3274  1.3663
16493TIP3   OH270969   1.196   0.101  14.362  0.2076  0.3966  0.4687
16493TIP3    H170970   1.143   0.181  14.361 -2.3052 -1.2367  0.0387
16493TIP3    H270971   1.149   0.041  14.419  2.3031 -0.6735  1.1459
16494TIP3   OH270972   0.635   5.064  11.254  0.1269 -0.6703  0.0104
16494TIP3    H170973   0.592   5.149  11.249  0.6834 -0.3463  0.6447
16494TIP3    H270974   0.606   5.027  11.338  3.4504  0.8797  1.9566
16495TIP3   OH270975   2.662   2.375  13.959  0.1607  0.4619 -0.0236
16495TIP3    H170976   2.735   2.387  14.019 -0.3463 -1.5129  1.0342
16495TIP3    H270977   2.598   2.325  14.009 -0.7146 -0.3262 -1.8779
16496TIP3   OH270978   6.398   3.543   4.653  0.8015  0.0981 -0.3518
16496TIP3    H170979   6.363   3.610   4.712  0.4683  0.6839 -1.2064
16496TIP3    H270980   6.427   3.592   4.576  1.2368 -0.6623 -0.6781
16497TIP3   OH270981   3.533   1.304   6.706  0.6451 -0.5419  0.2953
16497TIP3    H170982   3.487   1.238   6.758 -0.4994 -1.0403 -1.3119
16497TIP3    H270983   3.604   1.334   6.763 -0.1816 -1.5363  1.8864
16498TIP3   OH270984   6.019   5.745  14.993 -0.2797  0.1663 -0.3894
16498TIP3    H170985   5.944   5.699  15.031 -0.4022 -0.9738 -1.9649
16498TIP3    H270986   6.094   5.719  15.048 -0.7946  0.1584  0.3100
16499TIP3   OH270987   0.064   2.363  11.497  0.0335 -0.5312 -0.2257
16499TIP3    H170988   0.133   2.426  11.515  0.4406 -0.9012 -0.5046
16499TIP3    H270989   0.083   2.288  11.553 -0.1264 -0.6441 -0.3187
16500TIP3   OH270990   0.602   3.231  13.595  0.7185  0.3426  0.1805
16500TIP3    H170991   0.513   3.198  13.608  0.9318 -0.2370  0.2264
16500TIP3    H270992   0.594   3.326  13.603  0.1165  0.2916  0.2505
16501TIP3   OH270993   4.702   6.688  12.873 -0.4191  1.1593  0.1259
16501TIP3    H170994   4.758   6.741  12.928  1.0229  0.2390 -0.4199
16501TIP3    H270995   4.745   6.603  12.869 -1.4071  0.6828 -0.9888
16502TIP3   OH270996   3.820   3.048   4.761 -1.1025 -0.0570 -0.0424
16502TIP3    H170997   3.851   2.992   4.833  0.4706  2.0109  0.9517
16502TIP3    H270998   3.879   3.029   4.689 -0.9722 -0.1699  0.0929
16503TIP3   OH270999   3.602   5.756   2.276  0.3382 -0.5450 -0.6538
16503TIP3    H171000   3.618   5.680   2.332  1.0521 -0.2466 -0.4331
16503TIP3    H271001   3.627   5.831   2.331  1.2183 -0.2624 -1.4204
16504TIP3   OH271002   3.191   1.608   0.760 -0.4982 -0.1494 -0.0421
16504TIP3    H171003   3.132   1.667   0.712  0.7164  0.3188 -0.9874
16504TIP3    H271004   3.255   1.667   0.800  1.1742 -0.8786 -1.6160
16505TIP3   OH271005   6.152   4.618   5.145  0.0937 -0.1172  0.2594
16505TIP3    H171006   6.094   4.602   5.219 -1.1159  0.9709 -0.4247
16505TIP3    H271007   6.233   4.653   5.184 -0.3141 -0.1109  1.0983
16506TIP3   OH271008   5.201   4.649  14.687 -0.4302 -0.1460  0.1055
16506TIP3    H171009   5.210   4.693  14.602 -0.3996 -1.4256 -0.5648
16506TIP3    H271010   5.290   4.627  14.713 -0.4155  0.4773  0.6103
16507TIP3   OH271011   2.305   6.162   2.825  0.1855  0.3467  0.1486
16507TIP3    H171012   2.351   6.093   2.777 -0.5317  0.1358 -0.2506
16507TIP3    H271013   2.368   6.233   2.830  1.5820 -0.9831  2.1550
16508TIP3   OH271014   5.928   2.226   1.196 -0.1081 -0.3374  0.3542
16508TIP3    H171015   5.876   2.307   1.193  0.3888 -0.0775 -1.3604
16508TIP3    H271016   5.970   2.229   1.282 -1.4384  0.3784  0.9965
16509TIP3   OH271017   0.154   0.696  15.884 -0.7007  0.4574  0.1448
16509TIP3    H171018   0.221   0.649  15.933 -0.6216  1.7780  1.3364
16509TIP3    H271019   0.080   0.637  15.881 -0.0185 -0.4099  0.1524
16510TIP3   OH271020   0.073   4.864  11.655  0.3303  0.4657 -0.0848
16510TIP3    H171021   0.115   4.790  11.612 -0.8354  0.3251 -1.0004
16510TIP3    H271022   0.002   4.825  11.707 -1.0183  1.0211 -1.4747
16511TIP3   OH271023   4.917   4.561   2.087  0.2248 -0.5204 -0.0270
16511TIP3    H171024   4.882   4.645   2.118 -0.5083 -1.4718  1.7585
16511TIP3    H271025   4.867   4.542   2.007  0.7972  0.9981 -0.7693
16512TIP3   OH271026   2.213   3.609   0.121  0.5828 -0.7228 -0.1375
16512TIP3    H171027   2.237   3.620   0.213 -0.3746 -0.1483  0.0498
16512TIP3    H271028   2.275   3.664   0.073 -0.4573  0.9306  0.3603
16513TIP3   OH271029   0.415   2.278  16.186  0.0160  0.0249 -0.1970
16513TIP3    H171030   0.491   2.220  16.192  1.0140  1.2032 -1.2228
16513TIP3    H271031   0.342   2.220  16.166  0.9261 -0.9203 -0.7939
16514TIP3   OH271032   0.083   2.141   4.457  0.3517 -0.0478  0.4054
16514TIP3    H171033   0.179   2.135   4.456  0.3560  0.1103 -1.9543
16514TIP3    H271034   0.053   2.055   4.429 -0.1369  0.5989 -1.1214
16515TIP3   OH271035   1.847   5.283  14.649  0.4285  0.0410 -0.1241
16515TIP3    H171036   1.895   5.203  14.668  1.0387  0.6471  0.9482
16515TIP3    H271037   1.757   5.264  14.675  0.8292  0.1253  1.3660
16516TIP3   OH271038   2.536   2.387  13.347 -0.2508 -0.6172 -0.3106
16516TIP3    H171039   2.589   2.397  13.425 -1.0611  0.5045  0.1055
16516TIP3    H271040   2.560   2.461  13.291  1.6210 -2.3710 -1.9132
16517TIP3   OH271041   0.044   2.988  13.483  0.2990 -0.6986 -0.2975
16517TIP3    H171042  -0.021   3.034  13.536  0.2395 -0.0168 -0.9557
16517TIP3    H271043  -0.008   2.932  13.425  0.2592  0.2191 -1.1718
16518TIP3   OH271044   6.189   3.395   4.696 -0.3199  0.1425 -0.0695
16518TIP3    H171045   6.130   3.430   4.629  0.9151  0.1485 -1.1837
16518TIP3    H271046   6.268   3.449   4.690  0.3716 -0.7925  0.3662
16519TIP3   OH271047   3.928   1.332   6.297 -0.1109  0.3354 -0.1198
16519TIP3    H171048   3.962   1.404   6.244  1.2018 -0.0164  0.2213
16519TIP3    H271049   3.995   1.318   6.363 -1.2645  0.0851  1.0135
16520TIP3   OH271050   5.204   5.408   6.434 -0.1226 -0.3542 -0.3895
16520TIP3    H171051   5.121   5.425   6.389  0.6412  1.3572 -1.2195
16520TIP3    H271052   5.220   5.488   6.485 -0.1499 -1.6157  1.6541
16521TIP3   OH271053   0.434   3.605  17.110 -0.1357  0.0518 -0.2681
16521TIP3    H171054   0.517   3.609  17.061 -1.1139  0.9583 -1.9183
16521TIP3    H271055   0.366   3.613  17.042 -1.6076 -1.9880  0.9149
16522TIP3   OH271056   2.080   0.337  15.751  0.3289  0.2277  0.1474
16522TIP3    H171057   2.084   0.265  15.814  2.1293 -1.4672 -1.8290
16522TIP3    H271058   1.988   0.338  15.722 -0.1386 -0.0362  1.5620
16523TIP3   OH271059   3.223   0.523   1.304 -0.3274  0.1596 -0.5479
16523TIP3    H171060   3.216   0.477   1.388  0.9010 -0.3389 -0.6992
16523TIP3    H271061   3.302   0.486   1.264 -0.8536  0.4605 -1.8790
16524TIP3   OH271062   5.116   2.510  15.109 -0.2150 -0.1684 -0.2692
16524TIP3    H171063   5.064   2.487  15.186 -0.1252 -0.2792 -0.2402
16524TIP3    H271064   5.124   2.605  15.113  1.0481 -0.3002  0.6844
16525TIP3   OH271065   5.631   5.132  15.984 -0.2748  0.2493  0.7237
16525TIP3    H171066   5.644   5.103  16.074 -0.1526  2.6494  1.4956
16525TIP3    H271067   5.686   5.073  15.932  0.1236 -0.7629  2.2648
16526TIP3   OH271068   3.367   4.635   4.307  0.6370 -0.4105  0.0236
16526TIP3    H171069   3.362   4.540   4.295 -1.4983 -0.1234 -1.8176
16526TIP3    H271070   3.285   4.658   4.349  2.0340  0.4040  2.3625
16527TIP3   OH271071   0.180   3.294  12.933  0.6327  0.0289  0.7094
16527TIP3    H171072   0.185   3.300  12.838 -1.6587 -0.3772  0.5392
16527TIP3    H271073   0.271   3.284  12.961  1.3887  0.7818 -1.3796
16528TIP3   OH271074   5.360   0.711  15.549 -0.0742  0.5759  0.4959
16528TIP3    H171075   5.448   0.688  15.579  0.0176  0.0708 -0.1509
16528TIP3    H271076   5.370   0.798  15.510  0.8046 -0.7691 -2.4351
16529TIP3   OH271077   3.659   5.389  15.486 -0.4673  0.1475  0.0852
16529TIP3    H171078   3.614   5.348  15.560 -1.5575  0.7047 -0.2548
16529TIP3    H271079   3.709   5.461  15.525 -0.2026 -0.2101  0.4109
16530TIP3   OH271080   6.317   2.915  11.444  0.0351 -0.3690 -0.3108
16530TIP3    H171081   6.350   2.910  11.354 -0.2926 -1.0993 -0.3881
16530TIP3    H271082   6.291   2.826  11.466  2.1500 -0.6067  1.3010
16531TIP3   OH271083   0.090   2.075   1.008 -0.1674  0.1053  0.3905
16531TIP3    H171084   0.010   2.108   0.968  0.8891 -1.0874 -2.9321
16531TIP3    H271085   0.107   1.991   0.963  2.6267  0.0857  1.3530
16532TIP3   OH271086   2.963   4.906  13.355 -0.3785  0.1925  0.1905
16532TIP3    H171087   2.997   4.836  13.412 -1.0578  0.2441  0.6685
16532TIP3    H271088   3.006   4.985  13.386 -0.2335  0.1140  0.1916
16533TIP3   OH271089   2.604   5.004   2.534 -0.7441 -0.5815  0.1113
16533TIP3    H171090   2.513   4.976   2.522 -1.0585  0.2678  0.5227
16533TIP3    H271091   2.641   4.938   2.593 -2.1104  1.0448  2.9003
16534TIP3   OH271092   5.444   0.320   2.318  0.5839  0.0695  0.0509
16534TIP3    H171093   5.359   0.308   2.276  1.6810 -0.7725 -2.0034
16534TIP3    H271094   5.430   0.390   2.382 -1.9111 -0.8442  0.5476
16535TIP3   OH271095   6.290   1.703   1.213 -0.2133  0.5943 -0.0954
16535TIP3    H171096   6.278   1.709   1.308  3.0056  0.9652  0.3426
16535TIP3    H271097   6.315   1.612   1.198 -1.7175  0.2713 -0.7484
16536TIP3   OH271098   6.266   6.364   5.833  0.5533 -0.1723 -0.1865
16536TIP3    H171099   6.341   6.305   5.836  0.6225 -0.1288 -0.9789
16536TIP3    H271100   6.302   6.448   5.804  0.6649  0.6089  2.1130
16537TIP3   OH271101   5.086   2.092   3.362 -0.4919  0.7023  0.3798
16537TIP3    H171102   5.178   2.066   3.363 -0.5748  0.4019  0.4670
16537TIP3    H271103   5.056   2.072   3.274 -0.3800  1.1395  0.2439
16538TIP3   OH271104   1.847   5.399  10.343  0.7638 -0.2378 -0.6556
16538TIP3    H171105   1.834   5.351  10.425 -1.8313  0.3644 -0.6786
16538TIP3    H271106   1.759   5.411  10.308  1.4830  3.0285 -1.5085
16539TIP3   OH271107   3.501   5.444   0.320 -0.1435  0.1759  0.4626
16539TIP3    H171108   3.549   5.527   0.326  0.7175 -0.3464  0.7081
16539TIP3    H271109   3.553   5.381   0.369 -1.8420 -0.0537  2.0400
16540TIP3   OH271110   1.427   6.665   2.704 -0.4632 -0.4009 -0.5316
16540TIP3    H171111   1.509   6.681   2.657  0.4720 -0.6988  0.9235
16540TIP3    H271112   1.407   6.749   2.746  0.1155 -0.8241  0.6167
16541TIP3   OH271113   0.133   0.844  11.983  0.2730 -0.2455 -0.9866
16541TIP3    H171114   0.181   0.915  11.941 -1.5036  0.9899 -1.0283
16541TIP3    H271115   0.100   0.791  11.911 -0.0313  0.0124 -1.0404
16542TIP3   OH271116   6.115   0.487   2.287 -0.4791  0.0879  0.1699
16542TIP3    H171117   6.070   0.571   2.301  1.2324  0.9777  0.4939
16542TIP3    H271118   6.154   0.467   2.372  0.8012 -0.0200 -0.4435
16543TIP3   OH271119   5.351   6.100  15.991  0.2740  0.0995  0.1356
16543TIP3    H171120   5.334   6.103  15.896 -1.1900  0.7024  0.3984
16543TIP3    H271121   5.361   6.007  16.010 -2.0360 -0.2672 -0.2087
16544TIP3   OH271122   5.812   2.779  12.827 -0.1667 -0.9107  0.1516
16544TIP3    H171123   5.878   2.832  12.783 -1.3573 -0.9092 -1.7357
16544TIP3    H271124   5.757   2.842  12.873 -0.3929 -0.6637 -0.4437
16545TIP3   OH271125   2.321   4.091   5.353  0.2326  0.0277  0.2322
16545TIP3    H171126   2.412   4.064   5.364  0.1906 -0.8656 -1.5112
16545TIP3    H271127   2.321   4.145   5.274 -0.7154  0.1746  0.3265
16546TIP3   OH271128   0.072   5.378   1.585  0.5635  0.1581  0.3258
16546TIP3    H171129   0.054   5.315   1.654 -0.1516 -0.9651 -0.8466
16546TIP3    H271130  -0.009   5.381   1.534  1.3246  0.4027 -0.8935
16547TIP3   OH271131   3.252   3.727   0.093  0.7268 -0.1460 -0.5112
16547TIP3    H171132   3.286   3.732   0.183 -0.2872 -0.2830 -0.1189
16547TIP3    H271133   3.285   3.644   0.060 -0.7972 -1.1806  0.5231
16548TIP3   OH271134   6.329   6.079   4.731 -0.1175 -0.5651 -0.2268
16548TIP3    H171135   6.416   6.119   4.727 -0.5097  0.2874 -0.2617
16548TIP3    H271136   6.330   6.013   4.661  0.5147 -0.5842 -0.1975
16549TIP3   OH271137   4.952   4.804  15.573  0.5677 -0.6834 -0.1687
16549TIP3    H171138   5.047   4.818  15.572  0.3969  0.4233 -2.1101
16549TIP3    H271139   4.919   4.854  15.499 -1.6620 -0.3188  1.0287
16550TIP3   OH271140   2.170   1.734   3.607  0.2560  0.2341  0.0772
16550TIP3    H171141   2.194   1.755   3.697 -0.7005  0.4758  0.2885
16550TIP3    H271142   2.106   1.663   3.616 -0.2738  0.6476 -0.3728
16551TIP3   OH271143   2.980   2.718   4.877  0.3104  0.1256  0.1137
16551TIP3    H171144   3.053   2.726   4.816  0.4925 -1.6706  0.0576
16551TIP3    H271145   2.943   2.806   4.882  1.9817  0.8858 -0.4601
16552TIP3   OH271146   3.729   1.744  14.525  0.6910  0.2054  0.3255
16552TIP3    H171147   3.678   1.797  14.463  0.5439 -0.7682 -0.3940
16552TIP3    H271148   3.778   1.684  14.470  1.4275  0.0805  1.1084
16553TIP3   OH271149   1.958   2.365   5.204 -0.4883 -0.5528  0.0026
16553TIP3    H171150   1.969   2.274   5.230 -0.6453 -0.3860  0.6831
16553TIP3    H271151   1.913   2.406   5.279  1.0703  0.4565  0.4257
16554TIP3   OH271152   0.617   2.783   5.769  0.4148  0.6456  0.9355
16554TIP3    H171153   0.548   2.717   5.771  1.4320 -0.3821  3.0683
16554TIP3    H271154   0.649   2.782   5.679 -0.4462 -0.8380  0.6366
16555TIP3   OH271155   5.112   3.677  11.264  0.1876  0.1966 -0.3489
16555TIP3    H171156   5.092   3.769  11.279 -1.7651 -0.3970  0.7830
16555TIP3    H271157   5.131   3.642  11.351 -0.4014 -0.7757 -0.6036
16556TIP3   OH271158   0.627   0.188   4.391 -0.2539  0.5705  0.1846
16556TIP3    H171159   0.572   0.265   4.407 -0.6881  0.0844  1.0658
16556TIP3    H271160   0.659   0.199   4.301 -2.0317  0.6998 -0.4444
16557TIP3   OH271161   1.256   4.104   2.839  0.1764  0.1691 -0.4117
16557TIP3    H171162   1.270   4.012   2.818 -1.0506 -0.3582  0.9992
16557TIP3    H271163   1.328   4.127   2.899 -1.1185 -0.6849  1.5143
16558TIP3   OH271164   0.869   1.187   1.434 -0.3494  0.0954  0.4942
16558TIP3    H171165   0.775   1.200   1.441 -0.2784  0.4606  0.7731
16558TIP3    H271166   0.903   1.271   1.402 -0.3020 -0.5394 -1.1523
16559TIP3   OH271167   4.026   1.953   0.503 -0.0973 -0.0012 -0.3891
16559TIP3    H171168   4.082   2.023   0.537  0.4793  0.8715 -2.9885
16559TIP3    H271169   3.956   1.999   0.456 -1.0736 -1.1394 -0.0668
16560TIP3   OH271170   1.029   1.233  12.261  0.0396  0.2039 -0.3907
16560TIP3    H171171   0.951   1.280  12.293 -0.3420 -0.5966 -0.1343
16560TIP3    H271172   1.081   1.301  12.217 -0.2445  0.9763  0.4467
16561TIP3   OH271173   1.543   4.248   1.999 -0.6197  0.4848 -0.3647
16561TIP3    H171174   1.585   4.208   1.923  1.6033 -0.4497  1.3095
16561TIP3    H271175   1.490   4.178   2.037  0.0079  0.3136  0.1998
16562TIP3   OH271176   3.753   5.434   3.035 -0.0409 -0.3420 -0.3891
16562TIP3    H171177   3.787   5.461   2.949  0.5475 -0.7832 -0.3044
16562TIP3    H271178   3.776   5.341   3.041 -1.5349 -0.7347 -0.4488
16563TIP3   OH271179   1.974   0.878   2.409  0.2954 -0.1545  0.1811
16563TIP3    H171180   1.965   0.787   2.437  1.1170  1.0223  4.7320
16563TIP3    H271181   2.043   0.876   2.343 -0.6944 -2.9825 -0.8514
16564TIP3   OH271182   4.243   1.415  12.461  0.1348 -0.2961 -0.0449
16564TIP3    H171183   4.190   1.454  12.392 -0.8979 -0.9566  0.3679
16564TIP3    H271184   4.261   1.326  12.430  1.5100  0.1177 -0.4545
16565TIP3   OH271185   5.258   1.027   4.295 -0.6905  0.0952 -0.4765
16565TIP3    H171186   5.265   0.945   4.245  0.4844  1.3015 -2.3197
16565TIP3    H271187   5.346   1.042   4.329 -1.2302 -0.1367  1.1150
16566TIP3   OH271188   5.858   0.268  10.872 -0.4871  0.1627  0.2855
16566TIP3    H171189   5.922   0.317  10.924  0.0933  0.4895 -0.7146
16566TIP3    H271190   5.896   0.265  10.784 -1.1990 -0.8487  0.0037
16567TIP3   OH271191   6.526   5.488  15.025 -0.1851  0.5944  0.1565
16567TIP3    H171192   6.524   5.438  14.943  1.3770  0.7917 -0.0197
16567TIP3    H271193   6.450   5.457  15.074  0.5262 -1.6415 -0.1090
16568TIP3   OH271194   6.717   5.065  13.986 -0.2015 -0.0067 -0.5499
16568TIP3    H171195   6.712   4.985  13.934 -3.2769 -2.9507  3.9233
16568TIP3    H271196   6.807   5.066  14.019 -0.2554 -1.9171 -0.2581
16569TIP3   OH271197   3.141   1.235  15.305  0.5234 -0.3180 -0.2274
16569TIP3    H171198   3.161   1.170  15.371  0.5123  0.6775  0.7707
16569TIP3    H271199   3.087   1.300  15.350  0.1881  0.1753 -1.3071
16570TIP3   OH271200   2.320   0.931   2.450 -0.5215 -0.4979  0.1547
16570TIP3    H171201   2.369   0.968   2.524 -1.3445  2.7010 -0.8068
16570TIP3    H271202   2.360   0.972   2.373 -2.2619 -0.7447 -0.8821
16571TIP3   OH271203   0.548   5.845   0.101 -0.2450  0.2166  0.0727
16571TIP3    H171204   0.479   5.790   0.138 -0.4339 -0.0196 -0.6239
16571TIP3    H271205   0.554   5.819   0.009 -0.4645  1.4740 -0.3155
16572TIP3   OH271206   0.508   2.384  13.351 -0.3148 -0.4108 -0.3967
16572TIP3    H171207   0.451   2.393  13.428  0.2783 -0.0365  0.0024
16572TIP3    H271208   0.447   2.371  13.278 -0.9925  1.3537 -0.1792
16573TIP3   OH271209   4.806   2.661   5.403 -0.3810  0.2864  0.5021
16573TIP3    H171210   4.812   2.700   5.491 -1.1790 -0.5808  0.9559
16573TIP3    H271211   4.713   2.667   5.381 -0.2319  0.1972 -0.1478
16574TIP3   OH271212   3.265   6.241  14.001  0.1576  0.3818 -0.2111
16574TIP3    H171213   3.305   6.314  13.954 -0.4163  0.1561 -1.0789
16574TIP3    H271214   3.195   6.211  13.942  0.1704 -0.6364  0.2850
16575TIP3   OH271215   2.504   1.470  15.445 -0.0355 -0.3332 -0.2066
16575TIP3    H171216   2.599   1.464  15.438  0.1269  0.4157  1.2520
16575TIP3    H271217   2.485   1.563  15.431 -0.3716 -0.1397  1.5165
16576TIP3   OH271218   4.812   4.990   4.961 -0.3858  0.0222  0.2302
16576TIP3    H171219   4.874   5.016   4.892 -0.0065 -1.1684  0.1230
16576TIP3    H271220   4.750   5.063   4.965  1.3573  1.5030  0.7615
16577TIP3   OH271221   0.486   0.736  10.809  0.6101  0.4161  0.0999
16577TIP3    H171222   0.399   0.746  10.847  1.0470 -0.4874  1.3579
16577TIP3    H271223   0.519   0.825  10.801  0.0275  0.6894  0.7082
16578TIP3   OH271224   5.568   4.224   5.800  0.3804  0.0250  0.0824
16578TIP3    H171225   5.508   4.171   5.853  0.3893  0.7243  0.8030
16578TIP3    H271226   5.517   4.302   5.778  1.2407  0.9325  1.2605
16579TIP3   OH271227   5.723   4.019   5.111  0.4560  0.4124 -0.0238
16579TIP3    H171228   5.636   4.031   5.149 -0.1555 -0.8332 -0.9861
16579TIP3    H271229   5.768   4.102   5.126 -0.7147  0.8777  0.9579
16580TIP3   OH271230   2.063   3.876   2.450 -0.4241  0.2230  0.1848
16580TIP3    H171231   2.067   3.963   2.489 -2.6891 -1.1166  3.6102
16580TIP3    H271232   2.153   3.845   2.451  0.3899  2.3782 -0.9194
16581TIP3   OH271233   4.749   6.189   1.970 -0.0285 -0.3550 -0.3388
16581TIP3    H171234   4.702   6.218   2.048  0.7633 -0.0118  0.0204
16581TIP3    H271235   4.756   6.268   1.916 -2.6883 -1.1162 -1.8784
16582TIP3   OH271236   3.302   0.183  13.778  0.0565 -0.1240  0.1596
16582TIP3    H171237   3.362   0.214  13.845  1.3135  0.3310 -1.1401
16582TIP3    H271238   3.344   0.105  13.743  0.6131  0.9830 -1.7160
16583TIP3   OH271239   5.826   5.162  17.063  0.1676  0.3237 -0.5482
16583TIP3    H171240   5.811   5.093  17.129  2.1000  0.6876  0.2949
16583TIP3    H271241   5.753   5.223  17.076  0.4524  0.3226  1.2026
16584TIP3   OH271242   6.668   4.516  16.094 -0.2637 -0.4455 -0.1285
16584TIP3    H171243   6.708   4.493  16.178  0.2744 -0.8819 -0.5085
16584TIP3    H271244   6.725   4.584  16.058 -0.6250 -0.0889 -0.0418
16585TIP3   OH271245   0.886   4.181   6.205 -0.6872  0.5399 -0.2414
16585TIP3    H171246   0.971   4.191   6.162  0.0900 -1.6795  0.7167
16585TIP3    H271247   0.895   4.230   6.287 -0.3023  0.2639 -0.1171
16586TIP3   OH271248   6.395   3.347  17.107  0.2881  0.2825 -0.1609
16586TIP3    H171249   6.457   3.394  17.051 -0.1543  1.7069  0.5118
16586TIP3    H271250   6.450   3.292  17.163  0.9250  1.2595  0.1844
16587TIP3   OH271251   5.205   4.090  15.574 -0.7933  0.1395  0.1186
16587TIP3    H171252   5.229   4.032  15.647  1.6817  0.6659 -0.2356
16587TIP3    H271253   5.161   4.033  15.511 -1.0613 -0.7386  1.0901
16588TIP3   OH271254   5.273   5.969  11.290  0.2244  0.3323  0.5274
16588TIP3    H171255   5.352   5.932  11.330  1.0752  0.7492 -0.7067
16588TIP3    H271256   5.303   6.050  11.249 -0.1366 -1.0109 -2.6052
16589TIP3   OH271257   0.341   0.377  12.474  0.2430  0.4942  0.5754
16589TIP3    H171258   0.396   0.455  12.481  0.1726  0.5823  0.1743
16589TIP3    H271259   0.392   0.308  12.514 -0.2549  1.0277  2.1475
16590TIP3   OH271260   2.958   1.872  15.763  0.3358 -0.0057  0.2868
16590TIP3    H171261   2.877   1.856  15.713 -0.7477 -1.4254  2.4527
16590TIP3    H271262   2.958   1.805  15.831  3.0300  0.4035  0.7301
16591TIP3   OH271263   0.547   1.310   2.715 -0.4968  0.0109 -0.1051
16591TIP3    H171264   0.581   1.388   2.671 -0.3584 -0.5807 -1.0709
16591TIP3    H271265   0.592   1.308   2.799 -1.4960  1.7037  0.4811
16592TIP3   OH271266   1.395   6.558  12.638  0.0970 -1.0372 -0.2904
16592TIP3    H171267   1.468   6.562  12.699  0.6104  0.8865 -1.0164
16592TIP3    H271268   1.435   6.562  12.551 -0.8722  0.6155 -0.6885
16593TIP3   OH271269   5.092   6.145   3.166 -0.1051  0.1892 -0.5104
16593TIP3    H171270   5.174   6.111   3.129 -0.6561  0.3438 -1.9083
16593TIP3    H271271   5.040   6.066   3.184 -0.4850  0.1869 -1.6157
16594TIP3   OH271272   1.632   6.484  13.880  0.3655 -0.0915  0.0949
16594TIP3    H171273   1.599   6.398  13.906 -0.8826  0.4775  0.4278
16594TIP3    H271274   1.559   6.524  13.832  1.2601  0.4223 -0.8500
16595TIP3   OH271275   1.750   2.757   0.004  0.6476  0.1294  0.0799
16595TIP3    H171276   1.742   2.791  -0.084 -1.0419 -2.0078 -0.6445
16595TIP3    H271277   1.844   2.743   0.016  1.1001  2.4218 -0.5551
16596TIP3   OH271278   3.044   0.884  16.586 -0.0335 -0.0402  0.1958
16596TIP3    H171279   3.008   0.797  16.605 -1.1736  0.4536  0.3000
16596TIP3    H271280   2.972   0.931  16.544  0.6571  0.7837 -0.0637
16597TIP3   OH271281   0.117   4.553   2.081 -0.4232  0.6750  0.3909
16597TIP3    H171282   0.050   4.485   2.071 -1.5732  1.7502  0.5695
16597TIP3    H271283   0.107   4.607   2.002  1.6430 -0.3326 -0.5995
16598TIP3   OH271284   5.061   0.944   1.625 -0.4537 -0.0305  0.0927
16598TIP3    H171285   5.124   0.900   1.568 -0.2002  0.2744  0.1406
16598TIP3    H271286   4.981   0.890   1.618 -0.2728 -0.2667 -0.1689
16599TIP3   OH271287   2.871   3.401  14.859 -0.5819 -0.4131  0.0209
16599TIP3    H171288   2.962   3.381  14.841 -0.2548  1.0855 -0.0522
16599TIP3    H271289   2.827   3.316  14.858  1.1800 -1.4043  2.3879
16600TIP3   OH271290   2.654   4.233  15.488 -0.1159  0.7670  0.0159
16600TIP3    H171291   2.687   4.249  15.399 -1.2607 -1.6293 -0.8895
16600TIP3    H271292   2.560   4.254  15.482 -0.6782 -1.5783 -0.0006
16601TIP3   OH271293   3.520   0.799  14.909  0.5244 -0.0758 -0.8722
16601TIP3    H171294   3.443   0.745  14.932 -0.5460  0.9140 -2.0441
16601TIP3    H271295   3.575   0.795  14.987 -1.2171  0.0656  0.4187
16602TIP3   OH271296   6.508   2.659  15.243 -0.3318  0.5967  0.1059
16602TIP3    H171297   6.469   2.702  15.167  0.3866  2.4555  0.7704
16602TIP3    H271298   6.457   2.690  15.317  1.7377  2.2616  0.8715
16603TIP3   OH271299   0.389   4.759   0.417 -0.0285  0.1919 -0.5745
16603TIP3    H171300   0.373   4.733   0.327 -0.1211  0.2380 -0.5706
16603TIP3    H271301   0.433   4.843   0.410  0.3513 -0.0039 -0.5902
16604TIP3   OH271302   6.766   2.699   2.928  0.2809 -0.0006 -0.3068
16604TIP3    H171303   6.780   2.745   3.011 -0.3870  0.0926 -0.2469
16604TIP3    H271304   6.710   2.757   2.877  0.0828 -0.3923 -0.5405
16605TIP3   OH271305   3.660   2.204  15.842  0.0155  0.2131 -0.2857
16605TIP3    H171306   3.617   2.128  15.880  1.5626 -0.1830  0.7297
16605TIP3    H271307   3.746   2.172  15.814 -0.2617  1.0050 -2.1786
16606TIP3   OH271308   4.875   5.566   4.754  0.3941  0.2036  0.4591
16606TIP3    H171309   4.783   5.591   4.745  0.8509  1.8479  0.1577
16606TIP3    H271310   4.872   5.481   4.797 -1.2293  0.9204  1.8611
16607TIP3   OH271311   3.493   2.528   0.198  0.0872  0.6179  0.0689
16607TIP3    H171312   3.551   2.501   0.269 -0.0184 -0.3098 -0.1935
16607TIP3    H271313   3.459   2.613   0.226  1.7951  1.3148  0.0956
16608TIP3   OH271314   1.321   0.076  11.306 -0.2611  0.1408  0.2437
16608TIP3    H171315   1.252   0.035  11.254 -0.4799 -0.6851  1.1783
16608TIP3    H271316   1.353   0.007  11.363  0.8999  0.6930  0.2807
16609TIP3   OH271317   5.465   4.449  12.948 -0.2278 -0.1572 -0.3958
16609TIP3    H171318   5.370   4.440  12.961 -0.5047  0.8112 -1.6380
16609TIP3    H271319   5.478   4.428  12.855  0.8090 -0.5335 -0.1678
16610TIP3   OH271320   1.784   2.218   4.460  0.2352  0.6998 -0.1718
16610TIP3    H171321   1.730   2.191   4.534  1.2276 -2.1688 -0.4298
16610TIP3    H271322   1.726   2.214   4.385  0.3676 -0.7795 -0.2040
16611TIP3   OH271323   0.594   6.309  12.168  0.0490 -0.3784  0.2997
16611TIP3    H171324   0.661   6.318  12.236 -0.3770  1.5910  0.4713
16611TIP3    H271325   0.548   6.393  12.168 -1.5013 -1.2105 -0.7962
16612TIP3   OH271326   5.588   0.813  17.240 -0.2362  0.4066  0.5955
16612TIP3    H171327   5.639   0.882  17.283 -1.9265  0.1405  3.1708
16612TIP3    H271328   5.536   0.859  17.174 -0.9925  1.5711  1.9554
16613TIP3   OH271329   4.942   3.574   4.719 -0.5546 -0.1851  0.4374
16613TIP3    H171330   4.853   3.606   4.704 -1.0650 -0.7340  2.1740
16613TIP3    H271331   4.931   3.483   4.746  0.5689 -0.4352  0.0898
16614TIP3   OH271332   2.316   5.723   3.625  0.1215  0.1289  0.2169
16614TIP3    H171333   2.242   5.690   3.574  0.5427 -3.0092  1.5047
16614TIP3    H271334   2.371   5.768   3.561 -0.1879 -2.2829 -1.8190
16615TIP3   OH271335   3.952   3.453   6.973 -0.0292 -0.2723  0.2177
16615TIP3    H171336   3.882   3.487   7.029  0.1811 -1.8176  1.4706
16615TIP3    H271337   3.961   3.361   6.999  0.2472 -0.9715 -2.2165
16616TIP3   OH271338   4.983   3.156  11.726 -0.0965  0.0527 -0.4163
16616TIP3    H171339   4.989   3.184  11.818  0.7971  0.0766 -0.4780
16616TIP3    H271340   4.890   3.164  11.705 -0.7241 -2.3132  1.2237
16617TIP3   OH271341   6.218   4.517   2.701  0.6720 -0.3845 -0.1681
16617TIP3    H171342   6.162   4.439   2.693 -2.0365  1.4582  0.2251
16617TIP3    H271343   6.215   4.539   2.794  0.8358  0.5887 -0.3894
16618TIP3   OH271344   6.454   2.545   5.067 -0.4100 -0.2765 -0.0063
16618TIP3    H171345   6.497   2.615   5.020  0.7917 -1.6092 -0.9309
16618TIP3    H271346   6.525   2.499   5.113 -1.1388 -0.9948  0.4239
16619TIP3   OH271347   5.064   1.741   4.291  0.2314  0.0142 -0.1303
16619TIP3    H171348   4.984   1.752   4.239  0.3457  0.0588 -0.2956
16619TIP3    H271349   5.087   1.829   4.319 -0.8407 -0.2002  1.5078
16620TIP3   OH271350   4.181   1.001   1.840 -0.4159 -0.2927 -0.2248
16620TIP3    H171351   4.247   1.056   1.883 -0.8900 -0.6369  0.9609
16620TIP3    H271352   4.181   1.030   1.749  1.0882 -0.0104 -0.1467
16621TIP3   OH271353   6.611   4.643   3.536 -0.2838  0.3222  0.4107
16621TIP3    H171354   6.547   4.684   3.478  0.1961 -0.9939 -1.1063
16621TIP3    H271355   6.603   4.690   3.618 -1.3498  1.9070 -0.5728
16622TIP3   OH271356   1.059   6.401   5.539  0.4214  0.6328  0.5143
16622TIP3    H171357   1.095   6.328   5.489  1.4702  2.0414 -0.8262
16622TIP3    H271358   1.036   6.363   5.624  1.8442 -1.0397  0.1725
16623TIP3   OH271359   0.712   5.589   0.891 -0.4458 -0.0370  0.0444
16623TIP3    H171360   0.675   5.505   0.867 -0.0911 -0.4908  1.0624
16623TIP3    H271361   0.643   5.632   0.942 -1.3584  1.0967 -2.0861
16624TIP3   OH271362   2.434   4.086  16.590 -0.1177 -0.1357  0.1769
16624TIP3    H171363   2.408   4.116  16.677 -1.5508 -0.0118 -0.2802
16624TIP3    H271364   2.415   3.993  16.589 -2.3108  0.2955 -0.7744
16625TIP3   OH271365   1.145   6.569   5.334 -0.1600  0.3290  0.2490
16625TIP3    H171366   1.132   6.502   5.401  2.3753  0.0579  0.5105
16625TIP3    H271367   1.230   6.608   5.355  0.3249  0.7532 -2.3674
16626TIP3   OH271368   2.303   5.977  13.518 -0.0293 -0.1018  0.3429
16626TIP3    H171369   2.297   6.013  13.607 -1.8913  1.1484 -0.2511
16626TIP3    H271370   2.213   5.958  13.494  0.4033  0.1059 -1.4966
16627TIP3   OH271371   3.580   2.973  11.576 -0.1569  0.6515  0.4282
16627TIP3    H171372   3.671   2.980  11.605  0.6506 -0.9354 -1.6354
16627TIP3    H271373   3.551   3.064  11.570  2.5706  1.3974 -2.7136
16628TIP3   OH271374   0.187   3.264  10.897  0.6049  0.6002 -0.4696
16628TIP3    H171375   0.244   3.247  10.822  0.5273  0.2592 -0.4533
16628TIP3    H271376   0.098   3.259  10.862  0.4849 -1.8981  0.0900
16629TIP3   OH271377   2.638   0.776   0.995 -0.1513 -0.1588 -0.0749
16629TIP3    H171378   2.686   0.821   1.065  0.6584 -0.6216 -0.3253
16629TIP3    H271379   2.546   0.791   1.016  0.0962  0.7891  0.3860
16630TIP3   OH271380   3.309   6.740  14.728 -0.1491  0.5638  0.0551
16630TIP3    H171381   3.397   6.732  14.763  0.3766 -0.8784 -1.5146
16630TIP3    H271382   3.321   6.748  14.633 -1.6866  0.6447 -0.1601
16631TIP3   OH271383   4.560   4.722  15.874  0.0087 -0.2817 -0.1723
16631TIP3    H171384   4.558   4.728  15.778 -0.1026  2.7641 -0.0310
16631TIP3    H271385   4.477   4.680  15.897  0.3780 -1.7319 -1.4338
16632TIP3   OH271386   6.398   1.985   3.002 -0.3680 -0.4358  0.2170
16632TIP3    H171387   6.405   2.003   3.095  0.1347 -0.0417  0.1004
16632TIP3    H271388   6.351   1.901   2.998  0.7068 -1.0703  0.8509
16633TIP3   OH271389   1.600   3.894  14.281 -0.0653  0.3387 -0.0071
16633TIP3    H171390   1.529   3.952  14.253 -0.1940  0.7922  1.2418
16633TIP3    H271391   1.670   3.953  14.308  0.2956 -0.0969  0.0155
16634TIP3   OH271392   5.657   6.408  11.197  0.1822  0.3643 -0.4137
16634TIP3    H171393   5.686   6.427  11.108  1.3885  2.5066  0.3975
16634TIP3    H271394   5.738   6.390  11.245 -0.4320 -0.3665  0.3602
16635TIP3   OH271395   1.762   5.088  12.288  0.3779  0.0957  0.1981
16635TIP3    H171396   1.789   5.145  12.359  0.3512  1.7515 -1.0899
16635TIP3    H271397   1.804   5.125  12.210 -1.4562 -0.3134 -1.0248
16636TIP3   OH271398   6.039   0.526  12.092  0.4081 -0.5203  0.3576
16636TIP3    H171399   6.063   0.510  12.183  1.9991  0.2053  0.0804
16636TIP3    H271400   6.121   0.553  12.050 -0.1979 -1.3338 -1.3996
16637TIP3   OH271401   2.625   5.746  16.409  0.1927 -0.6577  0.1539
16637TIP3    H171402   2.555   5.765  16.347 -0.8702 -0.9791  1.2304
16637TIP3    H271403   2.610   5.655  16.435  1.3825 -0.9302 -0.0572
16638TIP3   OH271404   2.229   3.059   2.395 -0.0962  0.0656  0.1934
16638TIP3    H171405   2.257   3.041   2.485 -0.3475 -0.0442  0.2515
16638TIP3    H271406   2.133   3.059   2.400 -0.0996  1.0885  0.1250
16639TIP3   OH271407   1.287   0.086  11.876  0.5785 -0.1483  0.5336
16639TIP3    H171408   1.207   0.036  11.863 -0.2853  0.8203  1.9892
16639TIP3    H271409   1.262   0.177  11.860  1.5626  0.0846  0.2612
16640TIP3   OH271410   3.248   5.731   3.466 -0.1959  0.3462 -0.1222
16640TIP3    H171411   3.274   5.796   3.402 -1.4643  1.4464  0.4589
16640TIP3    H271412   3.323   5.672   3.473  0.2450  0.6580 -2.0335
16641TIP3   OH271413   3.991   6.042   6.281  0.3141  0.2000 -0.6128
16641TIP3    H171414   4.081   6.021   6.259  0.3534  0.0755 -0.3386
16641TIP3    H271415   3.955   5.960   6.315 -0.0213  0.1408 -1.1042
16642TIP3   OH271416   6.530   5.353  11.244  0.0314  0.0181  0.5987
16642TIP3    H171417   6.544   5.345  11.150  0.0377  0.7589  0.5316
16642TIP3    H271418   6.517   5.263  11.275  0.2738 -0.2477 -0.0682
16643TIP3   OH271419   3.220   5.973   1.376 -0.0986  0.3600  0.0794
16643TIP3    H171420   3.256   5.884   1.379 -0.3268  0.2399 -0.6699
16643TIP3    H271421   3.278   6.024   1.432 -0.7999 -0.5535  1.6652
16644TIP3   OH271422   2.627   3.548  12.796 -0.2690  0.0098  0.2625
16644TIP3    H171423   2.576   3.481  12.842  1.1334  0.0910  1.9777
16644TIP3    H271424   2.633   3.620  12.858 -0.9313  1.3477 -1.2119
16645TIP3   OH271425   0.662   0.772   1.698 -0.4785 -0.6697  0.2497
16645TIP3    H171426   0.720   0.763   1.623 -0.3737 -2.3520  0.5224
16645TIP3    H271427   0.599   0.701   1.689 -0.2455 -1.1171  1.9313
16646TIP3   OH271428   2.422   6.071   4.688 -0.0808 -0.5177 -0.2921
16646TIP3    H171429   2.392   5.986   4.654 -1.7290  0.0789 -0.3423
16646TIP3    H271430   2.417   6.130   4.613 -1.1630  0.1746  0.3240
16647TIP3   OH271431   5.296   4.423  14.526 -0.4124  0.5289 -0.2287
16647TIP3    H171432   5.272   4.512  14.499  0.3294  0.6794 -0.4066
16647TIP3    H271433   5.237   4.366  14.475 -0.9748  0.9189 -0.0221
16648TIP3   OH271434   0.802   3.364  13.304 -0.0053  0.2803 -0.3858
16648TIP3    H171435   0.708   3.353  13.286  0.2813 -1.5624 -0.8605
16648TIP3    H271436   0.806   3.434  13.369 -1.7324  0.1227 -0.0915
16649TIP3   OH271437   3.756   2.524   0.346  0.0863  0.1931  0.1588
16649TIP3    H171438   3.762   2.602   0.402  2.3213 -1.3780  2.1725
16649TIP3    H271439   3.836   2.525   0.294 -0.5711  0.0208 -0.8630
16650TIP3   OH271440   3.838   4.437  10.835  0.1747  0.0180  0.1024
16650TIP3    H171441   3.755   4.390  10.841  0.0943  0.2882  1.1930
16650TIP3    H271442   3.885   4.394  10.763 -0.9650 -0.0331 -0.6286
16651TIP3   OH271443   1.038   1.502  14.811  0.9255 -0.0792  0.4042
16651TIP3    H171444   0.992   1.432  14.858 -1.1431  0.8699 -0.1819
16651TIP3    H271445   1.091   1.456  14.746 -1.4837 -1.0889 -0.9135
16652TIP3   OH271446   3.491   0.434   2.656  0.3180  0.0318 -0.1128
16652TIP3    H171447   3.434   0.470   2.724 -0.8342  0.4187 -1.2648
16652TIP3    H271448   3.532   0.357   2.697  0.2946  0.7370  1.2805
16653TIP3   OH271449   4.158   1.177  14.320  0.8375  0.1685  0.0676
16653TIP3    H171450   4.085   1.116  14.321  1.0290 -0.0708 -0.4011
16653TIP3    H271451   4.212   1.153  14.396  3.0858 -2.8960 -2.3791
16654TIP3   OH271452   2.623   3.088   5.961 -0.3889 -0.1600 -0.2412
16654TIP3    H171453   2.561   3.097   6.034  0.5713  0.8702  0.4705
16654TIP3    H271454   2.617   3.171   5.914 -1.3328 -0.9928 -1.6250
16655TIP3   OH271455   2.219   6.120  12.353 -0.4372  0.0453  0.1609
16655TIP3    H171456   2.315   6.124  12.346 -0.3705  1.2509  1.5498
16655TIP3    H271457   2.202   6.133  12.446 -1.8920 -1.6638  0.1617
16656TIP3   OH271458   0.063   0.673   0.542  0.1145 -0.1117 -0.2266
16656TIP3    H171459   0.116   0.746   0.510 -0.1017 -0.0267 -0.3942
16656TIP3    H271460   0.032   0.702   0.628 -2.3121  1.1929 -1.4832
16657TIP3   OH271461   5.604   1.592   5.030 -0.0569 -0.0608  0.1337
16657TIP3    H171462   5.550   1.619   4.955 -0.7571  0.3904  0.8037
16657TIP3    H271463   5.606   1.497   5.025  0.3324 -0.0116 -0.7671
16658TIP3   OH271464   1.015   1.442   0.560 -0.2178 -0.0004  0.1431
16658TIP3    H171465   1.024   1.346   0.559  0.0171  0.0028 -2.6677
16658TIP3    H271466   1.081   1.471   0.623 -0.4360 -1.6792  1.2083
16659TIP3   OH271467   4.554   1.682  12.573  0.1319 -0.2644 -0.1417
16659TIP3    H171468   4.558   1.614  12.639 -0.4769  0.6464  0.8583
16659TIP3    H271469   4.535   1.636  12.491 -1.9187 -1.1481  0.7957
16660TIP3   OH271470   0.552   6.679   6.066 -0.7883  0.5151 -0.1564
16660TIP3    H171471   0.498   6.681   5.987 -2.0100  1.9482  0.7031
16660TIP3    H271472   0.625   6.737   6.047  1.8854 -3.2865 -2.2627
16661TIP3   OH271473   1.081   5.528  12.784 -0.0713 -0.4817  0.2736
16661TIP3    H171474   1.076   5.585  12.861  0.2272  1.1242 -0.8697
16661TIP3    H271475   1.059   5.441  12.817  2.3910 -0.2797  2.6436
16662TIP3   OH271476   3.437   5.962  13.799 -0.1888  0.1701  0.0369
16662TIP3    H171477   3.417   5.932  13.887  1.8154 -0.3787  0.3156
16662TIP3    H271478   3.520   5.920  13.777  0.7637  2.5274 -1.0279
16663TIP3   OH271479   4.587   3.572  11.960  0.0077 -0.2069  0.1973
16663TIP3    H171480   4.515   3.569  12.023  0.9165 -0.7231  1.2508
16663TIP3    H271481   4.578   3.491  11.909  0.4693 -0.8261  1.0694
16664TIP3   OH271482   2.585   2.152  16.488 -0.3291  0.2715  0.2026
16664TIP3    H171483   2.496   2.136  16.458 -0.7616  0.5367  1.3146
16664TIP3    H271484   2.590   2.107  16.573  0.0694  1.6662  0.9282
16665TIP3   OH271485   2.528   4.215   5.575 -0.8400  0.0266 -0.7312
16665TIP3    H171486   2.450   4.218   5.630 -0.0594 -1.0726  0.4610
16665TIP3    H271487   2.562   4.126   5.586  0.4477  0.4164 -1.4220
16666TIP3   OH271488   4.827   1.145  12.296  0.4009 -0.5107  0.4216
16666TIP3    H171489   4.732   1.142  12.299  0.2901 -0.3201 -1.8866
16666TIP3    H271490   4.847   1.172  12.206  2.6087  0.3544  1.1476
16667TIP3   OH271491   0.959   6.621   3.079 -0.2522  0.2692  0.4761
16667TIP3    H171492   1.052   6.642   3.073 -0.1089 -0.5444 -0.2117
16667TIP3    H271493   0.933   6.602   2.989 -0.2892 -2.7520  1.0741
16668TIP3   OH271494   6.776   2.064   2.663 -0.1305  0.1889  0.4503
16668TIP3    H171495   6.804   2.146   2.704  0.5047  0.1992  0.0037
16668TIP3    H271496   6.846   2.043   2.601 -0.4924 -0.4713  0.2602
16669TIP3   OH271497   3.874   5.420   3.616 -0.4654  0.3057 -0.5834
16669TIP3    H171498   3.872   5.374   3.700  1.5602  0.1119 -0.6140
16669TIP3    H271499   3.893   5.352   3.551 -1.0991  0.6071 -1.0915
16670TIP3   OH271500   4.470   6.721   3.867 -0.0134  0.0524  0.2629
16670TIP3    H171501   4.405   6.774   3.912  1.5824  1.0348  1.4819
16670TIP3    H271502   4.513   6.781   3.806 -0.9140 -0.8342 -1.2776
16671TIP3   OH271503   3.807   3.210   2.756  0.1453 -0.2082 -0.0035
16671TIP3    H171504   3.791   3.288   2.809  1.6099  0.2157 -0.1695
16671TIP3    H271505   3.893   3.179   2.783  0.4652 -0.5796 -1.3747
16672TIP3   OH271506   4.307   6.297  15.543  0.0094  0.1690 -0.0757
16672TIP3    H171507   4.390   6.301  15.590 -0.6862  2.5736  1.0639
16672TIP3    H271508   4.328   6.255  15.460  1.8151 -1.6283  1.2501
16673TIP3   OH271509   1.591   0.392  13.410 -0.2085  0.6169  0.2575
16673TIP3    H171510   1.536   0.424  13.339 -3.0006 -0.2027  1.9765
16673TIP3    H271511   1.669   0.447  13.408 -1.8645  2.9619 -1.1351
16674TIP3   OH271512   4.252   6.359  13.566  0.0185 -0.5425  0.5870
16674TIP3    H171513   4.237   6.310  13.486 -0.4588 -0.2512  0.4948
16674TIP3    H271514   4.253   6.293  13.635 -0.3211 -0.7126  0.4277
16675TIP3   OH271515   1.824   2.858   3.355  0.1186 -0.4697  0.4923
16675TIP3    H171516   1.845   2.774   3.395  0.3292 -0.0831  1.1999
16675TIP3    H271517   1.870   2.857   3.271 -2.4523 -2.3792 -0.9929
16676TIP3   OH271518   5.737   3.491   5.709 -0.2299 -0.4943  0.1140
16676TIP3    H171519   5.666   3.550   5.736 -0.0278 -0.1196 -0.1727
16676TIP3    H271520   5.814   3.524   5.755  0.3067  0.6999 -1.6164
16677TIP3   OH271521   5.173   3.634   0.166  0.2516 -0.7492 -0.3548
16677TIP3    H171522   5.220   3.591   0.095  1.5896  2.0249 -1.1846
16677TIP3    H271523   5.220   3.607   0.245  1.1736 -0.6880 -0.8743
16678TIP3   OH271524   0.889   0.413  13.686 -0.3555 -0.6216  0.2002
16678TIP3    H171525   0.866   0.336  13.635 -1.3610 -0.6882  0.7364
16678TIP3    H271526   0.809   0.434  13.734  0.1752  0.2371  0.7124
16679TIP3   OH271527   3.025   4.840   5.235 -0.9468 -0.7162 -0.1961
16679TIP3    H171528   2.962   4.841   5.308 -0.8924  1.1735 -0.1336
16679TIP3    H271529   3.050   4.932   5.225  3.1148 -1.6412  0.8741
16680TIP3   OH271530   6.058   1.003  16.780 -0.0381 -0.1556  0.4270
16680TIP3    H171531   6.007   0.922  16.793  0.9592 -0.5454  2.0122
16680TIP3    H271532   6.113   1.009  16.858  0.5609  1.5824 -0.1221
16681TIP3   OH271533   5.219   6.383  14.464 -0.7772  0.1071  0.1105
16681TIP3    H171534   5.202   6.336  14.382  0.6119  0.1128 -0.1927
16681TIP3    H271535   5.310   6.410  14.457 -0.9059  0.8471  1.2999
16682TIP3   OH271536   0.525   2.475  12.602 -0.3012  0.0191 -0.7151
16682TIP3    H171537   0.553   2.385  12.588 -2.3553 -0.1860 -3.9747
16682TIP3    H271538   0.599   2.528  12.571 -0.8285 -0.5405 -3.0055
16683TIP3   OH271539   2.044   6.289  14.050  0.3979 -0.2534  0.2856
16683TIP3    H171540   2.036   6.300  14.145 -2.0559 -2.4203  0.3769
16683TIP3    H271541   2.075   6.199  14.039 -0.0231 -0.2488 -0.9966
16684TIP3   OH271542   0.061   6.766   5.360  0.4921  0.5294 -0.2263
16684TIP3    H171543   0.035   6.688   5.312 -0.9095  1.2804 -0.7218
16684TIP3    H271544   0.050   6.742   5.452  1.1737 -0.2264 -0.3389
16685TIP3   OH271545   5.780   1.977   3.305 -0.7772  0.1149 -0.3641
16685TIP3    H171546   5.698   1.976   3.355 -0.6287 -1.9778 -0.1401
16685TIP3    H271547   5.790   1.888   3.273  0.4190  0.8288 -2.0484
16686TIP3   OH271548   2.387   4.030  16.267 -0.2013 -0.1311 -0.0691
16686TIP3    H171549   2.457   4.088  16.236 -1.4015  1.1974 -0.3604
16686TIP3    H271550   2.391   4.037  16.362  1.3030 -1.5813 -0.0014
16687TIP3   OH271551   0.361   5.494  14.842 -0.9883 -0.7295  0.9911
16687TIP3    H171552   0.410   5.525  14.918 -2.1237 -0.0541  1.4677
16687TIP3    H271553   0.425   5.493  14.771 -0.7168  1.9856  1.1511
16688TIP3   OH271554   1.606   4.664   0.732  0.6689 -0.4482  0.0871
16688TIP3    H171555   1.696   4.692   0.744  0.7463 -0.2129 -0.9851
16688TIP3    H271556   1.612   4.570   0.713  0.6587 -0.4961  0.3145
16689TIP3   OH271557   3.717   0.197  16.476  0.4033  0.0274 -0.1744
16689TIP3    H171558   3.680   0.129  16.421  0.9635  0.3350 -0.9325
16689TIP3    H271559   3.787   0.154  16.525  1.7240  0.3756 -1.7142
16690TIP3   OH271560   4.894   2.967  15.164 -0.0898 -0.4272 -0.0291
16690TIP3    H171561   4.982   2.993  15.189  0.1105 -1.0668 -0.0778
16690TIP3    H271562   4.902   2.938  15.073 -0.3003 -0.7553  0.0592
16691TIP3   OH271563   3.228   4.592   4.020 -0.3914 -0.2015 -0.0467
16691TIP3    H171564   3.139   4.626   4.032 -0.6281 -0.8033 -0.0548
16691TIP3    H271565   3.284   4.668   4.028 -0.7081 -0.1937  2.6497
16692TIP3   OH271566   1.466   4.048   1.810 -0.1106 -0.1999  0.4149
16692TIP3    H171567   1.470   3.953   1.805 -1.5725 -0.2673  0.2997
16692TIP3    H271568   1.409   4.066   1.886  0.7783  0.5838  0.9045
16693TIP3   OH271569   2.693   1.261  14.137  0.8392  0.0121 -0.0051
16693TIP3    H171570   2.765   1.271  14.200  1.3019  2.4882 -0.8491
16693TIP3    H271571   2.657   1.175  14.154  1.3759  0.3822  3.2249
16694TIP3   OH271572   3.003   5.456   5.590  0.5814  0.0057  0.5823
16694TIP3    H171573   3.035   5.410   5.668 -0.0630 -2.3889 -0.5041
16694TIP3    H271574   2.912   5.425   5.581  1.1134 -0.9109 -1.9372
16695TIP3   OH271575   6.421   4.880   4.362 -0.4021 -0.3272  0.3458
16695TIP3    H171576   6.443   4.945   4.295 -0.8746 -0.3466  0.1688
16695TIP3    H271577   6.487   4.892   4.430 -0.1176 -0.0805  0.0290
16696TIP3   OH271578   2.910   0.142  12.893  0.1516  0.0343  0.4683
16696TIP3    H171579   2.903   0.047  12.897  1.2094 -0.0843 -0.2436
16696TIP3    H271580   3.003   0.159  12.881 -0.2702  1.0626 -1.7042
16697TIP3   OH271581   0.518   2.316  14.883 -0.1912 -0.1865  0.2356
16697TIP3    H171582   0.537   2.223  14.872 -0.0920 -0.0350 -0.9313
16697TIP3    H271583   0.603   2.356  14.900 -0.0012 -0.0750 -0.9570
16698TIP3   OH271584   2.123   0.539   3.798 -0.0746  0.2636 -0.6047
16698TIP3    H171585   2.174   0.619   3.811  1.0540 -0.7295  1.4204
16698TIP3    H271586   2.188   0.472   3.777 -0.6442 -0.7862  0.9049
16699TIP3   OH271587   5.415   5.184   2.891 -1.0057  0.7036 -0.3902
16699TIP3    H171588   5.331   5.196   2.936 -1.9759  1.0201 -2.2325
16699TIP3    H271589   5.391   5.160   2.802  0.8831 -0.4934 -0.6148
16700TIP3   OH271590   3.425   5.199   3.148  0.1869  0.2056 -0.0376
16700TIP3    H171591   3.445   5.267   3.084  0.6486  0.1299  0.0238
16700TIP3    H271592   3.339   5.222   3.182  0.4858  0.9403  0.2263
16701TIP3   OH271593   4.551   5.305   5.625  0.0499 -1.0511 -0.2321
16701TIP3    H171594   4.630   5.251   5.632  0.6722  0.0237  1.3421
16701TIP3    H271595   4.543   5.323   5.531  1.8272 -0.9327 -0.3757
16702TIP3   OH271596   0.700   4.203   0.292 -0.2210  0.1279 -0.0122
16702TIP3    H171597   0.718   4.111   0.274 -0.6945  0.0206  0.0467
16702TIP3    H271598   0.621   4.222   0.242 -0.3890  0.3748  0.3390
16703TIP3   OH271599   5.559   2.090  15.443 -0.2996  0.5122  0.0704
16703TIP3    H171600   5.574   2.184  15.454  0.4600  0.5305 -1.0626
16703TIP3    H271601   5.464   2.081  15.440 -0.3447  1.4495 -1.5645
16704TIP3   OH271602   1.120   0.869  12.910  0.3676  0.4324  0.1112
16704TIP3    H171603   1.038   0.918  12.905  0.3831  0.4649  0.1617
16704TIP3    H271604   1.127   0.823  12.827 -0.4655 -0.8046  0.7285
16705TIP3   OH271605   1.513   5.754  14.708  0.2467 -0.2600 -0.2356
16705TIP3    H171606   1.472   5.812  14.643 -1.5230 -1.1211  0.0819
16705TIP3    H271607   1.518   5.807  14.788 -2.6668 -0.9478  0.4493
16706TIP3   OH271608   6.520   3.811  15.097 -0.4692  0.2799 -0.6283
16706TIP3    H171609   6.477   3.813  15.183  0.0981  0.9219 -0.3504
16706TIP3    H271610   6.471   3.746  15.047  0.2898 -1.4230  0.7858
16707TIP3   OH271611   0.378   0.323  11.228 -0.2542 -0.3136  0.3173
16707TIP3    H171612   0.375   0.278  11.144 -0.8469  0.3984 -0.0536
16707TIP3    H271613   0.429   0.265  11.285  0.0951 -0.8296 -0.5111
16708TIP3   OH271614   4.457   5.163   4.081  0.1359 -0.1623 -0.0284
16708TIP3    H171615   4.372   5.126   4.105  0.9776 -0.4497  2.6996
16708TIP3    H271616   4.443   5.258   4.082  0.4693 -0.0794  3.2269
16709TIP3   OH271617   3.643   3.450  11.987 -0.1361 -0.4026 -0.1035
16709TIP3    H171618   3.653   3.528  11.932 -0.4415 -0.4735 -0.2584
16709TIP3    H271619   3.727   3.443  12.033  0.6644 -1.1936 -1.6690
16710TIP3   OH271620   4.793   0.260   0.482  0.4352  0.7683  0.1045
16710TIP3    H171621   4.845   0.340   0.477  0.0797  0.9339 -1.2335
16710TIP3    H271622   4.842   0.197   0.428  0.7620  0.0535  1.2268
16711TIP3   OH271623   1.104   5.438   5.716  0.4515 -0.0102  0.0831
16711TIP3    H171624   1.050   5.514   5.736 -0.5281 -0.6390 -0.1577
16711TIP3    H271625   1.183   5.475   5.677 -0.6045  0.8185 -1.3140
16712TIP3   OH271626   0.383   4.719  13.711 -0.1909 -0.3176 -0.4413
16712TIP3    H171627   0.459   4.668  13.740  1.0962  1.0699 -1.2728
16712TIP3    H271628   0.346   4.669  13.638  0.6904 -0.3586 -0.8610
16713TIP3   OH271629   2.343   1.474  12.961  0.3616  0.1239  0.2502
16713TIP3    H171630   2.290   1.554  12.953  1.0367  0.7861  2.1550
16713TIP3    H271631   2.313   1.434  13.043  0.7375 -1.0527 -0.1860
16714TIP3   OH271632   0.906   5.677  15.036  0.1013 -0.1963  0.0959
16714TIP3    H171633   0.896   5.758  14.985  0.9690  0.7239  1.3466
16714TIP3    H271634   0.896   5.705  15.127  3.1962 -1.0215  0.7280
16715TIP3   OH271635   5.125   1.161   4.729  0.3790  0.3239 -0.4952
16715TIP3    H171636   5.120   1.213   4.809  1.3177 -0.2983 -0.0231
16715TIP3    H271637   5.202   1.106   4.741 -1.5309 -2.3862 -0.2699
16716TIP3   OH271638   0.899   1.903  12.131 -0.3830  0.5050 -0.2746
16716TIP3    H171639   0.976   1.859  12.165 -0.2890 -0.3411 -1.5363
16716TIP3    H271640   0.934   1.976  12.080 -0.5244  1.8070  1.4391
16717TIP3   OH271641   0.556   5.586  15.012  0.5678  0.3717  0.6753
16717TIP3    H171642   0.538   5.560  15.102  0.4126 -1.1640  0.1992
16717TIP3    H271643   0.647   5.617  15.013  0.4781  0.6218  1.4017
16718TIP3   OH271644   0.440   0.578  11.322 -0.1366  0.2787 -0.3211
16718TIP3    H171645   0.485   0.632  11.257  0.2496  0.2728 -0.0625
16718TIP3    H271646   0.446   0.489  11.288  0.2345  0.2508 -0.1832
16719TIP3   OH271647   0.751   0.377  12.994  0.5261 -0.1462  0.4892
16719TIP3    H171648   0.768   0.306  13.057  1.7460 -0.5971 -0.3161
16719TIP3    H271649   0.740   0.455  13.047 -1.0612 -0.9854  1.4070
16720TIP3   OH271650   3.581   4.342  15.912  0.1633 -0.1027 -0.0014
16720TIP3    H171651   3.628   4.426  15.910  0.6862 -0.4168 -1.6739
16720TIP3    H271652   3.509   4.353  15.850  0.3211 -0.9273 -0.3389
16721TIP3   OH271653   5.830   1.865  16.936 -0.1744  0.2845 -0.6204
16721TIP3    H171654   5.876   1.878  16.853 -0.5021  2.8813 -0.4111
16721TIP3    H271655   5.743   1.833  16.911  0.2794 -0.5213 -1.1876
16722TIP3   OH271656   1.361   1.993  15.426  0.1047 -0.4130 -0.0222
16722TIP3    H171657   1.324   1.958  15.346  0.6992 -0.7332 -0.1608
16722TIP3    H271658   1.455   1.979  15.417  0.3956  1.5118 -0.2275
16723TIP3   OH271659   5.224   2.693  16.179 -0.3617 -0.5088  0.3046
16723TIP3    H171660   5.301   2.746  16.200 -1.7025  1.1356  1.1500
16723TIP3    H271661   5.221   2.628  16.249 -0.4681  0.2234  0.9849
16724TIP3   OH271662   6.474   3.920   3.232 -0.3286 -0.0420  0.1053
16724TIP3    H171663   6.510   3.930   3.144 -0.2249 -0.1538  0.1350
16724TIP3    H271664   6.551   3.911   3.288 -0.3749  0.6514  0.2830
16725TIP3   OH271665   5.291   5.285  16.628  0.3283  0.1023 -0.0025
16725TIP3    H171666   5.275   5.225  16.701 -3.7732  1.9032  0.6648
16725TIP3    H271667   5.265   5.235  16.551  0.2925 -0.1992  0.1987
16726TIP3   OH271668   5.731   3.718  16.746 -0.2543 -0.7514  0.2837
16726TIP3    H171669   5.807   3.741  16.799 -0.4098  0.5015 -0.0138
16726TIP3    H271670   5.662   3.698  16.810  0.3068 -1.8348  0.5519
16727TIP3   OH271671   1.597   4.482  11.397 -0.0382 -0.1452  0.4841
16727TIP3    H171672   1.612   4.401  11.445  4.1258 -0.1249 -0.6325
16727TIP3    H271673   1.577   4.454  11.308  1.1821  0.0587  0.1487
16728TIP3   OH271674   2.229   3.497  17.030 -0.0799 -0.2721 -0.3426
16728TIP3    H171675   2.167   3.568  17.011 -0.6635 -0.9153 -0.8381
16728TIP3    H271676   2.178   3.434  17.081  0.0927 -0.9222 -0.9741
16729TIP3   OH271677   4.990   3.213   1.260  0.3310  0.3776 -0.4808
16729TIP3    H171678   5.038   3.183   1.184 -0.5275  0.8717 -1.2321
16729TIP3    H271679   5.054   3.261   1.312  0.7976  0.4960 -1.1640
16730TIP3   OH271680   1.878   6.509  12.470 -0.0906  0.0232 -0.1697
16730TIP3    H171681   1.802   6.466  12.510  0.3821 -1.4764 -0.8341
16730TIP3    H271682   1.871   6.487  12.377 -0.3135  2.1332 -0.6686
16731TIP3   OH271683   5.256   4.642  12.277  0.1772 -0.2487 -0.0526
16731TIP3    H171684   5.337   4.591  12.286  0.3267 -0.1039 -0.5361
16731TIP3    H271685   5.226   4.623  12.189 -1.4373 -1.9026  0.8382
16732TIP3   OH271686   2.450   5.853   1.311  0.2458  0.7061 -0.5448
16732TIP3    H171687   2.488   5.938   1.289  1.1872  0.7503  1.2195
16732TIP3    H271688   2.368   5.874   1.356  0.3749  0.6742 -0.2944
16733TIP3   OH271689   3.524   0.102  12.524  0.0346 -0.5121  0.3397
16733TIP3    H171690   3.576   0.183  12.521 -0.4828 -0.1984 -0.2553
16733TIP3    H271691   3.484   0.103  12.612 -0.6012  0.2865  0.0524
16734TIP3   OH271692   0.290   3.985   5.269  0.0063 -0.3094  0.1685
16734TIP3    H171693   0.225   4.017   5.206  0.1624  1.9174  1.0906
16734TIP3    H271694   0.351   4.057   5.279  1.3359 -1.5345  1.0617
16735TIP3   OH271695   0.342   6.032   0.168  0.6084  0.0405 -0.1960
16735TIP3    H171696   0.423   5.982   0.159 -0.4906 -2.0814  1.4642
16735TIP3    H271697   0.298   6.022   0.083  0.8820 -0.9204 -0.2241
16736TIP3   OH271698   4.561   4.346  16.884 -0.1158  0.3932  0.4258
16736TIP3    H171699   4.574   4.351  16.979 -0.2597  1.2286  0.4135
16736TIP3    H271700   4.649   4.352  16.847 -0.1507  1.3814  0.4753
16737TIP3   OH271701   0.137   5.737  15.233 -0.5015 -0.1680 -0.2048
16737TIP3    H171702   0.194   5.811  15.254 -0.6697 -0.1696  0.2667
16737TIP3    H271703   0.176   5.698  15.155 -1.2591  1.3423 -1.3711
16738TIP3   OH271704   1.095   3.524   5.884 -0.3176  0.1676  0.0879
16738TIP3    H171705   1.057   3.444   5.920  2.9897 -1.8584 -0.6334
16738TIP3    H271706   1.151   3.558   5.955 -0.4302  0.9278 -0.1823
16739TIP3   OH271707   3.272   2.259   0.924 -0.7129  0.4323  0.1344
16739TIP3    H171708   3.178   2.249   0.941 -1.3677  3.6757 -1.2273
16739TIP3    H271709   3.297   2.337   0.973  1.6653 -1.1912  1.6485
16740TIP3   OH271710   0.027   0.828  17.229 -0.1246 -0.6346 -0.0838
16740TIP3    H171711   0.020   0.826  17.325  0.1107 -1.2872 -0.0821
16740TIP3    H271712   0.118   0.851  17.212 -0.6763  1.6145 -0.1545
16741TIP3   OH271713   3.355   1.797  15.906 -0.2389 -0.3616  0.0643
16741TIP3    H171714   3.333   1.869  15.847 -2.1412 -0.1339  1.0288
16741TIP3    H271715   3.284   1.734  15.894 -0.4303 -0.4945  1.8140
16742TIP3   OH271716   5.948   1.827   2.312 -0.5816  0.6838 -0.3601
16742TIP3    H171717   5.872   1.883   2.300  0.4150  1.9597 -0.8904
16742TIP3    H271718   6.020   1.876   2.272 -0.0695 -1.9122 -2.7954
16743TIP3   OH271719   0.526   3.370  11.583  0.5347 -0.5391  0.5361
16743TIP3    H171720   0.597   3.402  11.640 -0.2426  0.4228  0.9853
16743TIP3    H271721   0.446   3.401  11.625 -0.1691 -1.7618  0.1136
16744TIP3   OH271722   1.013   0.414  12.314  0.1381  0.4083 -0.1096
16744TIP3    H171723   1.044   0.413  12.224  1.6331  0.0478  0.4093
16744TIP3    H271724   1.018   0.323  12.343  1.9159  0.8593  1.0903
16745TIP3   OH271725   4.104   6.598  13.495 -0.9196  0.2149 -0.3222
16745TIP3    H171726   4.022   6.606  13.545 -2.0114 -0.9562 -1.8512
16745TIP3    H271727   4.150   6.525  13.536 -1.8526 -0.7997 -1.0436
16746TIP3   OH271728   5.236   1.886  12.787  0.0470 -0.4008 -0.3238
16746TIP3    H171729   5.178   1.840  12.726  0.8622 -1.0518 -0.6278
16746TIP3    H271730   5.294   1.818  12.820  1.7281  0.5252 -1.3088
16747TIP3   OH271731   5.208   0.319   0.386 -0.3531  0.1152  0.5438
16747TIP3    H171732   5.292   0.290   0.352 -0.3468 -0.2332  0.8658
16747TIP3    H271733   5.150   0.318   0.309  0.3073  1.8014 -0.0016
16748TIP3   OH271734   1.197   3.393  10.824 -0.4748 -0.6836  1.0577
16748TIP3    H171735   1.278   3.426  10.864  0.7807  0.9030 -2.5334
16748TIP3    H271736   1.133   3.462  10.837 -0.1982 -0.3655  0.7313
16749TIP3   OH271737   0.935   4.648   3.753 -0.2253  0.4461 -0.5336
16749TIP3    H171738   1.028   4.638   3.732 -0.0550  2.5798 -0.8345
16749TIP3    H271739   0.890   4.590   3.691  0.8181  0.1975 -1.0713
16750TIP3   OH271740   5.269   6.767   3.007  0.6096 -0.4815  0.0581
16750TIP3    H171741   5.190   6.713   2.999 -0.5410  0.9703  1.4122
16750TIP3    H271742   5.237   6.857   2.997  2.1955  0.0840  0.0207
16751TIP3   OH271743   5.176   5.693   2.329 -0.0556 -0.1690 -0.1412
16751TIP3    H171744   5.144   5.679   2.240 -0.6265 -1.8171  0.3039
16751TIP3    H271745   5.249   5.753   2.319  0.6148 -1.2394 -1.8594
16752TIP3   OH271746   2.847   4.910  15.050  0.4128 -0.3995  0.1827
16752TIP3    H171747   2.820   4.927  15.140  1.0222 -0.6512  0.4166
16752TIP3    H271748   2.888   4.991  15.021  1.0452 -0.6239  0.4445
16753TIP3   OH271749   5.400   5.474   0.808 -0.0150 -0.4284  0.0428
16753TIP3    H171750   5.339   5.443   0.742  0.4767 -2.4632  0.5112
16753TIP3    H271751   5.456   5.537   0.762 -1.2647  0.0491 -0.8365
16754TIP3   OH271752   1.332   1.488   0.456  0.1325 -0.2832  0.4525
16754TIP3    H171753   1.398   1.450   0.397 -1.1492  1.3941 -2.1550
16754TIP3    H271754   1.380   1.552   0.508  0.7072  0.4327 -0.9441
16755TIP3   OH271755   2.572   5.832  14.784 -0.2704  0.6056 -0.2508
16755TIP3    H171756   2.577   5.927  14.774 -0.3455  0.7926  1.4175
16755TIP3    H271757   2.613   5.813  14.868  0.4527 -0.9315 -0.9161
16756TIP3   OH271758   6.061   4.064   4.697  0.4208 -0.5871  0.1616
16756TIP3    H171759   6.004   4.069   4.774  1.0919  1.7523  0.5682
16756TIP3    H271760   6.070   4.155   4.668  1.5100 -1.2571 -1.7038
16757TIP3   OH271761   3.607   4.513   0.751  0.3688 -0.4915  0.2278
16757TIP3    H171762   3.584   4.546   0.838 -0.3381  0.0005 -0.1350
16757TIP3    H271763   3.522   4.493   0.710  0.5685  1.0074 -1.0010
16758TIP3   OH271764   6.775   6.701  15.899 -0.2138  0.0635  0.2717
16758TIP3    H171765   6.847   6.653  15.939 -0.0707  1.4614  1.7828
16758TIP3    H271766   6.781   6.789  15.938 -1.4155  0.8293 -1.2118
16759TIP3   OH271767   5.638   1.102  16.125 -0.2422 -0.1796 -0.4048
16759TIP3    H171768   5.695   1.150  16.185 -1.6972  0.8296  0.2179
16759TIP3    H271769   5.568   1.067  16.180 -2.5760  2.2484 -1.6866
16760TIP3   OH271770   0.835   5.559  11.527 -0.5470 -0.0512  0.2394
16760TIP3    H171771   0.895   5.507  11.580 -1.2650 -0.6854  0.4439
16760TIP3    H271772   0.830   5.643  11.571  1.8482  0.7473 -0.9672
16761TIP3   OH271773   1.820   2.496  11.078 -0.0082  0.3051  0.0592
16761TIP3    H171774   1.837   2.537  11.162 -1.3903  0.6343  0.2055
16761TIP3    H271775   1.895   2.440  11.061  1.5453  2.3006  0.2368
16762TIP3   OH271776   3.037   5.637  16.770 -0.4423 -0.2837  1.0684
16762TIP3    H171777   3.093   5.574  16.814  1.5538  1.5908  1.3310
16762TIP3    H271778   3.045   5.717  16.822 -0.7885  0.9569 -0.6958
16763TIP3   OH271779   3.480   6.819  12.042 -0.0569 -0.7930  0.1902
16763TIP3    H171780   3.425   6.781  11.975  0.0838  1.0178 -0.9977
16763TIP3    H271781   3.448   6.909  12.052  0.4356 -0.7803  1.9752
16764TIP3   OH271782   3.241   5.889  15.750  0.1241 -0.6237  0.7005
16764TIP3    H171783   3.198   5.884  15.835 -0.2775 -2.3595  0.4273
16764TIP3    H271784   3.200   5.819  15.698 -0.6748  1.3284 -1.3901
16765TIP3   OH271785   6.212   4.925   2.324 -0.3107  0.8132 -0.0860
16765TIP3    H171786   6.212   4.863   2.251 -0.1954 -0.8635  1.3043
16765TIP3    H271787   6.297   4.968   2.319 -0.0434  0.2375 -0.5739
16766TIP3   OH271788   1.842   4.285   5.371 -0.0521  0.6658  0.1407
16766TIP3    H171789   1.932   4.254   5.381  0.2177  0.5844 -2.3197
16766TIP3    H271790   1.796   4.252   5.449  1.6070 -0.8348  0.5021
16767TIP3   OH271791   0.047   6.337   5.873 -0.2771  0.2264  0.1886
16767TIP3    H171792  -0.017   6.286   5.824 -0.1379  0.7987 -0.5976
16767TIP3    H271793   0.114   6.360   5.809  0.9608 -0.7568  1.1040
16768TIP3   OH271794   1.379   2.842  14.729 -0.3451 -0.0787 -0.2806
16768TIP3    H171795   1.408   2.922  14.772 -0.4268 -0.1360 -0.1146
16768TIP3    H271796   1.385   2.775  14.798 -3.1675  0.3762  0.4567
16769TIP3   OH271797   3.155   3.483  16.020  0.0322 -0.1479 -0.0588
16769TIP3    H171798   3.232   3.540  16.023 -0.1869  0.2200 -1.1103
16769TIP3    H271799   3.178   3.415  15.957 -0.1803 -0.5229  0.2637
16770TIP3   OH271800   6.500   4.937  15.511 -0.7959  0.1265  0.2276
16770TIP3    H171801   6.488   4.937  15.416 -1.2612 -0.5550  0.2868
16770TIP3    H271802   6.593   4.918  15.523 -0.9576 -0.8383 -0.0575
16771TIP3   OH271803   0.390   2.030  11.218 -0.1053  0.3698 -0.0575
16771TIP3    H171804   0.296   2.042  11.235 -0.0615  0.3656  0.1982
16771TIP3    H271805   0.397   1.943  11.180 -0.1791  0.2672  0.1615
16772TIP3   OH271806   0.867   0.800  11.788 -0.2989  0.2481 -0.0831
16772TIP3    H171807   0.779   0.835  11.772 -0.2454  0.4387  0.0309
16772TIP3    H271808   0.926   0.873  11.769 -0.2000  0.2928  0.3829
16773TIP3   OH271809   1.897   6.066  10.446  0.0739 -0.8323 -0.2404
16773TIP3    H171810   1.860   6.002  10.386  0.6565 -0.2231 -1.2636
16773TIP3    H271811   1.978   6.026  10.477 -0.5497 -1.4167  0.6331
16774TIP3   OH271812   5.190   0.912   0.285 -0.0459 -0.1327 -0.3804
16774TIP3    H171813   5.149   0.837   0.328  1.8545 -1.6233 -1.0531
16774TIP3    H271814   5.117   0.968   0.260 -1.3792 -0.7723  1.9332
16775TIP3   OH271815   1.697   3.786  15.098 -0.0787  0.4507  0.1174
16775TIP3    H171816   1.774   3.801  15.153  0.2854 -1.9349  0.2845
16775TIP3    H271817   1.633   3.850  15.129  1.0364  0.9127  1.5188
16776TIP3   OH271818   0.184   3.228  11.394  0.2031 -0.1250  0.0969
16776TIP3    H171819   0.254   3.162  11.399  0.7718  0.5825  2.2137
16776TIP3    H271820   0.116   3.193  11.452 -0.1810  0.3389 -0.0824
16777TIP3   OH271821   5.566   2.233   6.426  0.4142  0.4955  0.5702
16777TIP3    H171822   5.548   2.142   6.451  0.7127  0.7870  1.9103
16777TIP3    H271823   5.643   2.227   6.370 -1.1561 -0.3249 -1.5815
16778TIP3   OH271824   6.361   5.896   6.106 -0.5596  0.4147  0.4058
16778TIP3    H171825   6.403   5.840   6.041 -0.4207 -0.5081  1.2735
16778TIP3    H271826   6.433   5.946   6.145 -0.4108 -0.2420  0.9983
16779TIP3   OH271827   1.961   0.305   5.258 -0.0542  0.2065  0.2260
16779TIP3    H171828   1.925   0.237   5.315  1.1819 -1.4538 -0.9102
16779TIP3    H271829   1.886   0.333   5.205 -0.9923  1.0825  1.9786
16780TIP3   OH271830   5.508   6.122  14.646 -0.1481  0.0737 -0.2067
16780TIP3    H171831   5.596   6.127  14.610 -0.3832  0.8690 -0.7004
16780TIP3    H271832   5.520   6.099  14.738  0.6162  1.0298 -0.0651
16781TIP3   OH271833   5.633   0.467  15.683 -0.0297  0.0236 -0.4301
16781TIP3    H171834   5.709   0.498  15.634 -1.2167  2.5530 -0.7941
16781TIP3    H271835   5.568   0.447  15.615 -0.9150  1.4130 -0.0226
16782TIP3   OH271836   4.786   6.419   2.548 -0.0228 -0.0518 -0.0720
16782TIP3    H171837   4.819   6.458   2.466  3.6689 -0.4501  1.1135
16782TIP3    H271838   4.775   6.326   2.527  0.7306 -0.1206 -0.2022
16783TIP3   OH271839   5.716   4.782   3.289 -0.5687 -0.5328 -0.2961
16783TIP3    H171840   5.683   4.835   3.216 -1.1662 -0.0895  0.2965
16783TIP3    H271841   5.788   4.833   3.325  0.7910 -1.4885 -1.5729
16784TIP3   OH271842   1.008   3.481  11.290 -0.0345 -0.3117 -0.7698
16784TIP3    H171843   1.079   3.420  11.270 -0.4882 -0.6202 -1.4420
16784TIP3    H271844   0.973   3.506  11.204 -1.0579 -0.5327 -0.4210
16785TIP3   OH271845   0.855   5.205   4.038  0.3305 -0.1018  0.2437
16785TIP3    H171846   0.790   5.270   4.063 -0.0688 -0.1313 -0.6746
16785TIP3    H271847   0.832   5.127   4.089  0.4569  0.2927  0.9098
16786TIP3   OH271848   3.708   1.763   4.469  0.2357 -0.6339  0.1590
16786TIP3    H171849   3.758   1.682   4.479  0.9220 -0.0643  1.5364
16786TIP3    H271850   3.764   1.821   4.418 -0.4869 -1.2045 -1.3107
16787TIP3   OH271851   6.412   1.052   0.729  0.5677  0.4220 -0.4261
16787TIP3    H171852   6.355   1.050   0.805  1.0494 -3.2096 -0.0863
16787TIP3    H271853   6.460   0.969   0.732  5.0567  2.8419 -1.3360
16788TIP3   OH271854   2.154   6.656   3.931  0.1507  0.3062 -0.4776
16788TIP3    H171855   2.195   6.570   3.925  0.4066  0.2376  2.0147
16788TIP3    H271856   2.060   6.638   3.933  0.1691  0.1583 -0.8465
16789TIP3   OH271857   4.510   4.628   4.874  0.0569 -0.2782  0.2905
16789TIP3    H171858   4.454   4.619   4.951 -1.5029  0.5709 -0.7343
16789TIP3    H271859   4.509   4.541   4.833  0.4872 -0.5923  0.9380
16790TIP3   OH271860   3.294   0.724  13.158  0.3381  0.6307 -0.2298
16790TIP3    H171861   3.316   0.635  13.185 -0.9557  0.0418 -1.0314
16790TIP3    H271862   3.336   0.780  13.223  3.2796 -0.4508 -1.1226
16791TIP3   OH271863   1.679   5.045  11.689  0.1201 -0.0340 -0.1429
16791TIP3    H171864   1.660   4.961  11.647 -1.3550  0.9240 -1.4446
16791TIP3    H271865   1.752   5.082  11.639 -1.1366  0.7592 -1.4272
16792TIP3   OH271866   2.180   1.922   2.501  0.1816 -0.5649 -0.0524
16792TIP3    H171867   2.120   1.996   2.490  0.3460 -0.4708 -0.3214
16792TIP3    H271868   2.167   1.894   2.591  2.0300  1.4914  0.9002
16793TIP3   OH271869   3.229   4.880  15.033  0.1564  0.1899  0.1582
16793TIP3    H171870   3.142   4.839  15.036  0.3837 -0.1898  1.7280
16793TIP3    H271871   3.230   4.940  15.108  0.3762  2.0029 -1.2390
16794TIP3   OH271872   5.583   1.342  15.952 -0.2996 -0.3278 -0.6013
16794TIP3    H171873   5.631   1.276  16.001 -3.0901 -1.2388  1.0011
16794TIP3    H271874   5.606   1.425  15.994 -0.7647 -0.8380  0.6695
16795TIP3   OH271875   6.118   5.962  13.179 -0.2858  0.4006  0.0471
16795TIP3    H171876   6.115   5.989  13.271 -0.9024 -1.5984  0.6522
16795TIP3    H271877   6.193   5.902  13.174 -0.0337  0.7843 -0.8338
16796TIP3   OH271878   0.338   0.191  14.981  0.5227  0.4683 -0.8585
16796TIP3    H171879   0.247   0.167  14.962  0.4250 -0.0784  0.2574
16796TIP3    H271880   0.381   0.188  14.896  0.2474 -2.6341 -0.9400
16797TIP3   OH271881   1.815   6.167   1.263  0.2200 -0.4694 -1.0049
16797TIP3    H171882   1.886   6.227   1.241  0.7054  0.0885  1.8164
16797TIP3    H271883   1.751   6.221   1.310 -0.5669 -1.6368 -0.7035
16798TIP3   OH271884   0.242   3.503  11.000  0.4020 -0.0070 -0.1092
16798TIP3    H171885   0.210   3.421  10.963 -1.5161  0.8708 -0.4377
16798TIP3    H271886   0.266   3.481  11.090  1.6805 -1.3322 -0.7451
16799TIP3   OH271887   6.704   0.129   0.546  0.0849 -0.2843  0.4477
16799TIP3    H171888   6.762   0.198   0.579 -0.8732  0.2760  0.9723
16799TIP3    H271889   6.638   0.176   0.494  0.3164 -0.9569 -0.4727
16800TIP3   OH271890   2.600   3.636  14.872 -0.1019  0.0709  0.2335
16800TIP3    H171891   2.606   3.664  14.963  0.8239  1.6669 -0.2969
16800TIP3    H271892   2.609   3.541  14.875  0.4392  0.1591  1.7685
16801TIP3   OH271893   4.292   4.427   1.270  0.0522  0.1414 -0.1123
16801TIP3    H171894   4.264   4.501   1.215 -1.2724 -0.6596 -0.5477
16801TIP3    H271895   4.224   4.421   1.337  1.1464  0.4924  1.0332
16802TIP3   OH271896   3.956   3.025   6.217 -0.1531  0.3963 -0.2171
16802TIP3    H171897   3.868   3.025   6.255 -0.1610 -2.3010 -0.1445
16802TIP3    H271898   4.013   2.998   6.288  0.3223 -0.9932 -1.1152
16803TIP3   OH271899   4.568   0.705   4.514  0.1095 -0.3536  0.0578
16803TIP3    H171900   4.613   0.788   4.530  0.4917 -0.7572  1.1302
16803TIP3    H271901   4.631   0.638   4.542 -2.0052 -0.8738  3.9098
16804TIP3   OH271902   1.741   6.048   1.575 -0.5031 -0.2761 -0.0634
16804TIP3    H171903   1.739   6.136   1.537  1.1580  0.1502  0.7523
16804TIP3    H271904   1.832   6.038   1.606 -0.9831 -1.8167  0.8996
16805TIP3   OH271905   5.423   2.965   2.992  0.0829 -0.0574  0.7680
16805TIP3    H171906   5.340   2.989   3.032 -0.8681  1.3371 -1.9602
16805TIP3    H271907   5.426   2.869   2.998 -2.4713 -0.2647 -0.4748
16806TIP3   OH271908   4.695   4.365  12.383  0.5393 -0.5129 -0.4940
16806TIP3    H171909   4.699   4.444  12.328  1.5353 -0.9340 -1.0397
16806TIP3    H271910   4.602   4.342  12.385  0.3677  0.0853 -1.1828
16807TIP3   OH271911   2.253   3.345   4.491  0.1666 -0.3587 -0.0144
16807TIP3    H171912   2.281   3.255   4.507 -1.3357 -1.0926 -1.3502
16807TIP3    H271913   2.173   3.336   4.438  1.4673  1.7862 -2.4453
16808TIP3   OH271914   6.022   6.461  10.918 -0.5743 -0.1281 -0.1272
16808TIP3    H171915   5.929   6.477  10.903 -0.4594 -1.2119 -2.2068
16808TIP3    H271916   6.066   6.541  10.888 -0.7263 -0.3204 -0.8857
16809TIP3   OH271917   5.128   4.273   1.650  0.2806 -0.4420 -0.4662
16809TIP3    H171918   5.052   4.229   1.688 -0.9674  0.7040 -1.5884
16809TIP3    H271919   5.166   4.209   1.590 -0.4444 -0.6371 -0.7243
16810TIP3   OH271920   0.346   2.677   4.503 -0.3286 -0.0961 -0.1243
16810TIP3    H171921   0.362   2.648   4.593 -2.9612  0.8553  0.6988
16810TIP3    H271922   0.425   2.726   4.480  1.6294 -2.7798  0.5706
16811TIP3   OH271923   3.644   4.355  12.640  0.0896 -0.1305 -0.9543
16811TIP3    H171924   3.555   4.368  12.607  0.0121 -0.4875 -0.8929
16811TIP3    H271925   3.700   4.403  12.579 -0.2632  1.2773 -0.1974
16812TIP3   OH271926   6.678   6.181   5.770 -0.3760  0.2268 -0.7766
16812TIP3    H171927   6.688   6.086   5.764  0.4772  0.2865 -0.4298
16812TIP3    H271928   6.584   6.194   5.779 -0.5133 -0.5786 -0.9490
16813TIP3   OH271929   4.033   6.180  15.151  0.1959 -0.4858  0.0869
16813TIP3    H171930   4.057   6.260  15.105 -0.4481 -0.6630 -0.5702
16813TIP3    H271931   3.975   6.208  15.221 -0.0563 -0.3772 -0.1639
16814TIP3   OH271932   4.874   0.497   3.018 -0.0191  0.4610 -0.3351
16814TIP3    H171933   4.876   0.422   3.078 -0.2557 -2.8711 -4.2624
16814TIP3    H271934   4.964   0.503   2.985  0.3092  2.7981  0.8965
16815TIP3   OH271935   4.809   4.117   6.177  0.0710  0.1627 -0.7246
16815TIP3    H171936   4.815   4.142   6.084  0.4522 -1.0164 -1.0245
16815TIP3    H271937   4.890   4.068   6.193 -0.8560 -1.2061 -0.2430
16816TIP3   OH271938   1.015   0.665  12.706 -0.1485  0.6329  0.1084
16816TIP3    H171939   1.050   0.602  12.643 -1.1090  0.2047  0.0019
16816TIP3    H271940   1.032   0.626  12.792 -3.5751 -1.2820 -0.0401
16817TIP3   OH271941   3.185   1.073  11.875 -0.5295 -0.1279  0.0828
16817TIP3    H171942   3.166   1.097  11.785 -0.2465 -0.2610 -0.0102
16817TIP3    H271943   3.152   1.147  11.927 -1.1723 -0.2866 -0.0859
16818TIP3   OH271944   5.378   4.923  15.238  0.1352 -0.3976  0.2202
16818TIP3    H171945   5.340   4.857  15.180  0.3140  0.1443 -0.5147
16818TIP3    H271946   5.307   4.986  15.252  0.3777 -0.0401 -0.1558
16819TIP3   OH271947   6.270   5.413  15.875 -0.0018  0.5931 -0.2304
16819TIP3    H171948   6.198   5.362  15.913  0.0448  0.1373 -0.7449
16819TIP3    H271949   6.292   5.367  15.794  1.4158  0.2601  0.3232
16820TIP3   OH271950   4.137   3.220   4.958  0.2922  0.3697 -0.5914
16820TIP3    H171951   4.084   3.208   4.879 -0.6075  0.8279 -0.0582
16820TIP3    H271952   4.074   3.235   5.028  1.0327 -1.0517  0.4107
16821TIP3   OH271953   0.494   5.498   3.840 -0.1089  0.1361 -0.3877
16821TIP3    H171954   0.432   5.543   3.898  0.1514  0.6728 -0.5298
16821TIP3    H271955   0.571   5.554   3.839 -0.1380  0.1566 -1.3112
16822TIP3   OH271956   6.458   6.303   0.718 -0.6920  0.2703 -0.8918
16822TIP3    H171957   6.393   6.324   0.652 -1.0078 -1.2657 -1.0908
16822TIP3    H271958   6.451   6.208   0.730 -0.7135  0.5179  1.4095
16823TIP3   OH271959   3.711   3.067  15.529 -0.5927 -0.6554  0.2682
16823TIP3    H171960   3.648   3.052  15.459 -1.6714  0.7007  0.9280
16823TIP3    H271961   3.795   3.038  15.493 -1.3368 -1.0746 -1.1455
16824TIP3   OH271962   0.702   5.617   1.218 -0.5726  0.1347  0.4879
16824TIP3    H171963   0.792   5.591   1.242 -1.0468 -1.7362  0.3366
16824TIP3    H271964   0.692   5.586   1.128 -1.5494 -0.1503  0.6962
16825TIP3   OH271965   5.374   5.550  15.658  0.1083 -0.3167  0.4401
16825TIP3    H171966   5.456   5.500  15.659 -0.0914 -0.6702 -0.4318
16825TIP3    H271967   5.398   5.636  15.626  0.3103 -0.0941  1.1651
16826TIP3   OH271968   5.484   4.164   3.509  0.0850 -0.0372  0.7137
16826TIP3    H171969   5.548   4.109   3.554  1.3627 -0.1757 -1.2429
16826TIP3    H271970   5.534   4.238   3.476 -1.5135  2.0912  2.8109
16827TIP3   OH271971   4.167   0.074   3.273 -0.0200  0.5832 -0.0535
16827TIP3    H171972   4.188   0.141   3.338 -0.6512  0.2645  0.4814
16827TIP3    H271973   4.077   0.094   3.245 -0.6029 -0.6486  0.8732
16828TIP3   OH271974   5.866   4.538  12.608  0.3665  0.4920  0.5329
16828TIP3    H171975   5.952   4.528  12.648  0.4172  0.6847  0.4716
16828TIP3    H271976   5.845   4.451  12.573  0.2583  0.2857  1.1106
16829TIP3   OH271977   0.795   1.523  16.074 -0.1486  0.1273 -0.1134
16829TIP3    H171978   0.772   1.599  16.022 -0.3980 -0.4664 -0.8772
16829TIP3    H271979   0.713   1.475  16.085 -0.3416  0.8846  1.8747
16830TIP3   OH271980   4.389   3.973   2.802  0.0902  0.4636  0.0642
16830TIP3    H171981   4.412   3.967   2.895 -0.1066 -1.2924  0.0118
16830TIP3    H271982   4.294   3.981   2.800  0.0776  0.3050  0.0086
16831TIP3   OH271983   2.203   0.698   3.023 -0.0851 -0.1866  0.2565
16831TIP3    H171984   2.177   0.750   2.947 -0.4424 -0.6456  0.0554
16831TIP3    H271985   2.260   0.630   2.986 -0.9129 -0.9007  0.2705
16832TIP3   OH271986   6.439   4.242   2.563  0.5243 -0.1064 -0.6848
16832TIP3    H171987   6.474   4.154   2.578  3.4410  1.1770  0.2059
16832TIP3    H271988   6.409   4.271   2.649 -1.7533 -0.7297 -1.2274
16833TIP3   OH271989   5.729   0.433   4.055 -0.3515  0.4955 -0.0498
16833TIP3    H171990   5.755   0.431   3.963 -0.3334  2.5069 -0.1073
16833TIP3    H271991   5.802   0.391   4.101 -0.2158 -0.2320 -0.9150
16834TIP3   OH271992   4.919   4.004   3.243 -0.0571  0.5672 -0.3771
16834TIP3    H171993   4.959   4.088   3.222  1.9839  0.1942  1.7460
16834TIP3    H271994   4.982   3.962   3.302 -2.5149 -1.0712  1.1915
16835TIP3   OH271995   0.632   1.419   0.640 -0.5999  0.2000  0.0182
16835TIP3    H171996   0.693   1.362   0.686 -0.5641 -0.2877 -0.6232
16835TIP3    H271997   0.687   1.486   0.599 -0.7043  1.1484  1.3900
16836TIP3   OH271998   6.311   4.739   1.172  0.4761  0.6187  0.2675
16836TIP3    H171999   6.336   4.759   1.263 -0.5901  2.1236  0.2512
16836TIP3    H272000   6.264   4.818   1.143 -1.5538 -0.9181 -0.7014
16837TIP3   OH272001   3.951   4.206  11.172 -0.1732 -0.0454  0.1510
16837TIP3    H172002   3.989   4.283  11.129 -0.0750  0.1100  0.5162
16837TIP3    H272003   3.857   4.212  11.152 -0.0847 -0.1495 -0.3139
16838TIP3   OH272004   2.779   4.605  13.029  0.1334  0.0696  0.0739
16838TIP3    H172005   2.786   4.578  12.937  0.0264 -0.6364  0.2706
16838TIP3    H272006   2.863   4.646  13.049  0.4234 -0.4213 -0.1327
16839TIP3   OH272007   5.407   2.486   2.508  0.0504 -0.0821  0.1417
16839TIP3    H172008   5.434   2.465   2.598 -0.7859  0.3948  0.5047
16839TIP3    H272009   5.316   2.458   2.504  0.0146  0.1293 -0.4871
16840TIP3   OH272010   3.993   3.999  11.624 -0.3224  0.4463  0.6749
16840TIP3    H172011   4.025   4.089  11.625 -1.6704  0.9755 -0.8755
16840TIP3    H272012   3.898   4.008  11.634 -0.7012 -0.6632 -1.6284
16841TIP3   OH272013   5.149   2.964  15.245  0.7216  0.5863 -0.0283
16841TIP3    H172014   5.210   2.981  15.317  0.7461  0.5026 -0.0294
16841TIP3    H272015   5.186   2.889  15.199 -0.8310 -1.2361  1.6047
16842TIP3   OH272016   0.935   1.395  16.703 -0.1829 -0.3402 -0.5888
16842TIP3    H172017   0.886   1.367  16.625 -1.1660 -0.8591  0.2072
16842TIP3    H272018   0.922   1.324  16.766  0.4618  0.1605  0.1109
16843TIP3   OH272019   0.219   1.613   0.176 -0.0344 -0.1789 -0.1774
16843TIP3    H172020   0.298   1.580   0.133 -0.0469 -0.7299  0.2195
16843TIP3    H272021   0.247   1.636   0.265  0.1827  1.7536 -0.7239
16844TIP3   OH272022   5.494   4.592  13.951 -0.1127 -0.2214  0.1476
16844TIP3    H172023   5.560   4.579  14.020 -1.2300 -2.7648  0.7907
16844TIP3    H272024   5.535   4.555  13.873  0.3373  0.8072 -0.1140
16845TIP3   OH272025   2.888   5.828  16.396 -0.2691  0.2037 -0.2019
16845TIP3    H172026   2.802   5.809  16.432 -0.2716  1.5287  0.4879
16845TIP3    H272027   2.925   5.742  16.375 -1.5844 -0.3803 -0.1133
16846TIP3   OH272028   5.568   1.020  16.405  0.6094  0.4041 -0.6975
16846TIP3    H172029   5.649   1.052  16.446  0.9977 -0.8270 -0.4669
16846TIP3    H272030   5.591   0.932  16.374 -0.5260  0.2126 -0.9914
16847TIP3   OH272031   6.538   3.199   5.253 -0.7225 -0.2618  0.1232
16847TIP3    H172032   6.582   3.279   5.225  1.0368 -0.5436  2.0297
16847TIP3    H272033   6.451   3.205   5.213 -0.1774  1.9608 -0.8193
16848TIP3   OH272034   3.639   4.202  11.437 -0.4288 -0.2048  0.3646
16848TIP3    H172035   3.689   4.145  11.379 -0.1690  0.7302 -0.3324
16848TIP3    H272036   3.571   4.240  11.381  0.3076  1.3020  0.4832
16849TIP3   OH272037   2.551   6.030  12.162 -0.0563  0.2474 -0.4292
16849TIP3    H172038   2.523   6.020  12.253  1.8334 -0.9697  0.0357
16849TIP3    H272039   2.602   6.112  12.162 -0.9333  0.7993 -0.6214
16850TIP3   OH272040   1.324   4.602  12.524  0.0774 -0.2588 -0.0863
16850TIP3    H172041   1.385   4.635  12.459  0.1630 -1.3824 -0.5919
16850TIP3    H272042   1.252   4.664  12.524  0.2028 -0.1133 -1.0541
16851TIP3   OH272043   1.283   5.982  12.272 -0.2933  0.2174 -0.1483
16851TIP3    H172044   1.339   6.023  12.338 -1.2407  0.8305  0.2933
16851TIP3    H272045   1.204   5.956  12.320 -1.3488  1.4355 -1.1783
16852TIP3   OH272046   3.860   4.545  16.753  1.2544 -0.7616 -0.0317
16852TIP3    H172047   3.910   4.583  16.825  2.6620 -2.3979 -0.1113
16852TIP3    H272048   3.914   4.564  16.675  2.2945 -3.4013  0.0028
16853TIP3   OH272049   6.346   0.728   2.945 -0.7070 -0.0937 -0.1973
16853TIP3    H172050   6.383   0.791   3.006 -0.7399 -1.2063  1.0077
16853TIP3    H272051   6.254   0.754   2.935 -0.4549  0.6673 -0.5380
16854TIP3   OH272052   4.395   5.527   5.387 -0.3861  0.2816 -0.4832
16854TIP3    H172053   4.468   5.571   5.430 -0.6091 -0.4588  0.6650
16854TIP3    H272054   4.389   5.570   5.301  1.4654  0.2811 -0.6436
16855TIP3   OH272055   3.863   1.412  15.158 -0.0180 -0.0899 -0.5074
16855TIP3    H172056   3.821   1.498  15.168 -0.4921 -0.5456  1.6200
16855TIP3    H272057   3.875   1.403  15.063  2.0627  3.2915 -0.6636
16856TIP3   OH272058   1.247   1.253  11.749 -0.4220 -0.1744  0.1485
16856TIP3    H172059   1.175   1.206  11.707 -0.6735 -0.8033  1.2796
16856TIP3    H272060   1.248   1.339  11.706 -1.9881 -0.0820  0.2757
16857TIP3   OH272061   3.486   3.859   3.745  0.1134 -0.0944 -0.0189
16857TIP3    H172062   3.535   3.845   3.826  1.8288  1.0766 -0.8083
16857TIP3    H272063   3.537   3.812   3.678 -1.4595 -1.3194 -0.3737
16858TIP3   OH272064   4.398   2.503   4.074 -0.0158 -0.0845  0.2843
16858TIP3    H172065   4.329   2.444   4.106  0.8037 -1.0128  0.3799
16858TIP3    H272066   4.476   2.478   4.125  0.6293  0.2891 -0.5093
16859TIP3   OH272067   0.142   2.957  15.174  0.3647 -0.5397 -0.0431
16859TIP3    H172068   0.089   2.886  15.138  0.4292 -0.5844 -0.0498
16859TIP3    H272069   0.211   2.913  15.224 -0.4963 -0.4634  1.2520
16860TIP3   OH272070   2.959   2.926   0.400  0.1431  0.3089  0.2078
16860TIP3    H172071   3.020   2.879   0.343  0.8191  0.0712  1.1153
16860TIP3    H272072   3.013   2.992   0.443 -0.6925  1.5590 -0.6293
16861TIP3   OH272073   1.684   1.852   2.171 -0.1339  0.4752  0.1081
16861TIP3    H172074   1.612   1.905   2.137  0.5781  2.1116  1.0702
16861TIP3    H272075   1.763   1.891   2.133  0.3179 -0.7225 -0.2024
16862TIP3   OH272076   3.720   5.207   0.230 -0.1083  0.4488 -0.2404
16862TIP3    H172077   3.639   5.170   0.195 -0.3337 -0.4262  1.1601
16862TIP3    H272078   3.755   5.260   0.159 -0.0463 -2.0303 -2.1354
16863TIP3   OH272079   6.567   3.216   2.189 -0.2453  0.4215 -0.4999
16863TIP3    H172080   6.512   3.138   2.186 -1.9033  1.5796 -0.7821
16863TIP3    H272081   6.642   3.195   2.133 -0.8038 -0.8498 -0.7858
16864TIP3   OH272082   2.135   0.417   1.990  0.4091  0.1549 -0.0493
16864TIP3    H172083   2.060   0.358   1.998  0.5923 -0.0755 -0.0534
16864TIP3    H272084   2.174   0.395   1.906  0.6138  0.1240  0.0537
16865TIP3   OH272085   6.372   0.679  14.893 -0.8677  0.4460 -0.2477
16865TIP3    H172086   6.346   0.628  14.970 -0.3626  0.1076 -0.2942
16865TIP3    H272087   6.366   0.770  14.921  0.8849  0.2974  0.7269
16866TIP3   OH272088   6.468   2.116   2.188  0.1436  0.5505  0.3639
16866TIP3    H172089   6.562   2.137   2.189 -0.4523  3.3414  1.2839
16866TIP3    H272090   6.434   2.163   2.112 -0.2586 -1.8057 -0.9613
16867TIP3   OH272091   4.732   0.560  12.216 -0.4102  0.7436  1.0262
16867TIP3    H172092   4.723   0.484  12.274  2.0820  0.8309  1.5846
16867TIP3    H272093   4.800   0.613  12.257  1.3014  0.9042 -1.9039
16868TIP3   OH272094   1.334   4.566  11.988 -0.0254 -0.2331 -0.0801
16868TIP3    H172095   1.355   4.655  11.961  1.1521  0.1824  2.0825
16868TIP3    H272096   1.276   4.532  11.920 -0.3542  2.1362 -0.9896
16869TIP3   OH272097   6.072   4.647  17.066  0.4641 -0.7197 -0.6711
16869TIP3    H172098   6.027   4.571  17.103  1.6362 -1.2813 -0.3973
16869TIP3    H272099   6.134   4.674  17.134  0.6654 -0.0540 -1.1146
16870TIP3   OH272100   3.903   2.901  15.405 -0.3107 -0.1197 -0.3893
16870TIP3    H172101   3.936   2.886  15.317  0.1079 -0.5297 -0.1644
16870TIP3    H272102   3.977   2.878  15.462 -0.1764  1.2783  0.0169
16871TIP3   OH272103   3.140   6.266  11.411  0.2479  0.2436 -0.2299
16871TIP3    H172104   3.191   6.192  11.380  2.3982  1.8861 -0.7460
16871TIP3    H272105   3.177   6.342  11.365 -2.4186  1.5444 -0.3319
16872TIP3   OH272106   0.686   5.705  13.326  0.3037 -0.3615 -0.5061
16872TIP3    H172107   0.649   5.662  13.403 -0.1447 -0.3303 -0.7045
16872TIP3    H272108   0.725   5.634  13.275  0.4104 -0.4092 -0.3584
16873TIP3   OH272109   5.834   4.477  17.024  0.2822  0.8834  0.1656
16873TIP3    H172110   5.879   4.420  16.961  1.0346  0.9722  0.6189
16873TIP3    H272111   5.742   4.454  17.016  0.8798 -2.6753  2.6156
16874TIP3   OH272112   0.164   3.588   0.288 -0.6264  0.2855  0.0920
16874TIP3    H172113   0.205   3.527   0.349  0.0382  1.3622  0.7382
16874TIP3    H272114   0.213   3.670   0.299 -2.0968  1.2097 -0.0976
16875TIP3   OH272115   0.816   0.723   0.693 -0.0370  0.5944 -0.3422
16875TIP3    H172116   0.870   0.673   0.632 -0.2726 -0.1807  0.0678
16875TIP3    H272117   0.813   0.668   0.772 -3.6016 -0.6758 -1.2787
16876TIP3   OH272118   1.485   5.413   6.336 -0.6890 -0.7339 -0.0623
16876TIP3    H172119   1.490   5.504   6.307 -1.9627 -0.9014 -0.8440
16876TIP3    H272120   1.416   5.375   6.283  0.4301 -2.4025 -0.3401
16877TIP3   OH272121   4.472   3.965  12.359 -0.1633 -0.1357  0.9733
16877TIP3    H172122   4.510   3.983  12.445 -0.0478 -0.5622  1.0148
16877TIP3    H272123   4.535   4.000  12.297 -0.5469  0.7496  1.0678
16878TIP3   OH272124   5.149   3.358   0.802 -0.5610 -0.3737 -0.2401
16878TIP3    H172125   5.209   3.305   0.855 -1.7805 -1.4442  0.0885
16878TIP3    H272126   5.154   3.445   0.842  0.3647 -0.5729  0.1135
16879TIP3   OH272127   4.532   6.451  12.649  0.1675 -0.6356  0.1376
16879TIP3    H172128   4.440   6.455  12.624  0.7617  2.2838 -1.8755
16879TIP3    H272129   4.536   6.492  12.735 -0.5647 -1.6141  0.6267
16880TIP3   OH272130   1.079   5.256   2.092 -0.1642 -0.1394  0.6694
16880TIP3    H172131   1.063   5.299   2.009  0.4796 -0.5308  0.3404
16880TIP3    H272132   1.013   5.292   2.151 -0.0912  0.7422  0.2090
16881TIP3   OH272133   4.181   4.029   5.267  0.5313 -0.6511 -0.4455
16881TIP3    H172134   4.195   3.939   5.238  0.2656 -0.6241 -0.6598
16881TIP3    H272135   4.090   4.030   5.297  0.4887 -0.4142 -0.5861
16882TIP3   OH272136   3.584   6.743  16.515  0.2280  0.2581 -0.4144
16882TIP3    H172137   3.537   6.660  16.507 -1.1971  1.1691 -1.6704
16882TIP3    H272138   3.600   6.752  16.609 -3.2876  0.5429  0.2235
16883TIP3   OH272139   4.784   6.087   4.447 -0.2393  0.1874 -0.0776
16883TIP3    H172140   4.855   6.056   4.503 -0.9252 -1.6685 -0.2340
16883TIP3    H272141   4.705   6.050   4.485 -0.6786 -1.4337 -2.4883
16884TIP3   OH272142   5.679   6.234  13.662 -0.6419  0.0101 -0.1219
16884TIP3    H172143   5.767   6.257  13.690 -1.5548  0.9560  2.0939
16884TIP3    H272144   5.683   6.237  13.566  1.0474  2.7472 -0.0341
16885TIP3   OH272145   0.047   0.382   2.202  0.2256 -0.5352  1.2908
16885TIP3    H172146  -0.025   0.436   2.171  0.2425 -0.2409  1.7473
16885TIP3    H272147   0.033   0.296   2.162  0.4992 -0.0484  0.1289
16886TIP3   OH272148   2.217   2.964   2.892  0.2613 -0.3681  1.1494
16886TIP3    H172149   2.130   2.930   2.876 -0.1684  0.6788  1.2126
16886TIP3    H272150   2.209   3.058   2.878  2.1513 -0.6290 -2.1833
16887TIP3   OH272151   5.478   5.930  12.596 -0.1801  0.3670  1.1090
16887TIP3    H172152   5.529   5.990  12.542  1.5593  0.7622  3.1134
16887TIP3    H272153   5.481   5.847  12.549 -0.2758  1.1470 -0.3037
16888TIP3   OH272154   1.182   6.739  14.601 -0.0264 -0.2653 -0.6469
16888TIP3    H172155   1.134   6.809  14.645  0.7840  0.8386 -1.4919
16888TIP3    H272156   1.169   6.662  14.657  0.0719  0.8337  0.9273
16889TIP3   OH272157   4.194   6.407   6.432  0.5947 -0.2262 -0.4045
16889TIP3    H172158   4.188   6.484   6.375  0.0978 -0.5344 -0.7698
16889TIP3    H272159   4.105   6.373   6.437  0.5430  0.0737  0.9576
16890TIP3   OH272160   1.320   4.341  11.569  0.1356 -0.4968 -0.4318
16890TIP3    H172161   1.352   4.288  11.496  0.8751  2.1644 -2.1197
16890TIP3    H272162   1.243   4.386  11.534 -0.8109 -0.8590  1.1511
16891TIP3   OH272163   5.118   2.007  15.844 -0.2540  0.5763 -0.3215
16891TIP3    H172164   5.094   2.044  15.929 -2.3914 -0.0326 -0.6230
16891TIP3    H272165   5.178   1.936  15.865 -1.3631 -0.0665  0.7614
16892TIP3   OH272166   5.368   5.836  10.552  0.0913 -0.7378  0.3510
16892TIP3    H172167   5.360   5.845  10.457  1.2986  1.1571  0.3988
16892TIP3    H272168   5.295   5.887  10.587  0.7628  0.1844  0.4459
16893TIP3   OH272169   0.268   5.368   0.592  0.1417  0.2811 -0.0577
16893TIP3    H172170   0.298   5.428   0.660 -0.5691  1.0985 -0.4622
16893TIP3    H272171   0.308   5.284   0.615 -0.7130  0.3681  1.8156
16894TIP3   OH272172   3.960   3.344  13.189 -0.1797  0.2090 -0.2167
16894TIP3    H172173   3.924   3.396  13.118  0.2694  1.0239  0.1417
16894TIP3    H272174   3.914   3.375  13.267  0.6814  0.6531  0.1179
16895TIP3   OH272175   5.776   1.493   2.939 -0.3465 -0.0361 -0.0390
16895TIP3    H172176   5.779   1.459   3.028  1.4714  0.1600 -0.0030
16895TIP3    H272177   5.859   1.538   2.928 -0.3966 -0.3707 -1.9628
16896TIP3   OH272178   6.730   0.388  12.389  0.6345  0.2615 -0.5609
16896TIP3    H172179   6.779   0.347  12.318  1.4860  1.8131 -0.8837
16896TIP3    H272180   6.769   0.353  12.469 -0.9696 -2.2494 -0.8147
16897TIP3   OH272181   3.862   0.748  15.982 -0.0446 -0.1043 -0.2185
16897TIP3    H172182   3.781   0.714  16.021 -0.4232  0.0156 -0.8817
16897TIP3    H272183   3.853   0.728  15.889 -0.3552  1.9795 -0.6533
16898TIP3   OH272184   5.516   1.085  13.348 -0.3441 -0.0770 -0.4125
16898TIP3    H172185   5.480   0.996  13.347 -0.0968 -0.1784 -0.5125
16898TIP3    H272186   5.449   1.138  13.391 -0.8705 -0.1498 -1.1344
16899TIP3   OH272187   0.477   4.317  15.367 -0.4626 -0.3023 -0.6119
16899TIP3    H172188   0.495   4.238  15.417 -2.3197  0.5769  1.5459
16899TIP3    H272189   0.381   4.323  15.367 -0.3352  2.0083 -0.6165
16900TIP3   OH272190   4.175   3.897   1.359 -0.1866 -0.1426 -0.3304
16900TIP3    H172191   4.094   3.937   1.329 -0.9033 -0.9897  0.4335
16900TIP3    H272192   4.226   3.883   1.279 -0.3718  1.2861 -0.7092
16901TIP3   OH272193   4.400   4.479   5.836  0.2416  0.0426  0.5476
16901TIP3    H172194   4.485   4.467   5.794  1.0584  0.1086  2.1372
16901TIP3    H272195   4.412   4.445   5.925 -1.0934  0.9522  1.0999
16902TIP3   OH272196   5.785   1.032   2.277 -0.6636 -0.0991  0.0988
16902TIP3    H172197   5.816   1.122   2.271 -1.5294  0.2707  1.0197
16902TIP3    H272198   5.692   1.038   2.259 -0.6553 -0.8691 -0.2028
16903TIP3   OH272199   4.151   4.366   3.770 -0.2895  0.1666 -0.0980
16903TIP3    H172200   4.192   4.298   3.823  1.6939  2.7813  1.8418
16903TIP3    H272201   4.080   4.321   3.724 -0.3735 -2.7432  2.7223
16904TIP3   OH272202   5.676   4.133   2.502  0.0142 -0.3814  0.3914
16904TIP3    H172203   5.606   4.073   2.477  0.0867  0.4361 -1.8676
16904TIP3    H272204   5.710   4.167   2.419  1.4387  1.1120  1.5433
16905TIP3   OH272205   1.809   4.849   4.824 -0.6139 -0.1700  0.4504
16905TIP3    H172206   1.893   4.881   4.790 -2.2111  0.6661 -2.9056
16905TIP3    H272207   1.782   4.916   4.888  0.6570  0.1942  0.6268
16906TIP3   OH272208   4.804   3.013   0.461  0.0776  0.7383  0.7553
16906TIP3    H172209   4.742   2.967   0.519  0.1564 -0.8837 -0.4097
16906TIP3    H272210   4.773   3.103   0.460  0.5299  0.9634  3.9345
16907TIP3   OH272211   0.206   6.272   5.291 -0.0893 -0.7108  0.0698
16907TIP3    H172212   0.242   6.222   5.217 -2.0582  1.5704 -2.5609
16907TIP3    H272213   0.133   6.218   5.323 -0.3997 -0.8605 -0.8746
16908TIP3   OH272214   5.274   2.174   4.784 -0.3697 -0.4608  0.4680
16908TIP3    H172215   5.344   2.124   4.826 -0.7738 -1.1545  0.3196
16908TIP3    H272216   5.305   2.265   4.785 -0.6810 -0.3475  2.8894
16909TIP3   OH272217   5.225   1.842   3.136 -0.0131  0.1906 -0.0547
16909TIP3    H172218   5.273   1.780   3.190 -0.9224 -0.1602  0.3692
16909TIP3    H272219   5.257   1.928   3.163 -0.3660  0.0107  0.9654
16910TIP3   OH272220   0.422   1.776  14.250  0.1607 -0.1534  0.7366
16910TIP3    H172221   0.495   1.832  14.224  0.6022 -1.5542 -1.1324
16910TIP3    H272222   0.400   1.805  14.339  2.1836  1.0900  0.8600
16911TIP3   OH272223   4.853   5.793   6.653  0.5435  0.2039  0.8186
16911TIP3    H172224   4.946   5.816   6.652  0.6546 -0.2746 -0.9285
16911TIP3    H272225   4.852   5.698   6.641 -0.1355  0.0713  1.9311
16912TIP3   OH272226   5.880   1.886   5.071 -0.3472 -0.3095 -0.3775
16912TIP3    H172227   5.884   1.832   4.992  0.2848 -0.1593 -0.4488
16912TIP3    H272228   5.948   1.952   5.058  1.8572 -2.1054  1.6506
16913TIP3   OH272229   0.281   1.663  12.169 -0.3598 -0.2906  0.3521
16913TIP3    H172230   0.197   1.708  12.179  0.0644  0.0136  2.7567
16913TIP3    H272231   0.284   1.638  12.076 -1.7767  2.2726 -0.4176
16914TIP3   OH272232   2.825   4.602  11.381 -0.4835  0.4557 -0.0383
16914TIP3    H172233   2.784   4.672  11.432 -3.2660 -1.3905  0.3725
16914TIP3    H272234   2.916   4.601  11.411 -0.9304  2.4653  1.5209
16915TIP3   OH272235   2.044   0.867   5.038  0.1165 -0.2028  0.0986
16915TIP3    H172236   2.076   0.823   4.959 -0.9451 -0.4324 -0.2157
16915TIP3    H272237   1.994   0.800   5.084  1.9740 -0.5112  1.7472
16916TIP3   OH272238   3.254   3.313   2.993 -0.4538  0.1873  0.0651
16916TIP3    H172239   3.183   3.324   3.056  1.3121  2.4947  1.7370
16916TIP3    H272240   3.218   3.253   2.927 -3.5376  0.4086  1.4376
16917TIP3   OH272241   3.596   3.208   3.410  0.5200  0.5350  0.5315
16917TIP3    H172242   3.619   3.148   3.481 -0.8035 -0.5538  0.0719
16917TIP3    H272243   3.667   3.198   3.347  0.6732 -0.0175  0.7866
16918TIP3   OH272244   6.748   3.193   0.497 -0.4039 -0.0257 -0.0990
16918TIP3    H172245   6.756   3.112   0.547  1.3865  1.0342  1.3662
16918TIP3    H272246   6.766   3.263   0.560 -2.0409  1.5416 -1.3028
16919TIP3   OH272247   5.676   6.269   2.103  0.2406 -0.8073 -0.2254
16919TIP3    H172248   5.664   6.289   2.196  0.2651 -0.4980 -0.2885
16919TIP3    H272249   5.695   6.354   2.063 -2.5549 -0.4773 -0.9625
16920TIP3   OH272250   6.647   5.286  15.549 -0.3731  0.6866 -0.1567
16920TIP3    H172251   6.704   5.316  15.479 -0.1785  0.7415  0.0242
16920TIP3    H272252   6.563   5.269  15.506  0.8855 -3.4559 -1.2720
16921TIP3   OH272253   1.455   1.770   0.195 -0.1054 -0.5320 -0.3859
16921TIP3    H172254   1.527   1.711   0.214 -0.4801 -0.8257  0.1289
16921TIP3    H272255   1.493   1.858   0.201 -0.1234 -0.6341  1.3360
16922TIP3   OH272256   3.902   2.871   5.322  0.4572  0.2141 -0.2174
16922TIP3    H172257   3.857   2.829   5.249 -1.7491  1.1804  0.5276
16922TIP3    H272258   3.978   2.815   5.339 -0.1808 -1.1968 -1.8472
16923TIP3   OH272259   6.374   4.580   0.521  0.1647  0.2316 -0.7629
16923TIP3    H172260   6.380   4.514   0.452 -0.3134 -0.2357 -0.3551
16923TIP3    H272261   6.407   4.537   0.599  1.0777  0.8862 -0.7700
16924TIP3   OH272262   2.307   2.179  11.198 -0.3261  0.3421  0.1745
16924TIP3    H172263   2.231   2.124  11.215 -1.2948  2.3276  2.6607
16924TIP3    H272264   2.276   2.245  11.137  0.4498 -1.0103 -1.7093
16925TIP3   OH272265   1.011   4.682  10.217  0.0143 -0.1384 -0.2348
16925TIP3    H172266   0.943   4.675  10.150  0.6919 -0.9623 -0.8504
16925TIP3    H272267   0.967   4.655  10.298 -0.6463  0.2796 -0.4478
16926TIP3   OH272268   0.873   5.438  13.887  0.2539 -0.0738  0.0466
16926TIP3    H172269   0.905   5.523  13.917  0.7995 -0.4737  0.6339
16926TIP3    H272270   0.952   5.388  13.867 -0.1171  0.3394 -2.5727
16927TIP3   OH272271   5.840   5.962   4.079  0.3555 -0.2678 -0.0923
16927TIP3    H172272   5.842   6.022   4.005 -0.4805 -0.1219 -0.0098
16927TIP3    H272273   5.847   6.018   4.156 -0.1716 -0.2932 -0.0232
16928TIP3   OH272274   5.093   3.264  12.534  0.7288  0.3525 -0.0043
16928TIP3    H172275   5.008   3.308  12.524  0.0558 -1.2380 -1.5579
16928TIP3    H272276   5.115   3.276  12.626 -1.0997  0.9489  0.3854
16929TIP3   OH272277   4.480   3.375  13.123  0.3376 -0.4281  0.5141
16929TIP3    H172278   4.388   3.401  13.124  0.4488  0.0355 -1.1328
16929TIP3    H272279   4.482   3.296  13.070  0.9244 -0.3070  0.3543
16930TIP3   OH272280   1.105   0.441  12.604 -0.4910 -0.3373 -0.2549
16930TIP3    H172281   1.122   0.387  12.526  1.7679  0.0216 -0.0381
16930TIP3    H272282   1.091   0.377  12.674 -0.5209 -0.6562 -0.5470
16931TIP3   OH272283   2.038   0.327   1.066 -0.3551 -0.1624  0.2077
16931TIP3    H172284   2.063   0.417   1.088 -1.8502  0.4022 -0.3253
16931TIP3    H272285   1.996   0.294   1.146  2.0628 -1.1435  1.1366
16932TIP3   OH272286   1.231   4.157   6.582  0.1015  0.0023  0.7160
16932TIP3    H172287   1.245   4.236   6.634 -1.1255 -0.3604  1.6179
16932TIP3    H272288   1.317   4.117   6.574  0.2141 -0.2318  2.9330
16933TIP3   OH272289   4.024   1.320   1.746  0.2352 -0.6400 -0.3361
16933TIP3    H172290   3.955   1.371   1.789  0.5796  0.8250 -1.4660
16933TIP3    H272291   4.105   1.361   1.775  0.4883  0.0889 -1.9820
16934TIP3   OH272292   6.275   3.955  16.508  0.0613 -0.6045  0.0898
16934TIP3    H172293   6.218   3.898  16.456  0.1807  1.1754 -2.0487
16934TIP3    H272294   6.358   3.907  16.515 -0.7201 -1.9053  0.7344
16935TIP3   OH272295   4.472   2.853   4.822 -0.1856 -0.3583 -0.1369
16935TIP3    H172296   4.460   2.762   4.848 -0.7489 -0.1614  0.3139
16935TIP3    H272297   4.399   2.899   4.863 -0.4736  0.1395 -1.1877
16936TIP3   OH272298   6.811   2.077  16.581  0.2141 -0.6354  0.3485
16936TIP3    H172299   6.864   2.000  16.559 -0.4849 -1.0153 -0.0063
16936TIP3    H272300   6.809   2.128  16.500 -0.3661 -0.8618  0.2177
16937TIP3   OH272301   3.852   4.968   0.106  0.3969 -0.1395  0.4329
16937TIP3    H172302   3.870   4.987   0.014  2.2769 -0.4400  0.7181
16937TIP3    H272303   3.810   5.047   0.140 -0.8805 -0.2603 -0.8214
16938TIP3   OH272304   1.335   1.358  14.963  0.5622 -0.0242  0.0801
16938TIP3    H172305   1.351   1.403  14.880  1.1482 -0.6207 -0.1422
16938TIP3    H272306   1.291   1.423  15.018 -1.4368 -0.1694 -1.3035
16939TIP3   OH272307   6.020   2.781  13.094  0.3021  0.3116  0.0322
16939TIP3    H172308   5.982   2.768  13.007 -0.3638  3.0146 -0.1137
16939TIP3    H272309   6.044   2.874  13.096  1.8385 -0.0928  2.1401
16940TIP3   OH272310   0.097   0.690  13.252  0.4014  0.5279  0.2717
16940TIP3    H172311   0.157   0.694  13.178  1.3008  0.6632  1.0081
16940TIP3    H272312   0.084   0.596  13.267  0.3212  0.4997  0.0344
16941TIP3   OH272313   2.352   5.238   3.483 -0.5200 -0.0286  0.6491
16941TIP3    H172314   2.368   5.326   3.517 -0.7668 -0.3500  1.6143
16941TIP3    H272315   2.281   5.250   3.420  0.7471  0.7595 -0.6714
16942TIP3   OH272316   6.469   2.220  15.812 -0.2118 -0.3485 -0.3087
16942TIP3    H172317   6.508   2.307  15.806  1.3444 -0.9671  0.6602
16942TIP3    H272318   6.398   2.230  15.875  1.3405 -0.2586  1.4590
16943TIP3   OH272319   0.917   0.421  17.191 -0.4354 -0.5597 -0.1022
16943TIP3    H172320   0.984   0.354  17.186  1.0602  1.0512 -2.2271
16943TIP3    H272321   0.917   0.448  17.283 -1.1090 -3.4641  0.7877
16944TIP3   OH272322   4.497   4.883  11.465  0.2672  0.2038  0.3464
16944TIP3    H172323   4.403   4.892  11.451  0.4558  0.4079 -0.8359
16944TIP3    H272324   4.518   4.795  11.434  0.2892 -0.2690  1.6570
16945TIP3   OH272325   5.084   2.389   5.827  0.3031 -0.3181  0.1056
16945TIP3    H172326   5.032   2.315   5.859  1.5851 -0.6412  1.5174
16945TIP3    H272327   5.165   2.348   5.797  0.6531  0.4175  0.0547
16946TIP3   OH272328   4.301   2.286  15.853  0.5876 -0.1379  0.0511
16946TIP3    H172329   4.333   2.198  15.872  1.2400  0.1501  0.3400
16946TIP3    H272330   4.347   2.342  15.916 -1.2028  0.1855  1.0974
16947TIP3   OH272331   2.519   1.465   5.309 -0.2354  0.2573  0.0193
16947TIP3    H172332   2.573   1.392   5.340 -0.5349 -0.9891 -2.2622
16947TIP3    H272333   2.568   1.501   5.234 -0.6013  1.7395  0.4775
16948TIP3   OH272334   4.718   5.883  11.734 -0.6962 -0.3374  0.3857
16948TIP3    H172335   4.770   5.962  11.745 -0.5572 -0.2938 -0.5324
16948TIP3    H272336   4.764   5.832  11.667 -1.5094 -0.5700 -0.0073
16949TIP3   OH272337   4.747   0.698   2.423  0.3809 -0.9240  0.0579
16949TIP3    H172338   4.706   0.761   2.364 -0.3189  0.3921  1.8902
16949TIP3    H272339   4.839   0.723   2.425  0.1010  0.0491  0.7851
16950TIP3   OH272340   2.002   6.760   0.201 -0.0878 -0.6440  0.2013
16950TIP3    H172341   2.049   6.707   0.266  0.4101 -0.2298  0.1887
16950TIP3    H272342   1.912   6.763   0.233 -0.2969 -2.1263 -0.1955
16951TIP3   OH272343   2.821   6.037  16.005  0.6716 -0.3476  0.2423
16951TIP3    H172344   2.780   6.014  16.088 -0.2860  0.0152 -0.1187
16951TIP3    H272345   2.829   6.133  16.008  2.3888 -0.5058  0.7208
16952TIP3   OH272346   1.297   1.853   4.411  0.2392  0.0949  0.5391
16952TIP3    H172347   1.383   1.863   4.369 -0.6847 -0.0961 -1.4805
16952TIP3    H272348   1.258   1.778   4.366 -1.2933  0.6689  0.9009
16953TIP3   OH272349   5.256   5.912   4.857 -0.7347  0.1792  0.2887
16953TIP3    H172350   5.306   5.915   4.775 -1.7818  0.9092 -0.3310
16953TIP3    H272351   5.323   5.908   4.925  0.1376 -2.7550 -0.6677
16954TIP3   OH272352   6.349   3.433   5.376 -0.2524 -0.2919  0.3374
16954TIP3    H172353   6.301   3.458   5.455  2.2106 -1.3486  2.2032
16954TIP3    H272354   6.402   3.358   5.402  2.9116  1.2031 -1.4848
16955TIP3   OH272355   3.405   5.491  15.600  0.1317 -0.0549  0.8627
16955TIP3    H172356   3.437   5.442  15.524  0.9343  0.4208  0.8929
16955TIP3    H272357   3.330   5.540  15.567 -0.6344 -1.2328  0.8105
16956TIP3   OH272358   4.331   1.291  12.201 -0.3643  0.3189 -0.4438
16956TIP3    H172359   4.236   1.295  12.190 -0.3440 -0.4966 -0.9263
16956TIP3    H272360   4.367   1.328  12.121 -0.2677 -0.0703 -0.5805
16957TIP3   OH272361   3.285   2.809   5.396  0.1392 -0.7712 -0.5450
16957TIP3    H172362   3.335   2.889   5.413 -0.5782 -0.5189  0.4355
16957TIP3    H272363   3.260   2.815   5.304  0.1492  0.0963 -0.4924
16958TIP3   OH272364   1.422   5.328   3.712 -0.7070  0.6545  0.1947
16958TIP3    H172365   1.409   5.371   3.797 -2.5042  1.1173 -0.2934
16958TIP3    H272366   1.352   5.264   3.706 -0.2087  0.1771 -0.6643
16959TIP3   OH272367   6.727   0.616  15.922 -0.1737  0.0766  0.6826
16959TIP3    H172368   6.728   0.703  15.962  0.3633  0.4874 -0.2129
16959TIP3    H272369   6.635   0.591  15.919 -0.4133  1.0690 -0.0525
16960TIP3   OH272370   6.203   6.135   1.765  0.2111 -0.6758 -0.4027
16960TIP3    H172371   6.132   6.180   1.811 -0.0045 -2.1219  0.7081
16960TIP3    H272372   6.226   6.194   1.693 -2.9150 -0.6807 -1.4806
16961TIP3   OH272373   4.985   1.161   4.493 -0.0000  0.3702  0.4223
16961TIP3    H172374   4.921   1.231   4.509 -0.9246 -0.2280 -0.6810
16961TIP3    H272375   5.009   1.131   4.581 -2.5034 -0.5506  0.8099
16962TIP3   OH272376   4.716   1.757   2.030  0.2999  0.4610  0.0741
16962TIP3    H172377   4.807   1.782   2.051  0.6857 -0.5851 -0.3376
16962TIP3    H272378   4.725   1.683   1.970 -0.8057 -1.5463  2.2939
16963TIP3   OH272379   6.673   5.440   1.438 -0.0070 -0.0675 -0.1205
16963TIP3    H172380   6.652   5.534   1.434 -1.8714 -0.4210  0.8557
16963TIP3    H272381   6.627   5.402   1.363  0.7536 -0.1928 -0.5194
16964TIP3   OH272382   3.176   0.175   0.571  0.2654  0.4172 -0.2336
16964TIP3    H172383   3.123   0.139   0.500 -1.6492  0.1237  1.2854
16964TIP3    H272384   3.149   0.125   0.648  1.8014  1.1909  0.8246
16965TIP3   OH272385   0.727   5.099   0.923  0.1132  0.5024 -0.2822
16965TIP3    H172386   0.725   5.127   0.831 -0.2480  1.8240  0.1188
16965TIP3    H272387   0.636   5.075   0.942  0.2415 -0.0533 -0.3401
16966TIP3   OH272388   3.287   5.620  16.479  0.3501 -0.5234 -0.0560
16966TIP3    H172389   3.233   5.583  16.410  0.9258 -2.4968  0.5107
16966TIP3    H272390   3.377   5.595  16.456  0.7300  0.3001  0.4814
16967TIP3   OH272391   5.159   6.720  16.214 -0.1659  0.4913 -0.2271
16967TIP3    H172392   5.245   6.731  16.255  0.0566 -0.4540 -0.4150
16967TIP3    H272393   5.178   6.681  16.128 -0.7085  1.3014 -0.7186
16968TIP3   OH272394   3.447   3.281  12.691 -0.5866  0.2408  0.0477
16968TIP3    H172395   3.368   3.303  12.740 -1.1379 -0.3132 -0.5755
16968TIP3    H272396   3.418   3.215  12.628 -0.0852  1.6558 -1.6735
16969TIP3   OH272397   3.753   1.261   2.622  0.1939 -0.2873  0.3661
16969TIP3    H172398   3.684   1.204   2.587  0.6851 -0.2088 -0.7343
16969TIP3    H272399   3.764   1.232   2.713 -1.2975 -0.2955  0.5607
16970TIP3   OH272400   6.189   2.921  15.890  0.3129 -0.6278  0.6327
16970TIP3    H172401   6.206   2.889  15.978  2.0737  0.5402  0.7356
16970TIP3    H272402   6.221   3.012  15.890  1.2762 -0.9281 -1.4755
16971TIP3   OH272403   1.402   3.008   0.649 -0.3134 -0.3141 -0.3745
16971TIP3    H172404   1.380   2.964   0.567 -2.3141  0.4674 -0.2643
16971TIP3    H272405   1.341   2.971   0.713 -0.8620  1.3609  0.0865
16972TIP3   OH272406   2.376   1.729   3.009 -1.0873 -0.0325  0.2879
16972TIP3    H172407   2.419   1.811   2.984  0.8780 -1.1934 -0.2110
16972TIP3    H272408   2.344   1.693   2.926 -2.9339  0.7451  0.6375
16973TIP3   OH272409   1.090   5.894   0.306  0.3208  0.3396  0.0457
16973TIP3    H172410   1.059   5.811   0.268 -0.6154  1.7377 -2.3832
16973TIP3    H272411   1.185   5.884   0.308  0.1943 -0.9823  0.2133
16974TIP3   OH272412   6.170   2.229  14.920  0.3054 -0.2782 -0.0566
16974TIP3    H172413   6.175   2.205  15.012  0.3446 -1.4393 -0.3536
16974TIP3    H272414   6.205   2.153  14.873  0.5681  0.4208 -1.0129
16975TIP3   OH272415   0.390   0.827  14.991  0.6667  0.0182 -0.4496
16975TIP3    H172416   0.337   0.870  14.924 -1.3746  0.9959  1.7007
16975TIP3    H272417   0.444   0.898  15.028  2.6020 -0.7239 -1.7425
16976TIP3   OH272418   2.955   2.404  15.917  0.5919  0.0480  0.1337
16976TIP3    H172419   3.028   2.374  15.971  2.4447  2.6719 -0.7691
16976TIP3    H272420   2.982   2.383  15.827 -0.6017 -0.6216 -0.0683
16977TIP3   OH272421   0.740   0.960   3.161 -0.0506 -0.1394 -0.3735
16977TIP3    H172422   0.783   0.927   3.240 -0.3641 -0.1753 -0.2176
16977TIP3    H272423   0.762   0.896   3.093 -0.6495 -0.6721 -0.0756
16978TIP3   OH272424   2.309   3.705  12.597  0.4252 -0.1150 -0.0363
16978TIP3    H172425   2.242   3.774  12.602  2.3493  1.7206  1.2356
16978TIP3    H272426   2.313   3.683  12.504 -2.0175 -0.3477 -0.1114
16979TIP3   OH272427   4.978   1.247  14.874 -0.2578  0.1146  0.1120
16979TIP3    H172428   4.898   1.265  14.824 -0.1035  2.2140  0.5994
16979TIP3    H272429   5.010   1.333  14.901  1.6557 -0.7661  0.7397
16980TIP3   OH272430   1.326   6.358  13.474 -0.0113  0.7232 -0.2483
16980TIP3    H172431   1.246   6.350  13.526  1.0888 -1.7684  1.1480
16980TIP3    H272432   1.382   6.418  13.524 -0.1916  0.8381 -0.1834
16981TIP3   OH272433   6.633   0.375   1.616 -0.0805  0.1939 -0.1199
16981TIP3    H172434   6.548   0.342   1.647  0.1793 -1.5320 -1.1869
16981TIP3    H272435   6.614   0.463   1.585 -1.3679  0.0520  0.2147
16982TIP3   OH272436   3.624   0.663   1.954 -0.3004 -0.1528  0.4672
16982TIP3    H172437   3.587   0.646   1.867  0.6695 -0.3890  0.0960
16982TIP3    H272438   3.637   0.758   1.956 -3.3067  0.2804  1.5710
16983TIP3   OH272439   4.518   2.648   6.201 -0.0013 -0.1744 -0.4116
16983TIP3    H172440   4.581   2.663   6.130  0.6096  0.1109  0.1926
16983TIP3    H272441   4.564   2.674   6.280 -0.1934 -1.7739  0.2482
16984TIP3   OH272442   1.498   4.607  14.238 -0.1008 -0.1553  0.3519
16984TIP3    H172443   1.548   4.531  14.269 -0.3859 -0.8031 -0.7469
16984TIP3    H272444   1.454   4.640  14.317 -1.0982 -1.9865  0.6002
16985TIP3   OH272445   4.614   2.514  17.207 -0.4149 -0.2036 -0.0741
16985TIP3    H172446   4.635   2.594  17.256  0.9375 -0.3705 -0.3683
16985TIP3    H272447   4.620   2.444  17.272 -0.9685 -0.1488  0.0403
16986TIP3   OH272448   0.638   1.622   3.487 -0.1697  0.4494  0.0648
16986TIP3    H172449   0.704   1.610   3.419 -0.9866  1.4623 -0.9221
16986TIP3    H272450   0.668   1.697   3.537 -0.7635  1.1519 -0.6244
16987TIP3   OH272451   1.032   4.948  10.311  0.0696 -0.1295  0.0789
16987TIP3    H172452   1.023   4.941  10.406 -0.8623  0.2237  0.0180
16987TIP3    H272453   1.040   4.858  10.281  1.5458 -0.1823  0.6015
16988TIP3   OH272454   2.036   3.470   5.640  0.7818 -0.1012 -0.5481
16988TIP3    H172455   2.043   3.565   5.630  0.1902 -0.0073 -0.0976
16988TIP3    H272456   1.972   3.458   5.711  2.4807 -0.7823  0.9030
16989TIP3   OH272457   3.028   5.539   2.614 -0.0055 -0.1462 -0.1991
16989TIP3    H172458   2.981   5.622   2.602  1.5458  1.2136  2.6566
16989TIP3    H272459   2.989   5.500   2.692  2.4662  0.2516  1.2932
16990TIP3   OH272460   2.296   1.330   0.104  0.0274  0.4082  0.2735
16990TIP3    H172461   2.252   1.293   0.028  0.0228 -1.7128  1.2894
16990TIP3    H272462   2.384   1.353   0.073 -0.1796  0.1418 -0.5128
16991TIP3   OH272463   6.539   6.464   1.071 -0.8548 -0.7124  0.2119
16991TIP3    H172464   6.490   6.391   1.034 -2.7773  0.9051 -0.5771
16991TIP3    H272465   6.565   6.517   0.995 -0.3241 -0.0754  0.8282
16992TIP3   OH272466   3.926   2.205  14.378  0.4244  0.3041  0.8202
16992TIP3    H172467   3.886   2.124  14.347 -1.1386  1.5978 -0.6718
16992TIP3    H272468   3.948   2.188  14.470 -2.0586 -1.0220  1.2030
16993TIP3   OH272469   4.290   5.121   1.954 -0.5237 -0.4240  0.1964
16993TIP3    H172470   4.321   5.147   1.867  1.3980 -0.3538  0.8766
16993TIP3    H272471   4.240   5.041   1.939  0.1249 -0.6304 -0.9284
16994TIP3   OH272472   3.993   2.849  12.155  0.2360 -0.0071 -0.1085
16994TIP3    H172473   4.010   2.761  12.188 -1.6092 -0.1256  0.5831
16994TIP3    H272474   4.005   2.905  12.232  2.7027  0.5331 -0.8341
16995TIP3   OH272475   3.139   1.618  15.919 -0.2904  0.2129  0.0017
16995TIP3    H172476   3.047   1.635  15.937  0.0630  0.0663  1.9915
16995TIP3    H272477   3.139   1.537  15.868 -1.3549  1.0847 -1.4180
16996TIP3   OH272478   2.541   4.351   3.216 -0.5064 -0.2567 -0.6669
16996TIP3    H172479   2.593   4.371   3.294  0.6227  0.9478 -1.6953
16996TIP3    H272480   2.565   4.261   3.194 -2.2472 -1.2660  1.4307
16997TIP3   OH272481   4.235   4.023   2.059  0.0139  0.7357  0.4164
16997TIP3    H172482   4.259   3.935   2.087  0.8349  0.6538 -0.5344
16997TIP3    H272483   4.306   4.079   2.092  0.6507  0.7267 -0.9081
16998TIP3   OH272484   5.216   3.282  13.223 -0.4395 -0.6398  0.0350
16998TIP3    H172485   5.205   3.324  13.137  0.5734 -0.7308 -0.1471
16998TIP3    H272486   5.287   3.330  13.264  0.9340 -2.3628 -0.2921
16999TIP3   OH272487   4.516   2.439  15.953 -0.5079  0.6381  0.0901
16999TIP3    H172488   4.583   2.380  15.921 -1.2238 -0.2916  0.2882
16999TIP3    H272489   4.510   2.421  16.047 -1.4703  0.2545 -0.0338
17000TIP3   OH272490   5.224   0.244  16.101 -0.0430  0.3456 -0.4717
17000TIP3    H172491   5.308   0.210  16.070  1.2574  1.0710  2.0469
17000TIP3    H272492   5.196   0.304  16.032  2.4591  1.5011 -0.5639
17001TIP3   OH272493   5.577   2.611  13.831  0.1896 -0.1686 -0.2129
17001TIP3    H172494   5.534   2.588  13.749 -1.9916 -0.6414  1.0244
17001TIP3    H272495   5.606   2.528  13.868  2.1835  0.1402 -1.0120
17002TIP3   OH272496   4.253   4.096  14.909  0.3328  0.2950  0.0093
17002TIP3    H172497   4.341   4.078  14.876 -0.1889 -0.7048 -0.8791
17002TIP3    H272498   4.267   4.133  14.996  1.6243 -0.1685  0.0108
17003TIP3   OH272499   2.891   0.642   2.098  0.4007 -0.5681 -0.0682
17003TIP3    H172500   2.974   0.627   2.144  1.7751  0.6472 -2.0489
17003TIP3    H272501   2.909   0.718   2.042 -1.3820 -1.6292 -2.1361
17004TIP3   OH272502   0.683   3.656  11.398 -0.2772 -0.3221  0.0293
17004TIP3    H172503   0.716   3.583  11.346  0.0679  0.0730 -0.3017
17004TIP3    H272504   0.587   3.648  11.391 -0.2574 -1.2684  0.7317
17005TIP3   OH272505   0.804   0.901   3.549 -0.5294 -0.2411  0.1914
17005TIP3    H172506   0.868   0.838   3.515  1.6723  2.5628 -1.0643
17005TIP3    H272507   0.816   0.897   3.644 -0.2993 -1.5820  0.1205
17006TIP3   OH272508   1.278   6.002  11.538  0.0399 -0.0368 -0.1010
17006TIP3    H172509   1.190   6.016  11.572 -0.3601  0.1252 -1.1744
17006TIP3    H272510   1.271   5.922  11.485  0.8836 -0.8642  1.0001
17007TIP3   OH272511   2.476   2.882  11.719 -0.3321  0.5187  0.5756
17007TIP3    H172512   2.568   2.888  11.696 -0.4048  0.1990  0.1991
17007TIP3    H272513   2.448   2.798  11.684 -0.3717 -0.1142  2.0872
17008TIP3   OH272514   0.413   5.433   4.302 -0.6661  0.1757 -0.0395
17008TIP3    H172515   0.481   5.501   4.305 -0.5962  0.1129 -0.1924
17008TIP3    H272516   0.455   5.360   4.256  0.1541 -0.9673  2.4377
17009TIP3   OH272517   1.046   4.247  14.259  0.4198  0.1142  0.0692
17009TIP3    H172518   1.125   4.265  14.310  0.5134 -0.4420  0.1195
17009TIP3    H272519   1.057   4.157  14.229  1.3360  1.1093 -2.6984
17010TIP3   OH272520   4.826   6.768  14.438  0.2912  0.2833 -0.0248
17010TIP3    H172521   4.894   6.739  14.498  0.3572  1.3054  0.4037
17010TIP3    H272522   4.750   6.714  14.460  0.9581 -0.8757 -0.5249
17011TIP3   OH272523   4.405   4.721  14.058  0.0007 -0.2911 -0.0526
17011TIP3    H172524   4.431   4.743  14.147  0.0681 -0.0529 -0.1282
17011TIP3    H272525   4.374   4.631  14.062  2.4760 -1.2041 -0.2853
17012TIP3   OH272526   1.033   2.481   0.074  0.3056 -0.4610  0.4851
17012TIP3    H172527   1.126   2.460   0.085  0.3573 -1.1338 -1.1759
17012TIP3    H272528   1.002   2.500   0.163  1.5162 -2.3786  1.3511
17013TIP3   OH272529   1.034   2.586  17.107  1.1094  0.2582 -0.3246
17013TIP3    H172530   1.026   2.544  17.192  0.9137  0.3004 -0.3225
17013TIP3    H272531   1.023   2.515  17.043 -2.5949  0.8048 -0.4064
17014TIP3   OH272532   6.379   3.368   6.461 -0.4167 -0.3280  0.2579
17014TIP3    H172533   6.344   3.455   6.476  0.2205 -0.2019  1.0768
17014TIP3    H272534   6.304   3.316   6.432 -0.7967  0.4878 -0.2463
17015TIP3   OH272535   3.080   4.888   2.070 -0.3165 -0.0215 -0.0887
17015TIP3    H172536   3.080   4.976   2.108 -0.9101 -0.7634  1.6873
17015TIP3    H272537   3.170   4.874   2.041 -0.0219  0.8512  0.3969
17016TIP3   OH272538   3.072   0.218   0.176 -0.3481 -0.0970  0.1710
17016TIP3    H172539   3.160   0.245   0.203 -0.2047 -0.1725 -0.2162
17016TIP3    H272540   3.041   0.164   0.249 -0.4363  0.6892  0.7097
17017TIP3   OH272541   1.483   6.341  15.159 -0.1240 -0.5653 -0.0427
17017TIP3    H172542   1.403   6.290  15.154 -0.2934 -0.3192  0.1298
17017TIP3    H272543   1.497   6.356  15.253 -1.7311  2.2626 -0.1923
17018TIP3   OH272544   4.691   4.276  14.701 -0.4250 -0.3236  0.5089
17018TIP3    H172545   4.664   4.290  14.791 -0.6989  0.7562  0.2674
17018TIP3    H272546   4.613   4.295  14.649  0.5911  2.3119 -0.1605
17019TIP3   OH272547   1.229   2.481   3.616  0.0273 -0.4084 -0.6389
17019TIP3    H172548   1.236   2.503   3.709 -0.1122  1.8334 -1.1174
17019TIP3    H272549   1.299   2.418   3.600  0.0148 -0.8464  0.9919
17020TIP3   OH272550   0.984   4.519   4.585 -0.0609 -0.0731  0.3373
17020TIP3    H172551   0.985   4.611   4.559 -2.2566  0.6096  2.4576
17020TIP3    H272552   1.069   4.505   4.627  0.0255  1.1817  0.6070
17021TIP3   OH272553   3.292   1.115   3.581 -0.4532  0.2814 -0.1103
17021TIP3    H172554   3.232   1.067   3.525 -0.2137  0.9072 -0.9219
17021TIP3    H272555   3.238   1.146   3.654 -1.2401  1.2614 -1.0831
17022TIP3   OH272556   4.462   1.488  15.307 -0.4423  0.0868  0.3957
17022TIP3    H172557   4.389   1.434  15.339  0.4943 -0.2941  1.9425
17022TIP3    H272558   4.521   1.426  15.265 -0.7613  0.3321 -0.4324
17023TIP3   OH272559   5.856   2.052   5.965 -0.0185  0.0010 -0.0559
17023TIP3    H172560   5.810   1.968   5.953 -0.9114  0.4892 -0.0786
17023TIP3    H272561   5.868   2.086   5.876 -1.1961  0.7134  0.0489
17024TIP3   OH272562   1.477   4.885  13.836 -0.0030  0.5846  0.2401
17024TIP3    H172563   1.382   4.885  13.846 -0.2474 -0.2748 -1.8651
17024TIP3    H272564   1.492   4.877  13.742  2.1566  2.6151  0.3549
17025TIP3   OH272565   0.721   3.317   2.983 -0.1634  0.5795 -0.1735
17025TIP3    H172566   0.672   3.319   2.901  0.3769  3.1852 -0.4834
17025TIP3    H272567   0.688   3.241   3.030  0.0779 -1.4019 -3.1366
17026TIP3   OH272568   3.210   5.028   2.944 -0.2503 -0.0239  0.0033
17026TIP3    H172569   3.226   4.953   2.887 -0.2378 -0.1721  0.2000
17026TIP3    H272570   3.297   5.055   2.974 -0.1317  0.9646 -1.1974
17027TIP3   OH272571   0.802   0.061  12.232  0.0423  0.1629 -0.1949
17027TIP3    H172572   0.754   0.012  12.164 -1.0493  0.2523  0.4936
17027TIP3    H272573   0.795   0.153  12.203 -2.1842  0.4300  1.0595
17028TIP3   OH272574   5.211   5.741  14.292  0.4216 -0.1490  0.4259
17028TIP3    H172575   5.206   5.650  14.263  1.0977 -0.0607  0.0390
17028TIP3    H272576   5.119   5.769  14.297  0.2641 -0.3690 -0.9962
17029TIP3   OH272577   0.392   2.881  12.488 -0.7076 -0.7307  0.3594
17029TIP3    H172578   0.408   2.967  12.450  2.4752 -0.7161  1.5666
17029TIP3    H272579   0.350   2.831  12.419 -1.4295  1.3865 -0.7827
17030TIP3   OH272580   4.831   4.904   1.477  0.3201  0.0861  0.2773
17030TIP3    H172581   4.859   4.987   1.439 -0.2849  0.3565  0.4050
17030TIP3    H272582   4.809   4.849   1.402  1.2519 -0.1465  0.1794
17031TIP3   OH272583   1.087   5.891  12.002  0.5275  0.0692 -0.1997
17031TIP3    H172584   1.160   5.930  11.953  1.4263 -2.1496 -0.7023
17031TIP3    H272585   1.074   5.805  11.961  0.6017 -1.4328  2.7565
17032TIP3   OH272586   5.068   2.611   1.912  0.2047  0.0521 -0.2716
17032TIP3    H172587   5.106   2.584   1.829 -0.3188  0.4751 -0.6492
17032TIP3    H272588   5.014   2.688   1.891 -0.9200 -0.5796  0.2412
17033TIP3   OH272589   3.088   2.757  13.186 -0.5072  0.0841  0.2600
17033TIP3    H172590   3.169   2.806  13.190 -0.6703  0.2526  1.9800
17033TIP3    H272591   3.107   2.675  13.231 -1.3443  0.2194  0.8798
17034TIP3   OH272592   2.319   2.992  13.245 -0.1737  0.2136  0.1105
17034TIP3    H172593   2.310   2.897  13.249 -1.5108  0.2843 -0.7506
17034TIP3    H272594   2.410   3.009  13.271 -0.3326 -1.1838  1.6419
17035TIP3   OH272595   6.108   1.840  11.832 -0.4141 -0.2181 -0.3456
17035TIP3    H172596   6.020   1.840  11.794 -1.1948  1.0737  1.4217
17035TIP3    H272597   6.159   1.897  11.774 -1.0550  0.0096 -0.6935
17036TIP3   OH272598   3.303   2.536   5.332  0.1549  0.4173 -0.8480
17036TIP3    H172599   3.331   2.616   5.375 -0.7063  0.5574 -0.5460
17036TIP3    H272600   3.269   2.564   5.247 -2.3065  0.6513  0.1765
17037TIP3   OH272601   3.860   3.856   1.855  0.1424  0.0554 -0.2142
17037TIP3    H172602   3.855   3.841   1.950 -0.8090  2.2955  0.1106
17037TIP3    H272603   3.859   3.768   1.817 -0.0374 -0.8498  1.8237
17038TIP3   OH272604   5.418   6.147   5.900 -0.1474 -0.1207  0.3058
17038TIP3    H172605   5.329   6.181   5.890  0.0599  0.0404 -1.1204
17038TIP3    H272606   5.444   6.171   5.989 -0.7696  1.6196  0.0282
17039TIP3   OH272607   3.271   5.841   5.196  0.2821  0.5216 -0.3002
17039TIP3    H172608   3.235   5.819   5.282  1.2943  2.1493  0.5753
17039TIP3    H272609   3.322   5.920   5.211 -1.4152  2.1820 -2.8863
17040TIP3   OH272610   5.060   4.836  12.624 -0.3015 -0.2794 -0.2728
17040TIP3    H172611   5.130   4.772  12.609  0.6411  1.1005 -1.9641
17040TIP3    H272612   4.980   4.790  12.599  0.3869 -0.7336 -1.6806
17041TIP3   OH272613   6.033   3.970  12.847 -0.5050 -0.0472 -0.4036
17041TIP3    H172614   6.104   4.027  12.816 -0.6854  0.4334  0.0686
17041TIP3    H272615   6.075   3.884  12.856  0.6005  0.6954  1.9833
17042TIP3   OH272616   1.912   2.175  12.009  0.0746  0.0014  0.2187
17042TIP3    H172617   1.860   2.115  11.955  1.5062  0.9784 -2.2990
17042TIP3    H272618   2.000   2.169  11.974  0.2568  3.5479 -0.0712
17043TIP3   OH272619   3.764   1.454  13.382  0.2955  0.1438  0.0162
17043TIP3    H172620   3.730   1.514  13.315 -2.3025  0.5807  1.6450
17043TIP3    H272621   3.758   1.368  13.342 -0.5215  0.4813 -0.6070
17044TIP3   OH272622   4.985   2.361   2.912 -0.2254  0.0985  0.1919
17044TIP3    H172623   4.925   2.352   2.838 -0.1516  0.8415  0.0367
17044TIP3    H272624   4.953   2.439   2.959 -0.2035 -0.2956  0.8733
17045TIP3   OH272625   2.386   2.300   6.181  0.7396 -0.1057  0.1062
17045TIP3    H172626   2.324   2.238   6.220 -0.0078  0.4962 -0.1149
17045TIP3    H272627   2.375   2.380   6.233 -2.0909  1.5475 -2.8771
17046TIP3   OH272628   4.562   0.702  13.620  0.8385 -0.8601  0.3507
17046TIP3    H172629   4.528   0.756  13.692  0.8804 -1.7243  1.0225
17046TIP3    H272630   4.506   0.625  13.619  0.7798 -0.8063 -0.6144
17047TIP3   OH272631   0.260   2.578   0.768 -0.3569  0.0376 -0.2663
17047TIP3    H172632   0.301   2.496   0.796 -0.5086  0.1297  0.2333
17047TIP3    H272633   0.324   2.645   0.790  0.0736 -0.0092 -1.3335
17048TIP3   OH272634   0.228   6.274   1.371 -0.3791  0.2075  0.7176
17048TIP3    H172635   0.292   6.337   1.404  0.7998  1.2798 -3.2526
17048TIP3    H272636   0.257   6.190   1.406  2.4389  0.8909  0.1456
17049TIP3   OH272637   3.947   5.545   2.174 -0.3215  0.0048  0.1048
17049TIP3    H172638   3.881   5.569   2.109 -1.5543 -1.5790  0.7380
17049TIP3    H272639   4.016   5.501   2.123 -0.9394 -0.5858 -0.2289
17050TIP3   OH272640   3.958   1.669   1.334  0.2708  0.0189  0.2158
17050TIP3    H172641   3.874   1.682   1.378  0.9810 -2.0402  2.2590
17050TIP3    H272642   4.007   1.749   1.352 -1.1179  1.1133 -0.7539
17051TIP3   OH272643   1.826   6.020  16.308  0.2169  0.2187 -0.0663
17051TIP3    H172644   1.840   6.055  16.396  0.1933  0.3858 -0.1280
17051TIP3    H272645   1.835   6.095  16.250  1.2789 -0.0788 -0.2976
17052TIP3   OH272646   3.335   4.591   5.878 -0.2863  0.2359 -0.0409
17052TIP3    H172647   3.379   4.553   5.802 -0.9023 -0.7735  0.0996
17052TIP3    H272648   3.384   4.559   5.953 -0.9960 -0.5566  0.0944
17053TIP3   OH272649   5.313   2.729  12.901 -0.5337  0.2873 -0.4113
17053TIP3    H172650   5.365   2.649  12.890 -0.4261  0.0640  1.5194
17053TIP3    H272651   5.227   2.706  12.866 -0.9086 -1.1427  1.3516
17054TIP3   OH272652   2.981   5.549  16.277  0.7276 -0.4505  0.8779
17054TIP3    H172653   2.982   5.456  16.301 -1.4251 -0.9612 -0.8929
17054TIP3    H272654   3.049   5.557  16.210  0.3388 -0.9264  0.4242
17055TIP3   OH272655   4.850   1.985   4.391  0.3237 -0.1964 -0.1356
17055TIP3    H172656   4.857   1.957   4.482 -2.9028  0.8339  0.5190
17055TIP3    H272657   4.902   2.064   4.385 -1.0438  0.8577  1.3848
17056TIP3   OH272658   5.714   5.392   5.537  0.7761  0.1629  0.7796
17056TIP3    H172659   5.748   5.480   5.553  0.1480  0.3880  0.9098
17056TIP3    H272660   5.781   5.333   5.571  1.0994  0.5957  0.8951
17057TIP3   OH272661   5.223   3.052  13.464  0.1983 -0.0675  0.3445
17057TIP3    H172662   5.207   3.109  13.389  1.4575 -0.4669 -0.2405
17057TIP3    H272663   5.143   3.002  13.474  0.4666 -0.8898 -1.5134
17058TIP3   OH272664   4.816   1.070   6.688  0.5983  0.5498 -0.5479
17058TIP3    H172665   4.895   1.027   6.720  1.6810  2.0199 -1.1954
17058TIP3    H272666   4.847   1.135   6.626 -1.3158 -0.6417 -2.8386
17059TIP3   OH272667   0.109   2.861  15.972  0.0786 -0.2360  0.0287
17059TIP3    H172668   0.187   2.917  15.969  0.9815 -1.4466  0.8533
17059TIP3    H272669   0.046   2.906  15.915  1.5190  0.5238 -1.0050
17060TIP3   OH272670   2.456   0.570  14.490  0.5106  0.4318  0.1773
17060TIP3    H172671   2.390   0.636  14.470  1.6533  1.0770 -1.6036
17060TIP3    H272672   2.532   0.620  14.521  0.8972 -0.1539  0.1866
17061TIP3   OH272673   1.229   5.589  15.477  0.3790 -0.5883  0.0386
17061TIP3    H172674   1.242   5.653  15.407  2.1735 -0.2266  0.6668
17061TIP3    H272675   1.265   5.631  15.555 -0.5159 -1.4552  0.9339
17062TIP3   OH272676   2.740   1.116  16.849  0.1963  0.0453 -0.0592
17062TIP3    H172677   2.786   1.050  16.900 -2.5841  0.1626  2.7620
17062TIP3    H272678   2.781   1.199  16.874  0.2849 -0.1158  0.3307
17063TIP3   OH272679   1.389   5.357  15.382 -0.4984 -0.0815 -0.1689
17063TIP3    H172680   1.327   5.285  15.368  1.1620 -2.2270  2.9414
17063TIP3    H272681   1.335   5.430  15.411 -1.7960 -1.3864  0.7534
17064TIP3   OH272682   1.483   5.764  16.026 -0.0137 -0.1725 -0.0359
17064TIP3    H172683   1.450   5.811  16.102  2.9178  1.2103  0.4510
17064TIP3    H272684   1.468   5.824  15.952  0.2690 -0.0605 -0.0037
17065TIP3   OH272685   5.476   4.483   5.329  0.2261  0.1667  0.3530
17065TIP3    H172686   5.489   4.569   5.370  0.1483 -0.0219  0.7716
17065TIP3    H272687   5.436   4.503   5.245  0.9723  0.5966  0.0913
17066TIP3   OH272688   0.217   6.582   2.823  0.1227  0.5965 -0.1594
17066TIP3    H172689   0.295   6.577   2.878 -0.2514  0.4511  0.3640
17066TIP3    H272690   0.183   6.493   2.821 -0.4200  0.7897  0.1927
17067TIP3   OH272691   3.872   4.113  15.801  0.3413  0.1874 -0.0641
17067TIP3    H172692   3.874   4.060  15.721  1.0161  0.9445 -0.5563
17067TIP3    H272693   3.886   4.203  15.771 -0.2533  0.5829  0.8182
17068TIP3   OH272694   3.669   5.928   2.487  0.0645 -0.7708  0.6112
17068TIP3    H172695   3.614   5.955   2.560 -0.6398  0.6490 -0.4220
17068TIP3    H272696   3.721   6.005   2.466 -0.4180 -0.8599 -0.9877
17069TIP3   OH272697   1.572   0.900   4.395 -0.1761  0.2886  0.0075
17069TIP3    H172698   1.533   0.986   4.383  0.4154  0.2821 -2.1408
17069TIP3    H272699   1.664   0.911   4.370 -0.4402 -1.2808 -1.8154
17070TIP3   OH272700   1.045   1.472   3.030  0.0918 -0.5429  0.0599
17070TIP3    H172701   0.997   1.433   3.103  0.0917 -1.4983 -0.4343
17070TIP3    H272702   0.991   1.546   3.003 -0.7267 -1.1518 -0.0000
17071TIP3   OH272703   0.530   0.775  15.790  0.6024 -0.1220  0.3026
17071TIP3    H172704   0.605   0.834  15.785  1.0992 -0.8399 -0.9712
17071TIP3    H272705   0.456   0.832  15.811  1.3383  0.7251  0.6423
17072TIP3   OH272706   0.183   6.315   4.522  0.0179 -0.0084  0.3588
17072TIP3    H172707   0.134   6.351   4.449 -1.8460  1.4143  2.2466
17072TIP3    H272708   0.226   6.391   4.562  0.0633 -0.5762  1.4133
17073TIP3   OH272709   5.042   4.661   3.532  0.6661  0.4563  0.0144
17073TIP3    H172710   4.946   4.661   3.532  0.6522  1.5611 -0.9768
17073TIP3    H272711   5.066   4.580   3.487  0.1811  0.9908 -1.2259
17074TIP3   OH272712   5.750   3.753   0.390  0.1533  0.1625 -0.1329
17074TIP3    H172713   5.682   3.686   0.385 -1.0788  1.4302 -0.8073
17074TIP3    H272714   5.705   3.830   0.426  1.3774  0.8129  0.0202
17075TIP3   OH272715   3.900   1.163  16.240  0.2294 -0.1291  0.1741
17075TIP3    H172716   3.971   1.203  16.291 -0.4576  0.4874  0.6452
17075TIP3    H272717   3.945   1.103  16.180  1.1635  0.3336  0.3991
17076TIP3   OH272718   2.594   6.539  14.523  0.1069  0.2008  0.1200
17076TIP3    H172719   2.660   6.561  14.588 -0.4335 -0.0073  0.7385
17076TIP3    H272720   2.517   6.512  14.573 -0.0723 -0.6914 -0.6002
17077TIP3   OH272721   3.163   5.584   5.854 -0.7917  0.2997  0.8887
17077TIP3    H172722   3.069   5.601   5.849 -1.3515 -2.5758  0.7164
17077TIP3    H272723   3.192   5.582   5.763 -0.5277  1.2969  0.9460
17078TIP3   OH272724   2.025   5.562   0.028 -0.5011  0.3656  0.5564
17078TIP3    H172725   1.963   5.507  -0.020 -1.2158  1.5477  0.0932
17078TIP3    H272726   1.970   5.628   0.072  0.1294 -0.7360  3.0897
17079TIP3   OH272727   0.615   2.835  12.683  0.0088 -0.4987 -0.7458
17079TIP3    H172728   0.551   2.865  12.619  0.1175 -0.3925 -0.8030
17079TIP3    H272729   0.564   2.778  12.742 -0.6560  1.3834  0.5624
17080TIP3   OH272730   4.523   4.066  16.801  0.1523  0.3400  0.1660
17080TIP3    H172731   4.548   4.056  16.892  1.1585 -0.7408 -0.2230
17080TIP3    H272732   4.540   4.159  16.782 -1.9053  1.0561  1.5967
17081TIP3   OH272733   6.369   0.231   4.373 -0.1682  0.0997  0.5769
17081TIP3    H172734   6.377   0.199   4.284  0.3320 -1.6071  1.2188
17081TIP3    H272735   6.402   0.321   4.370 -1.7952  0.6704 -1.2865
17082TIP3   OH272736   0.126   2.756   2.564  0.2026  0.3429 -0.2965
17082TIP3    H172737   0.068   2.795   2.629 -0.7025 -0.9536 -0.3003
17082TIP3    H272738   0.157   2.675   2.604  1.7099  0.8259 -0.4554
17083TIP3   OH272739   4.439   4.662   1.705  0.1718  0.1809  0.0257
17083TIP3    H172740   4.385   4.721   1.651  0.1489 -0.2754 -0.4502
17083TIP3    H272741   4.375   4.608   1.751  0.2168 -2.4251 -2.8105
17084TIP3   OH272742   3.021   4.746  14.928 -0.8200  0.2378 -0.3951
17084TIP3    H172743   2.962   4.814  14.961 -1.6618 -0.9318  0.5096
17084TIP3    H272744   2.969   4.666  14.928  1.9950 -1.8003  4.7908
17085TIP3   OH272745   4.306   4.430  15.387 -0.0258  0.5506 -0.1543
17085TIP3    H172746   4.402   4.424  15.386 -0.0242  0.3179  0.6500
17085TIP3    H272747   4.279   4.365  15.452 -0.7593  0.2823 -0.7147
17086TIP3   OH272748   0.728   6.326   4.111 -0.0455 -0.1953  0.8648
17086TIP3    H172749   0.781   6.389   4.160  0.7429 -0.0642 -0.1302
17086TIP3    H272750   0.638   6.345   4.136  0.2701  0.6167  1.3974
17087TIP3   OH272751   3.640   6.468   5.868 -0.4304 -0.5411  0.6627
17087TIP3    H172752   3.638   6.466   5.772 -1.2798  0.6076  0.6444
17087TIP3    H272753   3.556   6.429   5.894 -1.3135  1.4356  0.8781
17088TIP3   OH272754   6.112   0.543  13.605 -0.4208 -0.0301 -0.2660
17088TIP3    H172755   6.140   0.626  13.567 -0.3358  2.2952  4.4372
17088TIP3    H272756   6.190   0.510  13.649 -1.3476 -0.8175  0.8018
17089TIP3   OH272757   6.418   1.669   3.597 -0.4852  0.1501 -0.0289
17089TIP3    H172758   6.324   1.650   3.602 -0.7784  1.8332  1.2743
17089TIP3    H272759   6.451   1.651   3.685  0.6078 -1.3290 -0.7233
17090TIP3   OH272760   5.193   0.499  13.563 -0.0272  0.1506 -0.6179
17090TIP3    H172761   5.162   0.544  13.641 -1.0765  1.1168 -1.5538
17090TIP3    H272762   5.116   0.450  13.532  0.8351 -1.5311 -0.1457
17091TIP3   OH272763   3.082   6.633   0.039 -0.5864 -0.7653  0.3879
17091TIP3    H172764   3.095   6.606  -0.052  0.4431  0.1931  0.2478
17091TIP3    H272765   2.987   6.629   0.051 -0.6186 -2.3592 -0.2667
17092TIP3   OH272766   2.100   6.668  12.245  0.7402 -0.0843  0.2521
17092TIP3    H172767   2.103   6.732  12.173 -0.9748 -0.0228  0.2124
17092TIP3    H272768   2.132   6.716  12.321 -0.4433  0.8154  0.1970
17093TIP3   OH272769   5.807   1.960  14.047 -0.1234 -0.2630 -0.6364
17093TIP3    H172770   5.712   1.973  14.053 -0.2084 -0.9586 -0.4497
17093TIP3    H272771   5.819   1.909  13.967  0.0445 -0.6589 -0.3588
17094TIP3   OH272772   5.072   1.545  16.102 -0.1746  0.0741 -0.1943
17094TIP3    H172773   5.132   1.620  16.102 -1.1409  0.8540  0.1525
17094TIP3    H272774   5.066   1.519  16.194 -3.1255  2.2566  0.3155
17095TIP3   OH272775   1.542   3.531   0.221  0.7031 -0.1116  0.0073
17095TIP3    H172776   1.523   3.557   0.131  1.2510  0.3416  0.0210
17095TIP3    H272777   1.592   3.451   0.213 -0.6236 -0.9507 -0.0469
17096TIP3   OH272778   1.680   4.143  15.774 -0.1090  0.6496 -0.0521
17096TIP3    H172779   1.591   4.180  15.773  0.1408  1.2395 -0.4839
17096TIP3    H272780   1.732   4.208  15.820 -0.1091 -0.1854  1.1215
17097TIP3   OH272781   3.500   6.293  14.182 -0.1065  0.2221 -0.2679
17097TIP3    H172782   3.536   6.243  14.109  2.7517  1.2294  0.3954
17097TIP3    H272783   3.412   6.319  14.153  0.5039 -0.4634 -2.8115
17098TIP3   OH272784   2.397   2.124  15.785  0.4821 -0.0485 -0.1185
17098TIP3    H172785   2.420   2.085  15.870 -0.8479 -0.4333  0.0855
17098TIP3    H272786   2.478   2.162  15.753  0.8876  0.5477  1.5751
17099TIP3   OH272787   6.242   3.264   4.046  0.4182 -0.3237 -1.0657
17099TIP3    H172788   6.238   3.170   4.064 -1.0829 -0.0923 -0.0188
17099TIP3    H272789   6.150   3.292   4.045  0.8853  1.3362 -0.1374
17100TIP3   OH272790   3.095   5.863  13.935 -0.0564  0.1312 -0.4046
17100TIP3    H172791   3.044   5.785  13.957 -0.5946  0.7537  0.6020
17100TIP3    H272792   3.186   5.837  13.948 -0.3413  0.5002  2.8208
17101TIP3   OH272793   0.612   0.265  11.448 -0.1051  0.0588  0.0845
17101TIP3    H172794   0.616   0.186  11.502 -0.8516  0.2713  0.4705
17101TIP3    H272795   0.703   0.284  11.425  0.0845 -0.8529  0.0737
17102TIP3   OH272796   1.595   1.746  14.618 -0.1065 -0.2170 -0.2969
17102TIP3    H172797   1.667   1.693  14.582 -2.0759 -2.4048 -1.1130
17102TIP3    H272798   1.626   1.836  14.610  2.4684 -1.1088 -0.8213
17103TIP3   OH272799   5.948   5.041   2.425 -0.5059 -0.3875 -0.0842
17103TIP3    H172800   6.037   5.028   2.394 -0.8748 -2.8493 -0.2069
17103TIP3    H272801   5.908   4.954   2.420 -3.6708  1.1069 -2.4749
17104TIP3   OH272802   2.036   5.908  11.792 -0.0388  0.5118  0.0458
17104TIP3    H172803   2.006   5.844  11.727 -0.6698  0.3044  0.5385
17104TIP3    H272804   1.961   5.967  11.804 -0.0758  0.3004  0.8970
17105TIP3   OH272805   4.670   6.332  15.463  0.0835  0.0814  0.0627
17105TIP3    H172806   4.656   6.240  15.444 -0.4511  0.3095 -0.6703
17105TIP3    H272807   4.752   6.354  15.419  0.3156 -0.0942  0.4093
17106TIP3   OH272808   0.200   0.457   4.277 -0.5827 -0.5579  0.6426
17106TIP3    H172809   0.229   0.422   4.193 -2.1412  0.2733 -0.2736
17106TIP3    H272810   0.129   0.398   4.304 -0.7192 -0.2696  0.9160
17107TIP3   OH272811   5.582   4.405   2.406  0.2253 -0.0380  0.3731
17107TIP3    H172812   5.499   4.369   2.435  0.7604 -1.3691  0.2956
17107TIP3    H272813   5.627   4.332   2.363  0.1201  1.4590 -2.4287
17108TIP3   OH272814   0.594   0.515   0.339 -0.3558  0.1949  0.6459
17108TIP3    H172815   0.549   0.488   0.418 -0.1238  0.2563  0.8010
17108TIP3    H272816   0.607   0.609   0.349 -1.4649  0.4334 -0.0466
17109TIP3   OH272817   0.667   4.294   1.529 -0.2678  0.5248 -0.0120
17109TIP3    H172818   0.759   4.273   1.513  0.2496 -0.0405  3.3734
17109TIP3    H272819   0.619   4.216   1.499  0.4139  0.4252 -0.8737
17110TIP3   OH272820   2.601   5.593  12.622 -0.2551  0.0340 -0.5286
17110TIP3    H172821   2.661   5.520  12.607 -2.1510 -1.3167 -1.7932
17110TIP3    H272822   2.601   5.641  12.539  0.8190  1.3343  0.2296
17111TIP3   OH272823   6.745   4.235  14.453  0.1358 -0.2293 -0.1080
17111TIP3    H172824   6.679   4.304  14.457 -1.2662 -1.5909  1.0806
17111TIP3    H272825   6.696   4.154  14.469  1.9118 -1.3945 -0.3822
17112TIP3   OH272826   2.533   3.355   4.564  0.0858 -0.4082  0.0034
17112TIP3    H172827   2.522   3.358   4.659  0.6447 -1.7378  0.1173
17112TIP3    H272828   2.445   3.369   4.530 -0.0749  0.3286  0.7135
17113TIP3   OH272829   6.375   1.164   5.283  0.0341 -0.0787 -0.0563
17113TIP3    H172830   6.425   1.171   5.202  0.4126 -0.5729  0.1385
17113TIP3    H272831   6.396   1.245   5.331  0.9104 -0.4400  0.1767
17114TIP3   OH272832   5.333   6.152  15.724  0.0002  0.1348  0.2381
17114TIP3    H172833   5.243   6.168  15.695  0.8262  2.3327 -1.2934
17114TIP3    H272834   5.378   6.119  15.646  0.5927 -0.7791  0.9448
17115TIP3   OH272835   6.227   4.122   3.575  0.7969  0.1440 -0.2295
17115TIP3    H172836   6.271   4.074   3.645 -0.5583 -0.5755  0.1620
17115TIP3    H272837   6.179   4.191   3.621  1.2555  0.7227 -0.6186
17116TIP3   OH272838   1.508   5.674  13.387  0.7071  0.7720  0.1085
17116TIP3    H172839   1.430   5.722  13.415  0.2154  0.2862 -0.3957
17116TIP3    H272840   1.582   5.724  13.421  0.1844  1.5634  0.0822
17117TIP3   OH272841   5.490   0.060  13.540 -0.2296  0.0343  0.5147
17117TIP3    H172842   5.520   0.150  13.552  0.0759  0.3700 -2.2304
17117TIP3    H272843   5.549   0.025  13.473 -0.3425 -2.2271  1.5574
17118TIP3   OH272844   5.496   0.683  11.615  0.3429  0.2630  0.0955
17118TIP3    H172845   5.576   0.632  11.630  1.1416  1.8325  1.3247
17118TIP3    H272846   5.524   0.774  11.623 -1.4633  0.8420 -0.0611
17119TIP3   OH272847   4.738   2.466  14.776  0.0199 -0.2142 -0.4826
17119TIP3    H172848   4.815   2.464  14.834 -1.3957 -1.5143  1.4277
17119TIP3    H272849   4.736   2.555  14.742  1.3786  0.3489  0.8222
17120TIP3   OH272850   5.676   3.594   0.861 -0.1902  0.1516  0.2714
17120TIP3    H172851   5.669   3.680   0.902 -0.4022 -0.1897  0.9644
17120TIP3    H272852   5.767   3.588   0.831  0.2569  0.0013  1.6139
17121TIP3   OH272853   2.968   2.927  13.579  0.4643 -0.5745 -0.1315
17121TIP3    H172854   3.003   2.907  13.666 -0.3103 -0.4927  0.2006
17121TIP3    H272855   3.026   2.995  13.545  3.2364 -3.4078 -1.3226
17122TIP3   OH272856   1.888   5.347   2.053  0.1230  1.0899 -0.4849
17122TIP3    H172857   1.854   5.328   2.140  0.5445 -3.2304 -1.1509
17122TIP3    H272858   1.973   5.388   2.070 -0.8059  2.4361  1.1058
17123TIP3   OH272859   6.363   5.140  13.651  0.1634 -0.6738 -0.5277
17123TIP3    H172860   6.271   5.130  13.623  0.2668 -1.1154 -0.7062
17123TIP3    H272861   6.357   5.166  13.743 -0.1944  0.9608 -0.9843
17124TIP3   OH272862   3.027   6.697  14.866  0.1895 -0.2758 -0.3258
17124TIP3    H172863   3.015   6.777  14.917 -0.2890  0.4878 -1.6323
17124TIP3    H272864   3.088   6.644  14.919 -1.2922 -0.0570  1.6603
17125TIP3   OH272865   0.707   5.108  17.029 -0.2193  0.2532  0.3527
17125TIP3    H172866   0.769   5.050  17.072 -1.1848 -0.7318  0.4432
17125TIP3    H272867   0.672   5.056  16.956  0.2985  1.3803 -0.7172
17126TIP3   OH272868   4.946   5.682   5.389 -0.1294  0.3066  0.1926
17126TIP3    H172869   4.896   5.602   5.404 -1.1021  0.9098  0.1641
17126TIP3    H272870   4.880   5.751   5.381  0.6863  1.0605 -0.1220
17127TIP3   OH272871   0.181   3.726   0.843  0.0755  0.2368 -0.4894
17127TIP3    H172872   0.119   3.767   0.782 -1.6338 -0.6204  0.6439
17127TIP3    H272873   0.129   3.707   0.921  1.5005 -1.5248  0.0601
17128TIP3   OH272874   3.978   4.793   4.000  0.3950  0.1444  0.1281
17128TIP3    H172875   3.896   4.745   3.992  1.0145 -0.8778 -0.2310
17128TIP3    H272876   4.032   4.760   3.928  1.4402  0.1520  0.8993
17129TIP3   OH272877   3.149   2.990   0.985  0.3744 -0.0353 -0.2486
17129TIP3    H172878   3.194   3.037   0.915 -0.2586 -1.6714 -1.7996
17129TIP3    H272879   3.219   2.939   1.027  0.4960 -0.2523 -0.7062
17130TIP3   OH272880   0.709   5.875  14.201 -0.1467  0.8571  0.5339
17130TIP3    H172881   0.733   5.949  14.257  1.9688  0.4303  0.2474
17130TIP3    H272882   0.624   5.899  14.164  1.1022  3.7617 -0.6107
17131TIP3   OH272883   5.288   1.835   0.545 -0.5085 -0.4755 -0.2041
17131TIP3    H172884   5.365   1.872   0.504 -1.5607 -0.0182 -1.7980
17131TIP3    H272885   5.292   1.741   0.525 -0.6558 -0.3605 -0.7898
17132TIP3   OH272886   1.415   4.374  12.963 -0.4770  0.0374  0.1888
17132TIP3    H172887   1.447   4.432  13.033  0.7380 -0.4778  0.0635
17132TIP3    H272888   1.413   4.430  12.885 -1.1858  0.4300  0.4771
17133TIP3   OH272889   5.081   5.254   0.831  0.0783  0.2611  0.0560
17133TIP3    H172890   5.006   5.230   0.885 -1.0273 -0.1515 -1.6469
17133TIP3    H272891   5.141   5.298   0.892 -1.3230  0.1768  1.5231
17134TIP3   OH272892   0.161   3.370  14.001  0.1593  0.1966  0.3954
17134TIP3    H172893   0.115   3.444  13.962 -1.0967  0.1199  1.6921
17134TIP3    H272894   0.152   3.383  14.096  0.2695 -1.3754  0.6409
17135TIP3   OH272895   2.604   0.457  14.858 -0.4123  0.2421  0.2504
17135TIP3    H172896   2.650   0.457  14.942  0.9610 -1.9303 -0.4563
17135TIP3    H272897   2.674   0.464  14.792 -1.2867 -0.5810 -0.7788
17136TIP3   OH272898   4.199   3.385  15.500  0.5174 -0.2010  0.3382
17136TIP3    H172899   4.203   3.480  15.486 -3.7580  0.1528  1.0380
17136TIP3    H272900   4.183   3.349  15.413  1.9911 -0.3107  0.0961
17137TIP3   OH272901   6.052   1.772   3.257 -0.2126  0.5105  0.1531
17137TIP3    H172902   6.057   1.859   3.298 -0.8898  0.9053 -0.5973
17137TIP3    H272903   6.087   1.713   3.324  1.7616  1.5413  0.0669
17138TIP3   OH272904   2.546   3.120   5.115  0.0696  0.4127 -0.5812
17138TIP3    H172905   2.493   3.164   5.181 -0.9728  1.0014 -1.7918
17138TIP3    H272906   2.541   3.176   5.038  0.6661 -0.6282 -1.3995
17139TIP3   OH272907   0.814   4.654   1.733  0.3731  0.4352 -0.4753
17139TIP3    H172908   0.794   4.637   1.824  0.7221  1.9408 -0.1027
17139TIP3    H272909   0.833   4.568   1.696  0.7440 -0.1319  0.9967
17140TIP3   OH272910   3.545   2.752  15.096  0.1889 -0.9551  0.1222
17140TIP3    H172911   3.472   2.692  15.106  1.2250 -2.1344  0.6807
17140TIP3    H272912   3.508   2.838  15.118 -1.9143 -0.9776 -3.0275
17141TIP3   OH272913   3.006   3.137   1.379 -1.0193  0.1853 -0.0159
17141TIP3    H172914   2.994   3.130   1.474 -3.3929  0.4899 -0.2450
17141TIP3    H272915   3.067   3.067   1.357 -0.9615 -0.3090  1.6532
17142TIP3   OH272916   5.216   2.707   6.082  0.0162 -0.5741  0.3239
17142TIP3    H172917   5.170   2.626   6.103  1.6909 -1.3265  1.1000
17142TIP3    H272918   5.227   2.704   5.987  0.6441 -1.5574  0.4237
17143TIP3   OH272919   6.470   4.030   4.895  0.5428  0.0795 -0.1982
17143TIP3    H172920   6.431   4.070   4.973 -0.6733  0.7331 -1.1242
17143TIP3    H272921   6.504   3.946   4.926 -0.0623  0.2613  0.9992
17144TIP3   OH272922   4.804   4.407  16.702 -0.0905  0.5225 -0.1645
17144TIP3    H172923   4.823   4.415  16.795  0.9624 -2.1482 -0.1301
17144TIP3    H272924   4.844   4.485  16.663  0.4720  1.0541  1.4355
17145TIP3   OH272925   1.680   6.504  11.442  0.0747  0.6464  0.1524
17145TIP3    H172926   1.645   6.482  11.529 -0.8185  1.5604  0.0384
17145TIP3    H272927   1.760   6.452  11.434 -1.5631 -1.9443  0.2044
17146TIP3   OH272928   4.346   3.743  16.612 -0.0362 -0.3044 -0.0432
17146TIP3    H172929   4.381   3.691  16.540  0.2005 -0.2543  0.0322
17146TIP3    H272930   4.424   3.776  16.657 -0.1869  0.2736 -0.2038
17147TIP3   OH272931   5.466   5.339   0.153 -0.5020 -0.5596 -0.3604
17147TIP3    H172932   5.432   5.282   0.222  0.2181 -0.6071 -0.0409
17147TIP3    H272933   5.509   5.410   0.199 -0.5020 -0.2964 -0.7641
17148TIP3   OH272934   3.843   0.288  13.103  0.1302 -0.0576  0.1361
17148TIP3    H172935   3.890   0.206  13.116  0.2323  0.2126  1.6004
17148TIP3    H272936   3.910   0.356  13.113  0.1848  0.1950 -1.7780
17149TIP3   OH272937   0.852   6.265  11.359  0.5268  0.5086  0.5963
17149TIP3    H172938   0.840   6.335  11.424 -0.4414  2.5391 -1.7091
17149TIP3    H272939   0.773   6.267  11.306  0.8343 -1.8535  0.0017
17150TIP3   OH272940   2.323   3.032   2.024 -0.0138  0.7865 -0.5812
17150TIP3    H172941   2.390   3.058   2.087  0.6934 -0.8178 -0.6418
17150TIP3    H272942   2.351   2.945   1.994 -1.3001  0.7633 -1.7605
17151TIP3   OH272943   3.554   2.507  13.628 -0.7028  0.7300  0.0652
17151TIP3    H172944   3.546   2.592  13.672  0.5409  0.2259  1.3224
17151TIP3    H272945   3.582   2.447  13.698 -1.9950 -0.8157 -0.7013
17152TIP3   OH272946   2.424   3.577  13.486  0.1397  0.1047 -0.0699
17152TIP3    H172947   2.353   3.578  13.550  0.7748  0.7996  0.6173
17152TIP3    H272948   2.467   3.492  13.499 -1.2965 -0.8501 -1.3124
17153TIP3   OH272949   4.968   5.358   4.525  0.3800  0.0230  0.0529
17153TIP3    H172950   4.887   5.361   4.473  0.5520 -0.9826 -0.2707
17153TIP3    H272951   4.979   5.266   4.547  0.9398  0.2873  0.8966
17154TIP3   OH272952   4.709   6.293   1.504 -0.1094 -0.0265  0.3603
17154TIP3    H172953   4.653   6.275   1.429 -1.1241 -1.1399  1.3711
17154TIP3    H272954   4.783   6.341   1.468 -0.2324 -1.1836 -1.4765
17155TIP3   OH272955   1.210   1.929  13.182 -0.6219 -0.1264 -0.2961
17155TIP3    H172956   1.215   1.863  13.252 -2.1245 -1.0312 -1.0134
17155TIP3    H272957   1.120   1.923  13.150 -1.4620  3.8134  1.0814
17156TIP3   OH272958   5.520   4.048   1.582  0.3020  0.0120  0.0323
17156TIP3    H172959   5.586   4.100   1.629 -3.0757  2.4490  2.3388
17156TIP3    H272960   5.484   4.109   1.517 -3.1787  0.4142  2.2429
17157TIP3   OH272961   5.230   6.006   6.221  0.0821  0.1195  0.0077
17157TIP3    H172962   5.279   6.072   6.171  1.4787  0.4064  1.7090
17157TIP3    H272963   5.222   5.932   6.161 -0.3795  1.3330 -1.4769
17158TIP3   OH272964   5.813   1.867  13.768 -0.2315  0.2361 -0.0934
17158TIP3    H172965   5.884   1.803  13.765 -1.1086 -0.7541 -0.0521
17158TIP3    H272966   5.784   1.876  13.678 -1.1818 -0.6732  0.0990
17159TIP3   OH272967   0.626   4.606   3.425 -0.9725 -0.3617  0.0211
17159TIP3    H172968   0.646   4.616   3.332  1.2336 -2.8538  0.1869
17159TIP3    H272969   0.534   4.578   3.427 -0.7319 -1.2694 -1.4470
17160TIP3   OH272970   4.074   0.275   4.861 -0.2517  0.4962  0.1605
17160TIP3    H172971   4.052   0.276   4.768  1.2615 -0.7583 -0.2349
17160TIP3    H272972   3.996   0.241   4.904 -0.5409 -0.0321 -0.7740
17161TIP3   OH272973   6.759   5.509  14.736  0.5861 -0.4051 -0.2193
17161TIP3    H172974   6.692   5.441  14.724  0.4995 -0.4251  0.3711
17161TIP3    H272975   6.713   5.579  14.783  1.3631 -1.0153  1.4782
17162TIP3   OH272976   3.749   3.753   4.452 -0.5033 -0.1543  0.1407
17162TIP3    H172977   3.729   3.755   4.359  1.4336 -1.5450 -0.3475
17162TIP3    H272978   3.784   3.840   4.472  0.2946 -0.2711 -0.7304
17163TIP3   OH272979   5.587   4.312   1.769  0.2654  0.1483 -0.0199
17163TIP3    H172980   5.503   4.277   1.799 -0.1532  1.0569 -0.0980
17163TIP3    H272981   5.642   4.314   1.847 -0.6859  2.1194  0.6152
17164TIP3   OH272982   5.012   4.457  14.413  0.2263 -0.0506  0.1288
17164TIP3    H172983   4.960   4.538  14.415 -0.1336 -0.3020  1.7652
17164TIP3    H272984   4.983   4.408  14.490  0.3576 -1.7995 -0.9036
17165TIP3   OH272985   2.836   6.521   0.363  0.0199 -0.0459 -0.1555
17165TIP3    H172986   2.764   6.459   0.353  1.1976 -1.4550 -0.0664
17165TIP3    H272987   2.860   6.545   0.273  0.0170 -0.2564 -0.2117
17166TIP3   OH272988   0.575   1.043   1.690 -0.0743 -0.2902  0.1220
17166TIP3    H172989   0.629   0.970   1.720 -2.0456 -0.7225  2.8300
17166TIP3    H272990   0.550   1.019   1.600 -0.5606 -2.9092  0.9086
17167TIP3   OH272991   2.889   6.403   6.241  0.2284 -0.2981 -0.4255
17167TIP3    H172992   2.879   6.311   6.215 -0.8417 -0.3453  0.1418
17167TIP3    H272993   2.808   6.424   6.287  0.1249  1.1714 -1.2375
17168TIP3   OH272994   0.239   6.790  14.411 -0.6048  0.6960  0.2507
17168TIP3    H172995   0.260   6.876  14.374  3.3587 -0.4670 -0.4587
17168TIP3    H272996   0.245   6.803  14.506  0.9751  1.0049  0.1262
17169TIP3   OH272997   3.799   2.451  14.740  0.3502  0.3101  0.0201
17169TIP3    H172998   3.885   2.486  14.717  0.0766  0.2018 -1.2002
17169TIP3    H272999   3.737   2.513  14.702 -0.1557 -1.6600 -2.4910
17170TIP3   OH273000   3.047   2.447  17.124 -0.0503  0.4111  0.3321
17170TIP3    H173001   3.093   2.514  17.176  1.9815  1.4043 -2.6313
17170TIP3    H273002   3.117   2.399  17.079 -1.7929  1.3303 -3.5247
17171TIP3   OH273003   5.001   4.753   6.546  0.4898  0.2602  0.3375
17171TIP3    H173004   5.023   4.664   6.518 -0.5936 -0.0661  0.5069
17171TIP3    H273005   5.080   4.804   6.529  0.7160 -0.4821 -0.8916
17172TIP3   OH273006   6.148   5.413  16.565  0.6637  0.0978  0.2641
17172TIP3    H173007   6.072   5.383  16.614  0.2399 -0.4203 -0.6965
17172TIP3    H273008   6.217   5.349  16.585  0.6337  0.1602  0.5600
17173TIP3   OH273009   3.022   1.647   4.159  0.3963 -0.1960 -0.1958
17173TIP3    H173010   3.105   1.653   4.206 -0.0493  0.5247  0.5093
17173TIP3    H273011   3.042   1.682   4.072  0.7635  0.2684  0.0722
17174TIP3   OH273012   4.859   1.103   1.063  0.2681  0.7573  0.0994
17174TIP3    H173013   4.878   1.190   1.100  1.6970  0.1366  0.8695
17174TIP3    H273014   4.909   1.101   0.981 -0.1249  0.8256 -0.1433
17175TIP3   OH273015   5.497   2.824  11.363  0.0458 -0.1550  0.2435
17175TIP3    H173016   5.506   2.913  11.397  0.4580  0.0691 -0.4221
17175TIP3    H273017   5.517   2.833  11.270 -2.1160 -0.5695 -0.2745
17176TIP3   OH273018   6.814   3.062   1.413 -0.1824 -0.0286 -0.2526
17176TIP3    H173019   6.898   3.070   1.367  0.2390  2.7118  0.8956
17176TIP3    H273020   6.838   3.066   1.506 -1.5479  0.4760  0.0840
17177TIP3   OH273021   0.755   5.340  10.322 -0.0146  0.0312 -0.1407
17177TIP3    H173022   0.795   5.416  10.365  0.0905  1.8381 -3.2642
17177TIP3    H273023   0.828   5.280  10.308  0.7764  1.3320 -1.7006
17178TIP3   OH273024   3.072   0.726   6.059 -0.5027 -0.0041  0.3945
17178TIP3    H173025   3.148   0.782   6.071 -0.2964  0.1657 -1.5829
17178TIP3    H273026   3.108   0.639   6.040 -0.8097  0.0181 -0.2915
17179TIP3   OH273027   0.120   5.513  15.002  1.5192  0.0867  0.3129
17179TIP3    H173028   0.067   5.437  14.976  0.4553  0.3658  1.5841
17179TIP3    H273029   0.156   5.547  14.920 -3.1162  1.9706 -1.1405
17180TIP3   OH273030   1.380   0.616  12.974  0.2459  0.2734 -0.0416
17180TIP3    H173031   1.377   0.698  12.924 -0.1003  0.7352  0.7272
17180TIP3    H273032   1.353   0.549  12.911 -0.1291  0.8369 -0.4925
17181TIP3   OH273033   2.772   5.094   0.743 -0.0393  0.5915 -0.2588
17181TIP3    H173034   2.831   5.135   0.807  1.8591 -1.2570 -0.7626
17181TIP3    H273035   2.749   5.010   0.783  0.7861 -0.3708 -1.7810
17182TIP3   OH273036   6.305   6.680   1.092 -0.3391  0.0136 -0.7663
17182TIP3    H173037   6.339   6.636   1.014  0.2725 -0.5471 -0.1917
17182TIP3    H273038   6.221   6.638   1.109  1.8216 -3.4873  1.8601
17183TIP3   OH273039   4.965   1.081  11.789 -0.3935  0.0457 -0.2374
17183TIP3    H173040   5.007   1.073  11.874 -0.0609  0.5611 -0.3552
17183TIP3    H273041   4.998   1.007  11.739  0.4612  0.5138 -0.3680
17184TIP3   OH273042   3.923   1.171   5.004 -0.4979  0.2687 -0.0134
17184TIP3    H173043   3.896   1.228   4.932 -1.7416 -1.0436 -0.5994
17184TIP3    H273044   3.941   1.231   5.077  0.0965  1.5513 -1.1940
17185TIP3   OH273045   2.487   5.279  10.642  0.0684  0.4384  0.1183
17185TIP3    H173046   2.478   5.338  10.567  1.3920  0.5270  0.0097
17185TIP3    H273047   2.544   5.209  10.610  1.1263  0.7887  1.2060
17186TIP3   OH273048   2.353   1.241  11.154 -0.5265 -0.0050  0.6352
17186TIP3    H173049   2.361   1.226  11.060 -0.7326  0.3850  0.5539
17186TIP3    H273050   2.432   1.289  11.178 -0.5319  0.0029  0.6376
17187TIP3   OH273051   1.273   0.443  14.536  0.4887  0.5357 -0.4897
17187TIP3    H173052   1.316   0.383  14.475 -1.2161  0.2236 -1.4206
17187TIP3    H273053   1.251   0.520  14.484 -1.2556  0.1446 -0.3689
17188TIP3   OH273054   3.337   6.245  10.978 -0.2291 -0.7283  0.1127
17188TIP3    H173055   3.413   6.186  10.984  0.4594  0.1803  0.5650
17188TIP3    H273056   3.351   6.294  10.897 -0.8103 -1.2056 -0.2748
17189TIP3   OH273057   4.596   1.262   6.639 -0.2847 -0.4482 -0.2388
17189TIP3    H173058   4.680   1.216   6.644  0.2308  0.5909  1.0239
17189TIP3    H273059   4.618   1.355   6.651 -1.5639 -0.1180 -0.3211
17190TIP3   OH273060   0.266   5.386   2.692  0.5237  0.1287 -0.0128
17190TIP3    H173061   0.332   5.411   2.756  0.4556  0.9583 -0.2481
17190TIP3    H273062   0.183   5.394   2.739  0.4692  0.7965 -0.2088
17191TIP3   OH273063   4.681   1.976   3.940 -0.2221  0.2440  0.3733
17191TIP3    H173064   4.633   1.895   3.926  0.4180 -0.0948  0.0867
17191TIP3    H273065   4.649   2.035   3.872 -0.7124  0.2438  0.6043
17192TIP3   OH273066   4.784   3.239   1.703 -0.1034 -0.4636  0.2780
17192TIP3    H173067   4.818   3.309   1.647 -2.2239 -0.6237 -1.2643
17192TIP3    H273068   4.696   3.268   1.727 -1.5335 -3.1895 -1.4738
17193TIP3   OH273069   2.972   2.955   2.232  0.5371 -0.2621 -0.3251
17193TIP3    H173070   2.999   2.977   2.143  1.0907 -2.1054 -0.6273
17193TIP3    H273071   3.042   2.990   2.287  0.4564  0.4202 -0.6501
17194TIP3   OH273072   0.131   5.744  12.135 -0.2743 -0.7703 -0.7925
17194TIP3    H173073   0.044   5.781  12.117 -0.3144  0.0077  0.8922
17194TIP3    H273074   0.118   5.694  12.216  0.8575 -0.6314 -0.5275
17195TIP3   OH273075   2.744   2.670   4.067  0.2543  0.5222  0.1140
17195TIP3    H173076   2.787   2.594   4.029 -0.7621  0.2104 -0.4471
17195TIP3    H273077   2.783   2.745   4.022  0.7126  0.2822  0.1144
17196TIP3   OH273078   4.085   1.693   3.325  0.6765 -0.5673 -0.2877
17196TIP3    H173079   4.134   1.760   3.278  0.5493 -0.4626 -0.2713
17196TIP3    H273080   4.124   1.689   3.412  0.5121 -0.3293 -0.2036
17197TIP3   OH273081   2.212   5.043   3.660 -0.0776  0.2224 -0.5948
17197TIP3    H173082   2.253   5.104   3.598 -0.4668  0.4507 -0.6288
17197TIP3    H273083   2.199   4.963   3.609 -0.1303  0.3129 -0.7227
17198TIP3   OH273084   5.668   0.041   0.022  0.1137  0.2312  0.2978
17198TIP3    H173085   5.742   0.082  -0.022  1.5755 -1.7517  0.7991
17198TIP3    H273086   5.595   0.050  -0.039  1.2336  0.6212 -1.0010
17199TIP3   OH273087   1.114   3.765  15.255 -0.4825  0.1527 -0.1505
17199TIP3    H173088   1.153   3.799  15.175  0.9907  1.0893  0.9454
17199TIP3    H273089   1.167   3.688  15.277 -0.7343  0.0402  0.0648
17200TIP3   OH273090   1.738   4.170   0.896  0.9766  0.6208 -0.4202
17200TIP3    H173091   1.693   4.253   0.880  0.3100  0.9479  2.8980
17200TIP3    H273092   1.825   4.196   0.926  0.9935  0.1186 -0.0326
17201TIP3   OH273093   0.271   5.401   1.985  0.9011  0.1330 -0.2705
17201TIP3    H173094   0.230   5.362   2.062  0.0846 -0.0196 -0.7785
17201TIP3    H273095   0.359   5.426   2.015  0.9693 -0.8837  0.4144
17202TIP3   OH273096   3.098   0.507  13.958  0.4248  0.2924  0.6047
17202TIP3    H173097   3.084   0.480  14.049  2.0344 -1.1765  0.4426
17202TIP3    H273098   3.010   0.525  13.925 -0.3525 -0.9404  1.9187
17203TIP3   OH273099   3.422   5.294  11.100 -0.2719 -0.3222 -0.4893
17203TIP3    H173100   3.413   5.209  11.056 -0.4478  0.0017 -1.0772
17203TIP3    H273101   3.513   5.296  11.129 -0.3677 -0.8762 -0.1292
17204TIP3   OH273102   5.660   0.077  16.947 -0.5031  0.4290 -0.4161
17204TIP3    H173103   5.754   0.093  16.939 -0.1213 -0.6181  1.7763
17204TIP3    H273104   5.646  -0.004  16.898 -0.1338  0.1813 -0.1153
17205TIP3   OH273105   4.554   3.415   2.790  0.3603 -0.4347  0.9488
17205TIP3    H173106   4.586   3.328   2.817 -0.8003 -0.7224  1.4074
17205TIP3    H273107   4.501   3.397   2.713  0.5514 -0.0641  0.7332
17206TIP3   OH273108   1.123   2.689  15.578  0.0030 -0.0529  0.0476
17206TIP3    H173109   1.149   2.778  15.604  1.3373 -0.4288  0.0020
17206TIP3    H273110   1.153   2.633  15.650  0.3984 -0.6459 -0.5807
17207TIP3   OH273111   0.098   3.032   4.094 -0.0847 -0.4437  0.3645
17207TIP3    H173112   0.129   3.007   4.181  0.2991  1.5303  0.8212
17207TIP3    H273113   0.151   2.981   4.034  3.4481  2.1208  1.1554
17208TIP3   OH273114   5.516   5.026   4.877  0.3825  0.0271  0.2626
17208TIP3    H173115   5.608   5.045   4.859 -0.2114  1.3225 -1.5328
17208TIP3    H273116   5.502   5.058   4.966  1.3706  0.9041  0.1094
17209TIP3   OH273117   4.677   1.145  15.793  0.4583 -0.0593 -0.0222
17209TIP3    H173118   4.752   1.088  15.781  1.5951  1.2603  0.6063
17209TIP3    H273119   4.715   1.232  15.807 -1.1321  0.4676  1.2594
17210TIP3   OH273120   1.807   2.837  11.946  0.4176  0.5805  0.3105
17210TIP3    H173121   1.761   2.913  11.983  1.0813  1.1273  0.0414
17210TIP3    H273122   1.768   2.825  11.859 -0.2270  0.1242  0.6612
17211TIP3   OH273123   5.486   3.291   4.825  0.3515 -0.5006  1.1530
17211TIP3    H173124   5.404   3.339   4.839  0.9622  0.6643  0.8110
17211TIP3    H273125   5.479   3.256   4.736  0.6095  0.4037  0.7642
17212TIP3   OH273126   4.356   6.326   3.292  0.0672  0.0366  0.2054
17212TIP3    H173127   4.385   6.249   3.244 -0.0758 -0.9639  1.7075
17212TIP3    H273128   4.266   6.307   3.318 -0.0177  0.7600  0.4666
17213TIP3   OH273129   6.702   0.630  12.993  0.0291  0.5434  0.1632
17213TIP3    H173130   6.654   0.549  12.975 -1.7444  1.3423  1.2076
17213TIP3    H273131   6.711   0.632  13.088  1.1730  0.9469  0.0476
17214TIP3   OH273132   5.949   4.454  14.218 -0.7568 -0.5155  0.2517
17214TIP3    H173133   5.911   4.398  14.285 -1.5951 -0.8457 -0.5010
17214TIP3    H273134   6.003   4.396  14.165 -0.8630 -0.4233  0.0455
17215TIP3   OH273135   4.143   3.742   1.653  0.3458  0.1407 -0.2526
17215TIP3    H173136   4.053   3.775   1.654  1.6442  3.9288  2.6543
17215TIP3    H273137   4.184   3.788   1.579  0.4596  0.1091 -0.2093
17216TIP3   OH273138   0.332   4.976  12.349 -0.0629 -0.1861 -0.1042
17216TIP3    H173139   0.276   4.978  12.426  2.3179  0.7328  1.6511
17216TIP3    H273140   0.335   5.067  12.318  0.8298 -0.1469  0.0896
17217TIP3   OH273141   5.737   1.116  12.602  0.4158 -0.0668 -0.2333
17217TIP3    H173142   5.646   1.091  12.583  0.2205  0.2914  0.2157
17217TIP3    H273143   5.759   1.068  12.681  0.5519 -0.0070 -0.2340
17218TIP3   OH273144   6.373   2.667   5.315  0.2976 -0.0738 -0.1481
17218TIP3    H173145   6.349   2.604   5.382 -0.4139  0.8619  0.4820
17218TIP3    H273146   6.419   2.615   5.249 -1.9538 -1.5983 -0.5662
17219TIP3   OH273147   1.702   1.990   1.695  0.4591 -0.0358 -1.2130
17219TIP3    H173148   1.635   2.016   1.631 -0.3706  0.2742 -0.2427
17219TIP3    H273149   1.677   2.036   1.775  0.8896 -1.2227 -0.3771
17220TIP3   OH273150   5.449   0.189  12.657  0.3275 -0.1720  0.0759
17220TIP3    H173151   5.373   0.166  12.604 -0.1452  0.2607  0.5558
17220TIP3    H273152   5.493   0.258  12.607  0.6902 -0.7756 -0.4462
17221TIP3   OH273153   1.957   0.786  17.022 -0.0449 -0.3606  0.1796
17221TIP3    H173154   2.013   0.756  17.093  0.3516 -1.5903 -0.6314
17221TIP3    H273155   1.971   0.880  17.018  1.3971 -0.5527  0.4862
17222TIP3   OH273156   5.643   4.767  11.554 -0.1405 -0.4804  0.3317
17222TIP3    H173157   5.661   4.742  11.463  1.3035  1.1058  0.1636
17222TIP3    H273158   5.654   4.862  11.556 -0.9622 -0.3988  1.9942
17223TIP3   OH273159   5.133   0.898  11.659  0.4298 -0.3489  0.2160
17223TIP3    H173160   5.172   0.821  11.702  2.2471 -0.5013 -1.6352
17223TIP3    H273161   5.095   0.863  11.578 -1.0350  0.2923  0.6226
17224TIP3   OH273162   6.076   1.977  14.606 -0.2730 -0.4227 -0.1550
17224TIP3    H173163   5.984   2.001  14.599 -0.3664 -0.8737 -0.4629
17224TIP3    H273164   6.121   2.033  14.543 -0.2334  0.3243  0.5224
17225TIP3   OH273165   0.114   4.196  15.030 -1.0054  0.2071  0.3957
17225TIP3    H173166   0.168   4.148  14.967  0.0197 -2.0530  2.8562
17225TIP3    H273167   0.166   4.272  15.053 -0.3859 -0.1485  0.1840
17226TIP3   OH273168   5.723   6.657  15.497  0.1978  0.1095  0.0340
17226TIP3    H173169   5.696   6.748  15.511  0.1519  0.1365 -0.2290
17226TIP3    H273170   5.776   6.636  15.574 -0.1071  0.2358  0.2793
17227TIP3   OH273171   2.804   0.881  14.522  0.2633 -0.0998 -0.0121
17227TIP3    H173172   2.891   0.915  14.503 -0.1588 -0.2516 -2.3502
17227TIP3    H273173   2.770   0.852  14.437 -2.7542  1.5805  0.5555
17228TIP3   OH273174   1.267   1.076  11.101 -0.1017  0.1161 -0.0997
17228TIP3    H173175   1.293   1.040  11.186 -1.6891 -0.1814  0.2672
17228TIP3    H273176   1.326   1.034  11.038  1.7829  1.1362  0.9585
17229TIP3   OH273177   3.324   1.442   1.318 -0.1759  0.4843  0.5107
17229TIP3    H173178   3.407   1.433   1.270  0.8021  1.6042  1.9423
17229TIP3    H273179   3.257   1.436   1.251  0.9741 -2.1543 -0.4992
17230TIP3   OH273180   2.711   2.989   1.659  0.0607  0.4672  0.7543
17230TIP3    H173181   2.639   2.935   1.690 -0.5604  0.7298 -0.2093
17230TIP3    H273182   2.736   2.950   1.575  0.0071  1.2990  0.3461
17231TIP3   OH273183   3.734   2.355  11.113  0.3114  0.1691  0.1040
17231TIP3    H173184   3.649   2.327  11.148  0.0984  0.3263 -0.2794
17231TIP3    H273185   3.720   2.447  11.089  0.9499  0.5576  1.1868
17232TIP3   OH273186   3.486   3.987  17.263 -0.1633 -0.4951 -0.0566
17232TIP3    H173187   3.514   4.064  17.312 -0.6359  0.0643 -0.6529
17232TIP3    H273188   3.504   4.009  17.171  1.8569 -2.0026 -0.0672
17233TIP3   OH273189   5.624   1.927  12.514  0.2522  0.3073 -0.1459
17233TIP3    H173190   5.707   1.973  12.499 -0.7314  1.7392 -1.4374
17233TIP3    H273191   5.649   1.843  12.551  2.2409  1.0135  0.1719
17234TIP3   OH273192   1.273   3.563  10.580  0.1119  0.5189 -0.6344
17234TIP3    H173193   1.356   3.521  10.558  0.6927  0.9112  0.7109
17234TIP3    H273194   1.250   3.525  10.665 -0.2650  1.5856 -0.2497
17235TIP3   OH273195   2.710   2.768   5.190  0.3059 -0.1184  0.4579
17235TIP3    H173196   2.630   2.774   5.242  0.0201  0.4302 -0.0462
17235TIP3    H273197   2.759   2.848   5.212  0.9883 -0.7355  1.2169
17236TIP3   OH273198   6.233   5.584   4.085  0.0102  0.2467  0.3849
17236TIP3    H173199   6.285   5.657   4.052 -0.3147  0.8834  1.2406
17236TIP3    H273200   6.297   5.525   4.125  0.1151  0.9074  1.2170
17237TIP3   OH273201   2.650   2.368   2.255  0.4680 -0.2163 -0.1161
17237TIP3    H173202   2.648   2.287   2.306 -0.5728 -0.6622 -0.8440
17237TIP3    H273203   2.737   2.404   2.271  2.4741 -3.4747 -2.8575
17238TIP3   OH273204   4.443   5.617  11.645  0.1372  0.0806  0.6491
17238TIP3    H173205   4.427   5.649  11.556 -0.7396 -0.3553  0.6439
17238TIP3    H273206   4.364   5.567  11.667  0.0426  0.7703  1.9336
17239TIP3   OH273207   2.475   2.470  13.757 -0.3565 -0.5636  0.4116
17239TIP3    H173208   2.552   2.463  13.700  0.1465 -0.8512  1.1275
17239TIP3    H273209   2.510   2.467  13.846 -0.9116  2.1867  0.7687
17240TIP3   OH273210   1.234   1.903  11.059 -0.1379 -0.2537 -0.3146
17240TIP3    H173211   1.308   1.880  11.003  0.4533 -2.7027  1.4380
17240TIP3    H273212   1.161   1.912  10.998  1.4045  1.5390 -1.9804
17241TIP3   OH273213   2.843   5.346   2.771  0.2010  0.2189  0.1683
17241TIP3    H173214   2.910   5.355   2.839  0.3029 -0.9955  0.2318
17241TIP3    H273215   2.856   5.259   2.735 -0.8561  0.2650 -0.3493
17242TIP3   OH273216   4.473   2.039  15.525 -0.5292  0.0337 -0.0798
17242TIP3    H173217   4.421   1.960  15.510 -0.5270  0.0745 -0.2981
17242TIP3    H273218   4.412   2.111  15.514 -0.9510  0.0087  1.8501
17243TIP3   OH273219   4.494   4.623   3.311  0.0822 -0.0823  0.3761
17243TIP3    H173220   4.538   4.554   3.260  1.5250 -0.3778  1.9625
17243TIP3    H273221   4.430   4.575   3.364 -0.0233 -0.0123  0.3114
17244TIP3   OH273222   6.385   5.531  11.381 -0.1677 -0.7793  0.1827
17244TIP3    H173223   6.448   5.474  11.337  0.3322  0.2974 -0.5118
17244TIP3    H273224   6.408   5.619  11.353 -0.5676 -0.1715  1.7072
17245TIP3   OH273225   2.137   6.374  11.514 -0.4842 -0.1564 -0.3201
17245TIP3    H173226   2.047   6.357  11.486 -0.4254 -1.9475  0.5505
17245TIP3    H273227   2.139   6.347  11.606  1.2561 -1.2970 -0.6726
17246TIP3   OH273228   0.454   4.675   2.489 -0.6486 -0.2412  0.0284
17246TIP3    H173229   0.454   4.583   2.462 -2.4466 -0.2455  0.0157
17246TIP3    H273230   0.404   4.720   2.422 -1.5309  0.4218  1.1089
17247TIP3   OH273231   0.173   0.823  15.590 -0.1457  0.4870 -0.2208
17247TIP3    H173232   0.219   0.871  15.659 -1.0371 -1.0514  1.4896
17247TIP3    H273233   0.208   0.734  15.594 -0.5740  0.2460 -1.4359
17248TIP3   OH273234   4.726   4.406  15.679  0.4585 -0.4048 -1.0904
17248TIP3    H173235   4.746   4.324  15.724 -1.1724 -0.6998 -0.8727
17248TIP3    H273236   4.811   4.442  15.654  1.3398 -0.7434  1.3234
17249TIP3   OH273237   0.609   1.593   0.894  0.1711  0.1594  0.5871
17249TIP3    H173238   0.665   1.583   0.972  0.3348 -0.7872  0.3540
17249TIP3    H273239   0.643   1.528   0.832  0.5988  1.4832 -0.6076
17250TIP3   OH273240   6.003   1.879  17.157 -0.3661  0.1806  0.2324
17250TIP3    H173241   5.937   1.900  17.091 -0.7533 -0.0757  0.5435
17250TIP3    H273242   6.007   1.784  17.158 -1.5474  0.1450  1.7663
17251TIP3   OH273243   0.206   1.400   4.587 -0.6049 -0.0989 -0.3920
17251TIP3    H173244   0.207   1.423   4.680 -0.6128  0.1451 -0.4509
17251TIP3    H273245   0.257   1.469   4.545 -0.2594 -0.4292 -0.5205
17252TIP3   OH273246   3.555   2.827  14.284 -0.5059 -0.5452  0.2249
17252TIP3    H173247   3.592   2.893  14.226  1.1301 -1.5462  0.1251
17252TIP3    H273248   3.594   2.846  14.370 -0.9084 -0.6985  0.4460
17253TIP3   OH273249   5.635   5.139   5.735 -0.2351  0.6632 -0.6804
17253TIP3    H173250   5.719   5.144   5.691 -0.6754  0.1130 -1.6007
17253TIP3    H273251   5.654   5.100   5.820  0.5355  1.1661 -0.6227
17254TIP3   OH273252   5.102   6.086   6.456 -0.0193 -0.5392 -0.1300
17254TIP3    H173253   5.168   6.136   6.504  0.8459 -0.4389 -1.3708
17254TIP3    H273254   5.142   6.072   6.370 -2.2214  0.8240 -1.4221
17255TIP3   OH273255   2.395   1.776   2.397  0.4850 -0.6037 -0.0958
17255TIP3    H173256   2.366   1.685   2.404  2.6681 -1.3025  0.0286
17255TIP3    H273257   2.320   1.827   2.429 -0.5471 -2.3579  0.3749
17256TIP3   OH273258   4.615   3.720  15.869 -0.4207  0.8583 -0.1211
17256TIP3    H173259   4.687   3.737  15.929 -1.1952 -1.4244  1.5256
17256TIP3    H273260   4.538   3.754  15.914 -0.5093  2.5149 -1.4927
17257TIP3   OH273261   1.980   4.072   4.962 -0.5098  0.0051 -0.5094
17257TIP3    H173262   1.952   4.035   5.046 -0.1604  1.0013  0.0554
17257TIP3    H273263   1.978   4.166   4.975 -0.2458  0.1675 -1.5624
17258TIP3   OH273264   4.332   3.620  11.741 -0.2950 -0.0674 -0.1259
17258TIP3    H173265   4.260   3.642  11.682  0.0347  1.4916  0.0216
17258TIP3    H273266   4.384   3.701  11.746  0.2241 -0.4911  1.5146
17259TIP3   OH273267   4.632   3.878   2.645  0.2567  0.2104  0.1560
17259TIP3    H173268   4.559   3.914   2.694  0.6491  0.0185  0.8870
17259TIP3    H273269   4.689   3.953   2.628  0.4586  0.1567  0.5920
17260TIP3   OH273270   0.980   2.403  16.538  0.3756 -0.2530  0.1968
17260TIP3    H173271   0.951   2.322  16.496  1.7420 -0.3200 -0.6658
17260TIP3    H273272   1.004   2.460  16.465 -1.1811  1.1702  0.7829
17261TIP3   OH273273   5.986   5.483  12.524 -0.0145 -0.0741 -0.3234
17261TIP3    H173274   6.068   5.456  12.566  0.8806  0.9986 -1.3505
17261TIP3    H273275   5.997   5.460  12.432 -0.5360  0.8313 -0.6197
17262TIP3   OH273276   1.546   3.252   0.843 -0.4274 -0.3408  0.7836
17262TIP3    H173277   1.511   3.285   0.926  0.0109 -1.0289  1.2383
17262TIP3    H273278   1.468   3.234   0.790 -0.6870  1.0300  0.6788
17263TIP3   OH273279   5.921   4.104  16.643 -1.0347  0.0367  0.1601
17263TIP3    H173280   5.974   4.106  16.563  0.2184  0.6393  0.9970
17263TIP3    H273281   5.836   4.070  16.614 -0.2527 -0.7985 -1.2303
17264TIP3   OH273282   5.387   3.412   2.593  0.6430  0.8730  0.0879
17264TIP3    H173283   5.294   3.432   2.588  0.3803  0.3346  2.2311
17264TIP3    H273284   5.401   3.345   2.526 -0.6155  0.5882  0.1042
17265TIP3   OH273285   5.284   2.802  12.345  0.3764  0.1741 -0.2887
17265TIP3    H173286   5.298   2.894  12.364 -0.4327  0.6320 -1.8115
17265TIP3    H273287   5.190   2.794  12.328  0.4370 -0.9174 -0.1857
17266TIP3   OH273288   5.496   6.438  13.708 -0.2733 -0.2140 -0.2551
17266TIP3    H173289   5.451   6.419  13.790  1.2694 -0.3545  0.5925
17266TIP3    H273290   5.554   6.363  13.695  0.8062  0.6457 -0.5214
17267TIP3   OH273291   1.678   2.801   1.234  0.1685 -0.2216  0.7418
17267TIP3    H173292   1.624   2.880   1.242 -0.8858 -1.1885  4.2493
17267TIP3    H273293   1.622   2.739   1.188 -0.0861  0.1822  0.5040
17268TIP3   OH273294   4.960   5.370   1.197 -0.8057 -0.1613 -0.2703
17268TIP3    H173295   4.969   5.333   1.110 -0.2142 -1.0698  0.1762
17268TIP3    H273296   4.912   5.452   1.183  1.6366  1.0711 -1.7802
17269TIP3   OH273297   0.922   6.490  12.805 -0.4806 -0.1350  0.6387
17269TIP3    H173298   0.944   6.579  12.834 -1.1759 -0.2621  1.5749
17269TIP3    H273299   0.869   6.504  12.727 -0.3429  0.2674  0.6106
17270TIP3   OH273300   3.273   2.908  16.151 -0.3812  0.2056  0.0511
17270TIP3    H173301   3.307   2.997  16.136  1.4299 -0.4729 -0.0363
17270TIP3    H273302   3.276   2.897  16.246 -0.0158  0.0127  0.0149
17271TIP3   OH273303   1.241   4.746  13.867 -0.2739  0.4184  0.4554
17271TIP3    H173304   1.275   4.704  13.788  2.0004 -0.1865  1.6902
17271TIP3    H273305   1.149   4.722  13.870 -0.6134  1.1149 -2.4184
17272TIP3   OH273306   1.450   3.044   0.085 -0.4681 -0.4502 -0.6373
17272TIP3    H173307   1.499   3.082   0.012  0.0642  0.2986  0.1031
17272TIP3    H273308   1.364   3.084   0.080 -0.3105 -0.1108 -0.6217
17273TIP3   OH273309   5.387   5.517  16.126 -0.6623 -0.1874 -0.1773
17273TIP3    H173310   5.335   5.559  16.057 -3.4523 -1.4589  1.0661
17273TIP3    H273311   5.442   5.454  16.079 -2.6093 -1.1289 -1.3043
17274TIP3   OH273312   4.660   6.552  14.550  0.0128  0.2362  0.0844
17274TIP3    H173313   4.716   6.476  14.567 -1.3140 -0.4154  1.7182
17274TIP3    H273314   4.637   6.584  14.637  0.1388  2.2138 -0.5840
17275TIP3   OH273315   6.820   0.917  13.389  0.1311  0.3018 -0.1688
17275TIP3    H173316   6.838   0.828  13.360 -0.9488  0.5521 -1.6664
17275TIP3    H273317   6.744   0.909  13.447 -0.1800  0.2980 -0.5810
17276TIP3   OH273318   1.739   5.507  15.696 -0.1474 -0.1435 -0.3849
17276TIP3    H173319   1.773   5.539  15.613  0.0604 -1.3324 -0.7632
17276TIP3    H273320   1.816   5.494  15.751 -0.3183  1.1105  0.1782
17277TIP3   OH273321   6.315   4.192  17.000 -0.1656 -0.1936  0.3796
17277TIP3    H173322   6.323   4.266  16.941 -0.6861  0.2292  0.8331
17277TIP3    H273323   6.257   4.131  16.954  0.0072 -0.1852  0.1470
17278TIP3   OH273324   0.451   1.444  11.425  0.7202  0.8603 -0.0819
17278TIP3    H173325   0.401   1.392  11.361  0.1985  0.7541  0.4183
17278TIP3    H273326   0.465   1.528  11.381  0.5769  0.7033 -0.4335
17279TIP3   OH273327   4.082   6.082  12.650 -0.2743 -0.3421 -0.1362
17279TIP3    H173328   4.040   6.157  12.611  1.1736  0.8616  0.5512
17279TIP3    H273329   4.026   6.008  12.628 -2.1389  1.0468 -0.1333
17280TIP3   OH273330   4.731   6.203  16.916 -0.7027 -0.6635  0.6469
17280TIP3    H173331   4.689   6.208  17.002 -0.7784 -0.4342  0.5984
17280TIP3    H273332   4.819   6.170  16.934 -0.2767  0.6044  0.9731
17281TIP3   OH273333   2.323   0.091   0.570  0.0079 -0.3378  0.5215
17281TIP3    H173334   2.229   0.094   0.553  0.3574  2.0882 -1.2987
17281TIP3    H273335   2.338   0.165   0.629  0.7752 -0.7984  0.9075
17282TIP3   OH273336   4.233   5.290   2.839  0.0298 -0.3454  0.2975
17282TIP3    H173337   4.328   5.290   2.847 -0.1103 -0.3556  2.1631
17282TIP3    H273338   4.215   5.235   2.763  1.4052 -2.6205  1.5714
17283TIP3   OH273339   4.866   4.164   1.854 -0.3283  0.5290  0.0492
17283TIP3    H173340   4.778   4.130   1.867 -1.1969  2.5727 -0.2293
17283TIP3    H273341   4.861   4.212   1.770  0.5757  2.0518  0.8404
17284TIP3   OH273342   3.819   6.148   2.336 -0.1962  0.2738 -0.3469
17284TIP3    H173343   3.903   6.104   2.321 -0.3581  0.0077 -0.4770
17284TIP3    H273344   3.842   6.227   2.386  0.1059  0.0872 -0.1890
17285TIP3   OH273345   2.043   4.468  14.507 -0.0289  0.6258  0.0067
17285TIP3    H173346   2.138   4.472  14.496 -0.1581  0.3380 -1.3711
17285TIP3    H273347   2.029   4.456  14.601  1.3418 -0.7073  0.0595
17286TIP3   OH273348   4.085   6.409  14.983  0.1726  0.0030  0.0944
17286TIP3    H173349   4.152   6.425  15.049 -0.1384 -1.0937  0.6969
17286TIP3    H273350   4.133   6.367  14.910  0.3861  0.5309 -0.0686
17287TIP3   OH273351   4.221   3.460  13.107 -0.1325 -0.1507  0.4745
17287TIP3    H173352   4.203   3.533  13.166 -0.1114  0.0577  0.2215
17287TIP3    H273353   4.172   3.386  13.145 -1.6891  0.4537 -0.3142
17288TIP3   OH273354   1.952   1.733  11.463 -0.9800 -0.0699  0.2660
17288TIP3    H173355   2.007   1.810  11.451 -2.4005  0.8421 -0.3922
17288TIP3    H273356   1.888   1.759  11.528 -2.3262 -0.2243 -0.9780
17289TIP3   OH273357   4.237   0.837   4.027 -0.4079  0.1667 -0.5886
17289TIP3    H173358   4.163   0.810   3.973 -0.1175  0.5499 -1.1774
17289TIP3    H273359   4.304   0.769   4.012 -0.9873 -0.7187  0.7044
17290TIP3   OH273360   5.483   6.707  12.224  0.3609  0.2651 -0.1147
17290TIP3    H173361   5.563   6.655  12.212 -0.1908 -0.2834 -1.4981
17290TIP3    H273362   5.434   6.659  12.291 -0.5493 -1.5184 -2.0153
17291TIP3   OH273363   4.515   4.201   4.090 -0.1404 -0.4337  0.3559
17291TIP3    H173364   4.510   4.193   3.995  1.0608 -0.6960  0.2992
17291TIP3    H273365   4.596   4.155   4.113 -1.1391 -1.5964  1.6562
17292TIP3   OH273366   5.871   2.033  14.459 -0.5303 -0.1950 -0.1071
17292TIP3    H173367   5.881   2.075  14.374  2.5561  0.1165  0.3560
17292TIP3    H273368   5.866   1.939  14.439 -1.5695 -0.0252 -0.7101
17293TIP3   OH273369   0.652   4.392  16.150 -0.6724  0.3431 -0.5182
17293TIP3    H173370   0.710   4.467  16.136  1.4192 -1.2120 -0.2591
17293TIP3    H273371   0.659   4.340  16.071 -2.5967  0.6795 -0.9496
17294TIP3   OH273372   3.211   5.318  12.791  0.2393  0.4768 -0.6553
17294TIP3    H173373   3.286   5.307  12.848 -0.9971 -2.3262  0.4923
17294TIP3    H273374   3.232   5.267  12.713 -0.8065 -1.0498  0.0344
17295TIP3   OH273375   2.959   0.060   0.989  0.0914  0.0758  0.3071
17295TIP3    H173376   2.984   0.132   0.930 -1.4055  0.9731  0.7427
17295TIP3    H273377   2.965  -0.018   0.935  3.6104  0.2366  0.3149
17296TIP3   OH273378   2.577   3.036   4.719 -0.0668  0.6524  0.4150
17296TIP3    H173379   2.545   3.120   4.684 -0.5062  0.3308  0.0453
17296TIP3    H273380   2.656   3.018   4.668 -0.5157  0.3553 -0.1820
17297TIP3   OH273381   6.183   6.154  16.968  0.4961 -0.4636  0.2737
17297TIP3    H173382   6.136   6.138  16.886 -1.3506  1.5175  0.8985
17297TIP3    H273383   6.142   6.096  17.031 -0.2771  0.3273  0.5156
17298TIP3   OH273384   4.237   1.803  15.826 -0.9449 -0.8371 -0.3690
17298TIP3    H173385   4.182   1.856  15.883 -0.7613  1.7685 -2.5059
17298TIP3    H273386   4.323   1.803  15.868 -1.2320 -0.3694  0.2242
17299TIP3   OH273387   4.929   1.136  13.787 -0.2654 -0.0879  0.1280
17299TIP3    H173388   4.847   1.146  13.739 -0.0518  1.8660  0.1326
17299TIP3    H273389   4.936   1.216  13.840  0.3660 -1.4177  2.0932
17300TIP3   OH273390   1.330   5.911  11.837 -0.4296 -0.2768  0.0865
17300TIP3    H173391   1.330   5.825  11.796  2.8463 -0.1206 -0.3721
17300TIP3    H273392   1.361   5.971  11.769 -0.7081  0.9225  0.9936
17301TIP3   OH273393   3.429   4.647   3.019  0.2109  0.2723 -0.7372
17301TIP3    H173394   3.340   4.670   3.046 -0.4759  0.0174 -2.7415
17301TIP3    H273395   3.442   4.558   3.054 -0.4993  0.1137 -0.8674
17302TIP3   OH273396   5.861   4.514   3.829  0.0565 -0.0853 -0.1084
17302TIP3    H173397   5.799   4.460   3.780  0.5236 -2.1154  1.4417
17302TIP3    H273398   5.840   4.498   3.921 -0.2585  3.0054  0.4096
17303TIP3   OH273399   3.242   6.218   5.235 -0.2194  0.2334 -0.8411
17303TIP3    H173400   3.271   6.176   5.154 -0.6751  1.8232 -1.8545
17303TIP3    H273401   3.321   6.224   5.288  0.2243 -0.2413 -1.4350
17304TIP3   OH273402   4.237   4.325   6.505 -0.0262  0.2893 -0.0025
17304TIP3    H173403   4.300   4.292   6.568 -0.7986  0.5080  0.8940
17304TIP3    H273404   4.232   4.419   6.522 -1.4584  0.0911  0.7287
17305TIP3   OH273405   2.258   4.019   6.131  0.6180  0.1137  0.3859
17305TIP3    H173406   2.248   4.084   6.061 -0.3144 -0.4190  0.0152
17305TIP3    H273407   2.347   4.032   6.163  1.4481 -0.3270 -1.6271
17306TIP3   OH273408   6.696   6.410  16.947 -0.1651 -0.3415  0.1493
17306TIP3    H173409   6.642   6.334  16.971  0.5301 -0.9160 -0.0815
17306TIP3    H273410   6.699   6.463  17.027  0.8932 -1.4927  0.8774
17307TIP3   OH273411   5.244   6.213  12.480  0.1072  0.5187 -0.2516
17307TIP3    H173412   5.316   6.233  12.540 -0.3372  1.6999 -0.1131
17307TIP3    H273413   5.266   6.257  12.399 -0.6249  1.1831 -0.1002
17308TIP3   OH273414   6.151   3.934   6.073 -0.2087 -0.3920 -0.5458
17308TIP3    H173415   6.107   3.849   6.068  1.2879 -1.0743 -2.7171
17308TIP3    H273416   6.141   3.971   5.985 -0.7652  1.6525  0.3583
17309TIP3   OH273417   6.139   4.278  12.000  0.1894  0.1135  0.0717
17309TIP3    H173418   6.216   4.237  11.960  1.0482 -0.1910  1.9801
17309TIP3    H273419   6.085   4.204  12.030 -0.5466  0.3334 -0.7006
17310TIP3   OH273420   0.807   1.094  10.529  0.1953  0.4926  0.4686
17310TIP3    H173421   0.801   1.182  10.565  0.4295  0.5825  0.2845
17310TIP3    H273422   0.790   1.037  10.604  0.1863  0.6913  0.6187
17311TIP3   OH273423   2.509   5.600   4.969  0.4125  0.0216 -0.3523
17311TIP3    H173424   2.468   5.686   4.971  0.7868  0.2010 -0.3009
17311TIP3    H273425   2.498   5.565   5.057 -1.1493 -0.6575 -0.7906
17312TIP3   OH273426   4.586   3.993  17.065 -0.7471  0.0926 -0.5951
17312TIP3    H173427   4.541   3.909  17.071 -1.7974  0.7106  0.3883
17312TIP3    H273428   4.541   4.049  17.128  2.6591  0.1540  1.9583
17313TIP3   OH273429   3.954   5.915  15.069 -0.2732 -0.2695 -0.4755
17313TIP3    H173430   3.888   5.933  15.003 -0.6648  2.1214  0.5113
17313TIP3    H273431   3.981   6.002  15.100  1.6275 -1.2775  0.7925
17314TIP3   OH273432   1.648   3.322  15.559  0.3399  0.1163  0.3353
17314TIP3    H173433   1.718   3.259  15.547  1.0935  0.9724  0.1515
17314TIP3    H273434   1.595   3.287  15.631 -0.2522 -1.5693 -0.8985
17315TIP3   OH273435   0.352   5.091   4.687 -0.7272  0.0358  0.3915
17315TIP3    H173436   0.389   5.012   4.650 -2.0550  0.0438 -1.0027
17315TIP3    H273437   0.387   5.095   4.776  0.3593 -1.4164  0.0393
17316TIP3   OH273438   2.744   3.831   5.335 -0.1703  0.0325  0.6348
17316TIP3    H173439   2.809   3.900   5.321 -1.1706  0.4928 -1.8503
17316TIP3    H273440   2.795   3.750   5.336  0.5790  0.4903 -0.1322
17317TIP3   OH273441   2.896   4.221   4.179  0.0527 -0.2588  0.5331
17317TIP3    H173442   2.856   4.133   4.181 -2.3770  0.8154  0.8977
17317TIP3    H273443   2.839   4.274   4.234  0.9478  1.7923 -0.4959
17318TIP3   OH273444   5.178   3.620   5.191  0.2482 -0.8765 -0.1452
17318TIP3    H173445   5.126   3.698   5.211  0.6926 -1.2353  2.5302
17318TIP3    H273446   5.119   3.565   5.138 -0.3548  0.8518 -1.3160
17319TIP3   OH273447   2.491   5.888   1.003 -0.0591 -0.2780 -0.0445
17319TIP3    H173448   2.483   5.849   1.090 -0.3838 -0.2262 -0.0483
17319TIP3    H273449   2.400   5.899   0.974 -0.0662  2.9221  1.0171
17320TIP3   OH273450   2.689   5.750   5.129  0.8573  0.1114  0.1173
17320TIP3    H173451   2.741   5.699   5.067 -1.1267 -1.0778 -0.6140
17320TIP3    H273452   2.659   5.685   5.193 -0.3106  0.6403  0.1168
17321TIP3   OH273453   3.522   5.085   0.048 -0.0457 -0.4813 -0.1747
17321TIP3    H173454   3.529   5.148  -0.024 -0.1066  0.8072  0.9310
17321TIP3    H273455   3.494   5.004   0.006 -0.3966  0.3461 -1.5718
17322TIP3   OH273456   3.742   2.112  13.984  0.3046 -0.2700 -0.3981
17322TIP3    H173457   3.690   2.178  14.030  2.8324  2.4625 -1.2778
17322TIP3    H273458   3.804   2.080  14.049  0.5461 -0.1225 -0.5549
17323TIP3   OH273459   3.568   6.158  16.489  0.2653 -0.0924  0.0606
17323TIP3    H173460   3.535   6.150  16.578 -2.2054 -0.6763 -0.8408
17323TIP3    H273461   3.512   6.225  16.449  1.0017 -0.1922 -1.1704
17324TIP3   OH273462   1.782   1.960   0.738 -0.4470 -0.0303  0.2066
17324TIP3    H173463   1.806   1.868   0.747 -0.6535 -0.4699 -3.1572
17324TIP3    H273464   1.699   1.959   0.690 -0.6368  1.9190  0.4370
17325TIP3   OH273465   6.774   6.184  15.052 -0.2989 -0.5714  0.0226
17325TIP3    H173466   6.834   6.161  14.981 -0.6835 -0.1080 -0.4542
17325TIP3    H273467   6.746   6.099  15.088  0.4254 -0.7907  0.0740
17326TIP3   OH273468   4.442   0.957  12.662 -0.3173 -0.9940  0.1350
17326TIP3    H173469   4.373   1.024  12.669  0.6762  0.2358 -1.3806
17326TIP3    H273470   4.501   0.976  12.735 -1.8057 -2.3572  1.7335
17327TIP3   OH273471   3.366   2.713   5.949  0.3687  0.6636  0.0395
17327TIP3    H173472   3.457   2.683   5.953  0.3057  0.3796 -0.5127
17327TIP3    H273473   3.362   2.787   6.010  0.6479 -0.1514  1.0645
17328TIP3   OH273474   3.937   3.293  16.635  0.2929 -0.0261  0.1138
17328TIP3    H173475   3.876   3.363  16.660  0.5506 -0.0370  0.8051
17328TIP3    H273476   4.023   3.327  16.662  0.5732 -0.0627 -0.7468
17329TIP3   OH273477   6.342   0.440   3.014  0.0283  0.7247 -0.3271
17329TIP3    H173478   6.371   0.530   2.996  0.3869  0.5353 -0.7038
17329TIP3    H273479   6.416   0.385   2.986 -1.0526  0.1789 -2.2514
17330TIP3   OH273480   3.319   1.746   0.042 -0.1604 -0.3401 -0.5018
17330TIP3    H173481   3.279   1.832   0.026 -1.6538 -0.2638  3.1614
17330TIP3    H273482   3.300   1.727   0.134  2.6419 -3.3239 -0.4332
17331TIP3   OH273483   5.128   3.666   1.499  0.3941  0.0701  0.6532
17331TIP3    H173484   5.145   3.600   1.432 -1.7410 -0.6881  0.8171
17331TIP3    H273485   5.133   3.750   1.452 -0.6466 -0.4324 -0.3752
17332TIP3   OH273486   2.285   2.731  13.108  0.3998 -0.2550 -0.7352
17332TIP3    H173487   2.343   2.794  13.066  1.2786  0.6116  1.7004
17332TIP3    H273488   2.339   2.654  13.124  0.9723  0.6064  1.6678
17333TIP3   OH273489   6.259   5.759   4.407 -0.7115 -0.5306 -0.0715
17333TIP3    H173490   6.284   5.840   4.452  0.7051 -1.4088  0.7516
17333TIP3    H273491   6.174   5.779   4.367  0.3989  1.9548 -1.3495
17334TIP3   OH273492   3.266   6.070   0.487 -0.2559 -0.7578  0.0725
17334TIP3    H173493   3.283   6.050   0.579  0.0810 -0.0264  0.1688
17334TIP3    H273494   3.200   6.005   0.460  0.9060 -2.0706  0.3459
17335TIP3   OH273495   0.451   5.231   3.766 -0.3449  0.0405 -0.0085
17335TIP3    H173496   0.469   5.318   3.801  0.1677 -0.3974  0.8233
17335TIP3    H273497   0.531   5.209   3.717 -0.7422  0.3148 -0.7928
17336TIP3   OH273498   1.795   2.352   5.791 -0.1968 -0.0070 -0.6622
17336TIP3    H173499   1.755   2.268   5.811  0.0900  0.7037  3.3775
17336TIP3    H273500   1.724   2.405   5.756 -1.1562 -0.9200 -0.1302
17337TIP3   OH273501   6.459   6.709   4.758  0.1745 -0.1340 -0.2558
17337TIP3    H173502   6.464   6.745   4.846  2.2200  0.4569 -0.5813
17337TIP3    H273503   6.431   6.783   4.704 -4.5968 -1.3720  0.3587
17338TIP3   OH273504   2.951   0.727  15.189  0.2679  0.1612  0.6344
17338TIP3    H173505   2.962   0.780  15.110 -2.8335  0.1588  0.1605
17338TIP3    H273506   2.963   0.790  15.261  0.8387  0.6191  0.1455
17339TIP3   OH273507   3.103   0.448   6.110  0.5817  0.5623 -0.3165
17339TIP3    H173508   3.195   0.426   6.122  0.2365 -0.1410  1.1145
17339TIP3    H273509   3.070   0.460   6.199 -0.6138  1.1894 -0.8430
17340TIP3   OH273510   6.235   4.461   4.937 -0.3464 -0.6069 -0.1057
17340TIP3    H173511   6.207   4.519   5.008  1.7820  1.3588 -0.7901
17340TIP3    H273512   6.235   4.374   4.975 -1.0407  0.1877  1.7667
17341TIP3   OH273513   4.979   5.298   4.123  0.1030 -0.3444  0.1331
17341TIP3    H173514   5.057   5.248   4.148  0.3046 -0.3541 -0.4896
17341TIP3    H273515   4.907   5.236   4.131  0.6060 -1.3341 -2.5253
17342TIP3   OH273516   4.286   4.860   5.326 -0.3963 -0.2462  0.1963
17342TIP3    H173517   4.344   4.926   5.364  0.1556 -0.3044 -0.5202
17342TIP3    H273518   4.211   4.857   5.385  0.9951 -1.2440  1.9366
17343TIP3   OH273519   3.218   5.723   0.435  0.0204  0.9349  0.3159
17343TIP3    H173520   3.260   5.735   0.520 -1.5518  2.2891  0.9265
17343TIP3    H273521   3.141   5.670   0.453  0.9072 -0.7181 -0.6497
17344TIP3   OH273522   5.146   5.917   0.389  0.0144  0.2191 -0.2667
17344TIP3    H173523   5.201   5.946   0.462 -0.5541  2.9891 -0.8826
17344TIP3    H273524   5.070   5.975   0.392  0.0972  0.5505 -3.1785
17345TIP3   OH273525   6.471   0.442   6.317 -0.4077 -0.0324  0.3505
17345TIP3    H173526   6.476   0.378   6.388 -1.6933 -0.8172 -0.2569
17345TIP3    H273527   6.554   0.432   6.270 -0.6747 -1.3796  0.1477
17346TIP3   OH273528   2.859   2.029  16.585  0.6852 -0.0213 -0.1989
17346TIP3    H173529   2.867   2.024  16.680 -0.6165  0.0242 -0.0749
17346TIP3    H273530   2.907   2.108  16.561 -0.3574  0.8672  0.5988
17347TIP3   OH273531   0.419   2.405   2.948  0.4340 -0.7936 -0.6242
17347TIP3    H173532   0.379   2.319   2.955 -0.2594 -0.4863 -0.7766
17347TIP3    H273533   0.449   2.425   3.036 -2.0886  0.0905  0.0622
17348TIP3   OH273534   2.631   0.031  14.489  0.3244  0.1014 -0.5250
17348TIP3    H173535   2.724   0.033  14.510  0.5237  0.4815 -1.4298
17348TIP3    H273536   2.588   0.004  14.570  1.1796  0.4102  0.0249
17349TIP3   OH273537   1.342   6.577   0.845  0.3491 -0.1752  0.1756
17349TIP3    H173538   1.261   6.548   0.803 -0.0011  0.5966  0.3070
17349TIP3    H273539   1.411   6.530   0.800 -0.1354 -0.4273 -0.3050
17350TIP3   OH273540   1.566   1.469   5.585  0.1592 -0.0990 -0.1780
17350TIP3    H173541   1.634   1.457   5.518  0.7191 -0.3252  0.4237
17350TIP3    H273542   1.536   1.380   5.605  1.0412 -0.1651  0.9317
17351TIP3   OH273543   4.572   2.266   3.510 -0.2424  0.1122 -0.1291
17351TIP3    H173544   4.610   2.354   3.519  0.0572 -0.1669  1.6166
17351TIP3    H273545   4.643   2.213   3.475 -0.4557  0.5824 -1.2885
17352TIP3   OH273546   3.699   5.555  12.637  0.2422 -0.2368  0.0754
17352TIP3    H173547   3.713   5.640  12.596  2.1923 -0.7530 -0.4034
17352TIP3    H273548   3.646   5.573  12.714  0.7569  1.4360  0.0591
17353TIP3   OH273549   5.195   3.789   2.683  0.5944  0.3252  0.4712
17353TIP3    H173550   5.105   3.764   2.664  0.0061  0.6650  2.6211
17353TIP3    H273551   5.212   3.864   2.626 -0.8719  0.9550  0.8420
17354TIP3   OH273552   5.982   0.603  11.082  0.1331 -0.2894 -0.0663
17354TIP3    H173553   5.949   0.627  10.995 -0.0376 -0.1848  0.0254
17354TIP3    H273554   6.064   0.557  11.065 -0.0604 -0.5505 -0.2987
17355TIP3   OH273555   6.093   1.799   5.365 -0.1956 -0.3696  0.0270
17355TIP3    H173556   6.145   1.743   5.307 -1.2803  0.7469 -2.0987
17355TIP3    H273557   6.157   1.843   5.421  0.9658 -0.7281 -1.0056
17356TIP3   OH273558   5.317   5.199  16.170  0.1023 -0.2316 -0.3735
17356TIP3    H173559   5.357   5.215  16.255 -0.0454  0.2268 -0.3914
17356TIP3    H273560   5.266   5.277  16.152  2.0277  0.7187 -1.9735
17357TIP3   OH273561   1.904   1.998   2.958 -0.9202 -0.1226  0.1236
17357TIP3    H173562   1.999   2.005   2.947 -1.0867  1.2916 -0.5859
17357TIP3    H273563   1.887   2.040   3.042 -0.8934 -0.5433  0.3378
17358TIP3   OH273564   4.431   5.143   3.368 -0.1773 -0.2619 -0.0846
17358TIP3    H173565   4.364   5.160   3.303 -1.7834 -0.2591  1.5301
17358TIP3    H273566   4.460   5.053   3.350 -1.5798 -0.7462  0.0387
17359TIP3   OH273567   4.789   4.876  12.785 -0.3590  0.0288  0.0256
17359TIP3    H173568   4.794   4.950  12.845 -0.9175  0.6492 -0.6788
17359TIP3    H273569   4.775   4.915  12.699  1.4297 -0.8103 -0.6598
17360TIP3   OH273570   3.692   6.056   6.395 -0.5305 -0.3842  0.1458
17360TIP3    H173571   3.738   5.974   6.375  0.4929 -0.6382  3.2122
17360TIP3    H273572   3.725   6.081   6.481 -1.8582  2.5590 -0.1452
17361TIP3   OH273573   4.603   4.107   2.396 -0.2681 -0.7733 -0.4394
17361TIP3    H173574   4.611   4.013   2.378  0.7494 -0.8834  0.4895
17361TIP3    H273575   4.509   4.123   2.397 -0.4318 -1.5311 -1.8336
17362TIP3   OH273576   1.476   2.266  13.084  0.0643  0.1710 -0.3946
17362TIP3    H173577   1.474   2.190  13.027  1.7794  0.1153 -0.3920
17362TIP3    H273578   1.559   2.259  13.131 -1.7407 -0.3283  2.8551
17363TIP3   OH273579   4.603   0.697  14.661 -0.3544  0.2645  0.3998
17363TIP3    H173580   4.648   0.705  14.577 -1.7433  0.2833 -0.3624
17363TIP3    H273581   4.578   0.605  14.666 -0.4444  0.3059  0.7006
17364TIP3   OH273582   4.709   5.905  13.115 -0.6302  0.2418  0.6361
17364TIP3    H173583   4.787   5.943  13.075 -1.7601 -1.0359 -2.9376
17364TIP3    H273584   4.728   5.906  13.209  2.2468  3.0615  0.1131
17365TIP3   OH273585   5.046   0.717   3.217 -0.0427  0.5511  0.0759
17365TIP3    H173586   4.956   0.689   3.233  0.5029 -0.4289  1.5040
17365TIP3    H273587   5.088   0.640   3.179  0.1274  1.1130 -0.9081
17366TIP3   OH273588   6.439   4.663   4.616 -0.3939  0.0610 -0.1706
17366TIP3    H173589   6.363   4.720   4.604 -1.5075 -1.8850 -2.6995
17366TIP3    H273590   6.484   4.700   4.692 -3.7581  1.3512  1.3126
17367TIP3   OH273591   6.125   0.103  17.129 -0.0929  0.5015 -0.1023
17367TIP3    H173592   6.133   0.052  17.210  2.1207 -0.3744 -0.8434
17367TIP3    H273593   6.212   0.140  17.116 -0.8484  1.9009 -1.2866
17368TIP3   OH273594   6.668   4.419   2.184 -0.1346  0.2941 -0.1396
17368TIP3    H173595   6.714   4.339   2.159 -1.2132 -0.2402 -0.4055
17368TIP3    H273596   6.602   4.391   2.247  0.1657  1.1292  0.5637
17369TIP3   OH273597   2.379   2.950   3.830  0.1956 -0.3206  0.0636
17369TIP3    H173598   2.398   3.037   3.866 -1.6277  0.4476 -0.7827
17369TIP3    H273599   2.298   2.923   3.875  1.0663 -1.8456  0.7528
17370TIP3   OH273600   1.194   6.029  10.151 -0.0333  0.3260  0.1375
17370TIP3    H173601   1.237   6.111  10.174  0.4296  0.5873 -1.6322
17370TIP3    H273602   1.130   6.016  10.221  0.6099  1.6421  0.9962
17371TIP3   OH273603   3.179   4.164   1.131 -0.5025  0.7486 -0.1842
17371TIP3    H173604   3.113   4.162   1.200 -0.7517 -1.7741 -0.4568
17371TIP3    H273605   3.188   4.073   1.103  0.2060  1.6121 -2.9218
17372TIP3   OH273606   5.323   4.290   2.349  0.2781  0.3657  0.2669
17372TIP3    H173607   5.265   4.340   2.292  2.0390  1.4142 -0.6418
17372TIP3    H273608   5.264   4.233   2.399 -1.5519  1.7023 -0.3158
17373TIP3   OH273609   4.741   2.871  15.728 -1.0443  0.1830 -0.1037
17373TIP3    H173610   4.648   2.897  15.729 -0.6394  1.6838 -0.3737
17373TIP3    H273611   4.780   2.926  15.660  0.2481  0.2850  0.7156
17374TIP3   OH273612   6.400   2.456  10.756  0.5201 -0.0376 -0.3123
17374TIP3    H173613   6.401   2.521  10.826 -0.5879  0.9224 -1.1770
17374TIP3    H273614   6.343   2.386  10.790  2.8474 -1.2712  1.2056
17375TIP3   OH273615   3.709   3.187  11.111 -0.2004  0.1409  0.3203
17375TIP3    H173616   3.709   3.149  11.198 -0.2068 -1.0472 -0.1935
17375TIP3    H273617   3.796   3.168  11.076 -0.2011  0.5974  0.0599
17376TIP3   OH273618   2.018   5.933   2.117  0.0877  0.2050 -0.1520
17376TIP3    H173619   2.048   5.993   2.185  3.0940  2.0153 -2.9427
17376TIP3    H273620   2.070   5.854   2.130  0.6308  0.5359 -0.2658
17377TIP3   OH273621   6.045   1.218   1.164 -0.5629 -0.6857 -0.0259
17377TIP3    H173622   6.048   1.209   1.068  3.3275 -1.3265  0.0631
17377TIP3    H273623   5.989   1.147   1.194  0.4337 -2.1969 -1.6774
17378TIP3   OH273624   5.000   6.055  15.331  0.5608  0.3086 -0.2195
17378TIP3    H173625   4.954   6.056  15.415  0.4600 -0.3844 -0.2625
17378TIP3    H273626   4.992   6.144  15.298  1.2777  0.7709  0.8733
17379TIP3   OH273627   5.899   4.367   5.509  0.0505 -0.0054 -0.7688
17379TIP3    H173628   5.819   4.330   5.547 -1.2333  2.1113 -1.3158
17379TIP3    H273629   5.877   4.381   5.417  0.7316  1.4626 -0.7120
17380TIP3   OH273630   6.089   3.295  13.533 -0.2632 -0.3148  0.3498
17380TIP3    H173631   6.006   3.297  13.487  0.2833 -0.4959 -0.6640
17380TIP3    H273632   6.095   3.207  13.570 -0.1586 -0.5707 -0.2685
17381TIP3   OH273633   2.108   1.834   0.699 -0.2446 -0.0503 -0.8456
17381TIP3    H173634   2.179   1.775   0.728  0.2602  0.0699 -1.8170
17381TIP3    H273635   2.029   1.796   0.737  0.2804 -0.4729 -0.1557
17382TIP3   OH273636   4.665   5.373  14.767 -0.0712 -0.1075 -0.4188
17382TIP3    H173637   4.712   5.453  14.789  3.4683 -2.5124  1.1239
17382TIP3    H273638   4.690   5.355  14.676 -0.4913  0.2542 -0.6102
17383TIP3   OH273639   6.163   4.996   1.096  0.3716  0.7013 -0.0560
17383TIP3    H173640   6.148   4.978   1.003 -0.6050  2.7238 -0.3221
17383TIP3    H273641   6.098   4.942   1.141  1.5100 -1.0465 -0.4777
17384TIP3   OH273642   2.020   6.781   0.601  0.1745  0.2601 -0.1744
17384TIP3    H173643   2.071   6.713   0.556  0.4341  0.1625  0.2632
17384TIP3    H273644   2.004   6.746   0.688  1.3698  1.2545  0.4809
17385TIP3   OH273645   3.637   3.048  13.822 -0.0975 -0.8277  0.0156
17385TIP3    H173646   3.617   3.002  13.741  2.8391 -2.3507  0.0633
17385TIP3    H273647   3.654   3.138  13.795 -0.0986 -1.1100 -0.9403
17386TIP3   OH273648   4.975   1.781   4.617  0.2875 -0.9419  0.6331
17386TIP3    H173649   5.061   1.778   4.575  0.6417 -0.2330  1.3069
17386TIP3    H273650   4.921   1.724   4.563  0.8651 -0.4278 -0.5137
17387TIP3   OH273651   3.367   6.786   4.969 -0.3354  0.1269 -0.0488
17387TIP3    H173652   3.304   6.727   4.929 -0.7970  0.0530  0.7824
17387TIP3    H273653   3.450   6.737   4.968 -0.6164 -0.3563  0.2263
17388TIP3   OH273654   6.509   5.459   3.586  0.1841 -0.3579 -0.0822
17388TIP3    H173655   6.446   5.521   3.550 -0.7583 -0.8963  0.6086
17388TIP3    H273656   6.521   5.394   3.517 -0.0939 -0.3020 -0.1844
17389TIP3   OH273657   0.611   5.372  11.523  0.2374  0.1683 -0.2540
17389TIP3    H173658   0.596   5.356  11.429 -1.3795  0.4340 -0.0470
17389TIP3    H273659   0.675   5.444  11.525  1.4472 -0.8480 -1.1482
17390TIP3   OH273660   6.683   2.836  16.213 -0.0122  0.0442 -0.1582
17390TIP3    H173661   6.751   2.823  16.146 -0.1838  2.5371 -0.8591
17390TIP3    H273662   6.731   2.837  16.296  0.8261  1.6556 -0.6434
17391TIP3   OH273663   0.903   4.551   0.938 -0.9966 -0.1713  0.2465
17391TIP3    H173664   0.918   4.467   0.895 -1.3497  0.1813 -0.5953
17391TIP3    H273665   0.880   4.529   1.028  0.3719 -0.8954  0.4178
17392TIP3   OH273666   2.514   1.044  12.955 -0.3995  0.1816  0.2376
17392TIP3    H173667   2.518   0.952  12.980 -0.3772  0.3300  0.7901
17392TIP3    H273668   2.548   1.091  13.032  0.1785  0.6043 -0.2738
17393TIP3   OH273669   1.934   3.419  14.514 -0.1830  0.3311 -0.3962
17393TIP3    H173670   1.851   3.398  14.556 -0.3574  0.1237 -0.8374
17393TIP3    H273671   1.912   3.484  14.448 -0.3153 -1.0638 -1.7677
17394TIP3   OH273672   5.362   5.834  15.915  0.2345 -0.2430  0.1120
17394TIP3    H173673   5.336   5.743  15.905 -1.2340  0.0595  1.0442
17394TIP3    H273674   5.458   5.832  15.914  0.2092 -1.6937 -0.6388
17395TIP3   OH273675   4.888   3.105  12.292  0.1383 -0.1916 -0.0485
17395TIP3    H173676   4.810   3.081  12.342 -0.0466 -0.3816 -0.4235
17395TIP3    H273677   4.952   3.131  12.358  0.0055 -0.7576  0.3014
17396TIP3   OH273678   4.520   5.430   2.084  0.0459 -0.6755  0.1642
17396TIP3    H173679   4.481   5.434   1.997 -1.4327 -1.7844  0.7553
17396TIP3    H273680   4.510   5.519   2.119  0.0858 -0.3883 -0.5402
17397TIP3   OH273681   1.701   4.115   4.604 -0.3121 -0.1028  0.4052
17397TIP3    H173682   1.796   4.108   4.592 -0.3796  0.6994 -0.6800
17397TIP3    H273683   1.688   4.200   4.646 -0.6361  0.3108 -0.5257
17398TIP3   OH273684   3.442   4.886   5.880 -0.4906 -0.1308  0.1146
17398TIP3    H173685   3.376   4.933   5.828  0.3637  0.0697 -0.7995
17398TIP3    H273686   3.400   4.803   5.903 -1.3293  0.3029  0.1742
17399TIP3   OH273687   5.079   3.106  13.908 -0.2236 -0.0797  0.3216
17399TIP3    H173688   5.106   3.075  13.994  4.5345 -1.8438 -1.6617
17399TIP3    H273689   5.121   3.192  13.900 -1.9153  0.7716  0.2839
17400TIP3   OH273690   5.596   2.243  12.763  0.2968 -0.1279 -0.0756
17400TIP3    H173691   5.637   2.330  12.757 -2.1685  1.0455 -0.8222
17400TIP3    H273692   5.552   2.232  12.678 -1.7583 -0.8448  1.0480
17401TIP3   OH273693   4.093   3.601  11.856 -0.4965 -0.0676  0.2238
17401TIP3    H173694   4.084   3.683  11.905 -0.6866 -1.5172  2.7128
17401TIP3    H273695   4.186   3.581  11.859 -0.7771 -1.2340  1.8702
17402TIP3   OH273696   4.195   5.885   1.285 -0.2432  0.0237  0.0132
17402TIP3    H173697   4.196   5.839   1.202 -4.1314  0.7848 -0.5481
17402TIP3    H273698   4.187   5.978   1.262 -1.1707  0.2600  1.2190
17403TIP3   OH273699   4.083   4.254   6.287 -0.7079  0.3527 -0.0173
17403TIP3    H173700   4.082   4.343   6.252  1.2672  0.2292 -0.4129
17403TIP3    H273701   4.128   4.262   6.372 -0.5056 -0.2685 -0.0626
17404TIP3   OH273702   2.360   2.590  16.330 -0.7227 -0.0899  0.3754
17404TIP3    H173703   2.375   2.568  16.422  2.0518 -2.1878 -0.4903
17404TIP3    H273704   2.295   2.525  16.300  1.0543 -1.7574  0.0059
17405TIP3   OH273705   1.179   4.392  15.939 -0.1602 -0.3970 -0.2709
17405TIP3    H173706   1.211   4.479  15.915 -0.2075  0.1349  1.5380
17405TIP3    H273707   1.237   4.364  16.009 -0.7429 -1.4365 -0.1915
17406TIP3   OH273708   0.610   3.280   1.788  0.4537  0.2913 -0.0432
17406TIP3    H173709   0.631   3.188   1.801  0.6785  0.1171 -1.5550
17406TIP3    H273710   0.597   3.314   1.876  1.1683 -0.9954  0.5768
17407TIP3   OH273711   1.798   6.773  14.723  0.1531 -0.7435 -0.2794
17407TIP3    H173712   1.863   6.783  14.793 -1.7354 -1.2950  1.5927
17407TIP3    H273713   1.746   6.854  14.727  0.6890 -0.3128 -1.7587
17408TIP3   OH273714   2.287   4.754  14.808 -0.2258  0.3921  0.3335
17408TIP3    H173715   2.230   4.677  14.799  2.7611 -1.9092  0.5281
17408TIP3    H273716   2.294   4.767  14.902  0.8338 -0.2973  0.3492
17409TIP3   OH273717   6.435   1.249  16.280 -0.0447 -0.0623  0.7720
17409TIP3    H173718   6.401   1.310  16.214 -0.2330  0.4823  1.3653
17409TIP3    H273719   6.474   1.178  16.229 -1.3633 -0.2980  0.0693
17410TIP3   OH273720   3.871   0.739  13.980  0.2706  0.6884  0.5149
17410TIP3    H173721   3.959   0.775  13.982  0.9109 -0.8834  1.6138
17410TIP3    H273722   3.855   0.709  14.070 -1.2395  0.6097  0.2425
17411TIP3   OH273723   1.325   0.631  13.333 -0.2888  0.7850  0.0775
17411TIP3    H173724   1.336   0.603  13.243  2.4444  1.6057  0.1097
17411TIP3    H273725   1.268   0.565  13.373  1.1101 -1.3541 -1.4097
17412TIP3   OH273726   1.739   2.892   5.499  0.3813  0.3824  0.0824
17412TIP3    H173727   1.733   2.949   5.422 -0.3667  1.3842  0.8624
17412TIP3    H273728   1.828   2.906   5.532  1.1520 -1.0263 -1.3154
17413TIP3   OH273729   4.595   4.632  11.325  0.0172 -0.3260  0.0390
17413TIP3    H173730   4.554   4.557  11.368 -2.6143  0.8497 -0.3086
17413TIP3    H273731   4.683   4.602  11.304 -0.3387 -2.6474  1.6545
17414TIP3   OH273732   0.206   0.960  16.137  0.1254 -0.0242  0.2289
17414TIP3    H173733   0.174   0.894  16.199  0.8843 -0.9830 -0.4040
17414TIP3    H273734   0.301   0.955  16.143  0.1917  0.9843  0.1421
17415TIP3   OH273735   5.968   4.015   3.788  0.5898  0.2780 -0.3169
17415TIP3    H173736   6.021   4.034   3.711 -0.9097  1.5899 -1.0571
17415TIP3    H273737   5.989   4.085   3.850  0.2031  0.4441 -0.3710
17416TIP3   OH273738   4.288   0.178  14.465  0.3793  0.0024  0.4234
17416TIP3    H173739   4.299   0.194  14.559  0.9350  1.6296  0.1042
17416TIP3    H273740   4.225   0.244  14.437 -1.1077 -1.5828 -0.0459
17417TIP3   OH273741   3.595   2.014   4.241 -0.2482  0.0333  0.1486
17417TIP3    H173742   3.526   1.988   4.302 -0.7852  0.6935 -0.1671
17417TIP3    H273743   3.562   1.990   4.155 -0.0775  0.3301 -0.0030
17418TIP3   OH273744   3.357   5.060   1.595 -0.1891  0.3408  0.0776
17418TIP3    H173745   3.399   5.040   1.511 -0.0787 -2.4694  0.7322
17418TIP3    H273746   3.405   5.007   1.659 -2.4394 -0.1917  1.3901
17419TIP3   OH273747   3.824   4.163   3.381  0.2617 -0.3502  0.0001
17419TIP3    H173748   3.764   4.211   3.438  2.3126  0.2313  1.7118
17419TIP3    H273749   3.835   4.221   3.305 -0.7778 -0.1581 -0.0190
17420TIP3   OH273750   4.875   4.888  12.306 -0.4798 -0.4236 -0.0499
17420TIP3    H173751   4.884   4.974  12.348 -1.9440 -0.1458 -0.2711
17420TIP3    H273752   4.965   4.859  12.291  0.0471  1.6260 -1.0804
17421TIP3   OH273753   0.622   4.398  11.074  0.9560  0.3437  0.3198
17421TIP3    H173754   0.712   4.366  11.074  0.4367 -1.1469 -0.4816
17421TIP3    H273755   0.595   4.395  10.982  0.0404  0.6127  0.5738
17422TIP3   OH273756   0.782   0.919  17.083  0.3068  0.3260  0.9037
17422TIP3    H173757   0.747   0.868  17.156  1.8819 -2.8726 -0.5074
17422TIP3    H273758   0.864   0.876  17.060  0.7742  2.4066 -1.5472
17423TIP3   OH273759   0.794   6.262  16.870  0.0447  0.0586 -0.1814
17423TIP3    H173760   0.847   6.194  16.912  0.7834  0.9435  0.3297
17423TIP3    H273761   0.856   6.314  16.820 -0.4853  0.5004 -0.3816
17424TIP3   OH273762   2.019   5.123  15.958  0.2409  0.3264  0.0960
17424TIP3    H173763   2.068   5.129  15.876  0.3083  1.1189  0.1972
17424TIP3    H273764   2.065   5.055  16.008  0.0512 -0.3362 -0.6213
17425TIP3   OH273765   2.579   1.951  14.843 -0.6666 -0.1707  0.1754
17425TIP3    H173766   2.492   1.927  14.809 -0.4349 -1.2521  0.3327
17425TIP3    H273767   2.564   2.034  14.888 -1.5678 -0.2059 -0.0307
17426TIP3   OH273768   6.365   2.305   4.900 -0.0917  0.5748 -0.4179
17426TIP3    H173769   6.398   2.317   4.989 -2.5139 -1.8359  0.8571
17426TIP3    H273770   6.434   2.257   4.855 -1.1488 -3.3170  1.8630
17427TIP3   OH273771   3.293   1.014  16.698 -0.4434 -0.2108 -0.5209
17427TIP3    H173772   3.199   1.011  16.681 -0.1846 -0.6326 -1.9237
17427TIP3    H273773   3.306   1.095  16.746 -1.6653 -0.6415  0.5692
17428TIP3   OH273774   5.584   6.529   6.028  0.0903 -0.2232 -0.2475
17428TIP3    H173775   5.499   6.543   5.987 -0.1599  0.0570  0.3675
17428TIP3    H273776   5.569   6.459   6.091  0.3106 -0.1435 -0.1062
17429TIP3   OH273777   6.113   6.713   1.954  0.0321 -0.3330  0.4843
17429TIP3    H173778   6.077   6.783   2.007 -0.3670  0.7883 -1.2139
17429TIP3    H273779   6.141   6.647   2.017 -2.7902 -0.2094  1.9631
17430TIP3   OH273780   5.459   6.455   0.320 -0.6894 -0.3429  0.4239
17430TIP3    H173781   5.524   6.481   0.255  0.6910 -0.7736  1.6072
17430TIP3    H273782   5.392   6.408   0.271 -1.4856  2.4097 -1.2403
17431TIP3   OH273783   0.722   1.143  15.277  0.1395  0.4474 -0.8766
17431TIP3    H173784   0.813   1.116  15.287 -0.3800 -0.8376  0.4645
17431TIP3    H273785   0.670   1.065  15.299 -1.3213  1.7124  0.3127
17432TIP3   OH273786   6.373   2.402  14.056 -0.2231 -0.4396  0.0649
17432TIP3    H173787   6.424   2.475  14.090 -2.4230  1.3008 -0.2697
17432TIP3    H273788   6.399   2.328  14.110  0.2352  1.1319  2.0558
17433TIP3   OH273789   6.100   1.085  12.599  0.0239 -0.1182 -0.3103
17433TIP3    H173790   6.020   1.137  12.598  0.0279  0.0296  2.6994
17433TIP3    H273791   6.085   1.016  12.534 -1.7935  0.9674 -1.0897
17434TIP3   OH273792   2.215   0.941   0.174  0.1250 -0.0181 -0.3528
17434TIP3    H173793   2.164   0.878   0.124 -0.9624  0.5849 -0.0046
17434TIP3    H273794   2.273   0.887   0.228 -0.8409 -0.7367 -0.0177
17435TIP3   OH273795   3.817   0.902   6.001  0.2284 -0.9679 -0.1450
17435TIP3    H173796   3.797   0.810   5.983 -0.2868 -0.8778 -0.0582
17435TIP3    H273797   3.760   0.924   6.075 -1.6827  0.1865 -1.8859
17436TIP3   OH273798   4.826   3.055  13.789 -0.1009  0.1041  0.2267
17436TIP3    H173799   4.910   3.076  13.830  0.0933  0.3639 -0.2868
17436TIP3    H273800   4.843   2.977  13.737 -0.3551 -0.2474  0.6640
17437TIP3   OH273801   2.043   5.925   2.803 -0.2791  0.2594  0.1437
17437TIP3    H173802   2.137   5.905   2.798 -0.4173 -0.6813  1.1223
17437TIP3    H273803   2.001   5.848   2.766 -0.6886  0.4900  0.1338
17438TIP3   OH273804   1.135   4.288   0.516 -0.0296 -0.3933 -0.0611
17438TIP3    H173805   1.141   4.335   0.433  1.3826 -1.2576 -0.4556
17438TIP3    H273806   1.045   4.256   0.519 -0.0894 -0.3509 -1.2464
17439TIP3   OH273807   3.257   6.311   4.753 -0.2075 -0.0688 -0.3291
17439TIP3    H173808   3.235   6.244   4.688  1.0459 -0.1173 -0.7187
17439TIP3    H273809   3.247   6.394   4.706  1.3597 -0.1313 -0.8069
17440TIP3   OH273810   3.076   0.813  12.215  0.1680  0.1454 -0.5544
17440TIP3    H173811   3.071   0.783  12.306  0.6072  1.8654  0.0587
17440TIP3    H273812   3.076   0.733  12.163  2.5706 -0.9808  1.0920
17441TIP3   OH273813   4.029   3.814   4.855 -0.2930 -0.3078 -0.4329
17441TIP3    H173814   4.075   3.775   4.781 -0.0918  0.7858 -0.8956
17441TIP3    H273815   4.028   3.745   4.922  2.6086 -0.1140 -0.1513
17442TIP3   OH273816   1.689   4.517   1.171 -0.0502  0.6842  0.0140
17442TIP3    H173817   1.603   4.549   1.144 -0.1745  1.4280  1.2773
17442TIP3    H273818   1.751   4.566   1.116 -0.4029  0.4335 -0.6161
17443TIP3   OH273819   2.718   0.950   1.209  0.2996 -0.2554 -0.1577
17443TIP3    H173820   2.738   0.910   1.294 -0.0177  0.1082  0.0903
17443TIP3    H273821   2.791   1.011   1.193 -0.9794  1.6724  1.1285
17444TIP3   OH273822   1.561   2.396   5.934 -0.1678 -0.0961  0.1312
17444TIP3    H173823   1.622   2.415   6.004  0.9545  0.3681 -0.9536
17444TIP3    H273824   1.478   2.435   5.963  0.4744  0.7583  0.8542
17445TIP3   OH273825   6.419   3.580  16.913 -0.5746 -0.1842  0.0889
17445TIP3    H173826   6.376   3.511  16.861  0.9917 -0.6653 -0.6014
17445TIP3    H273827   6.449   3.643  16.848 -1.6926  0.9990  0.7007
17446TIP3   OH273828   5.255   1.081  13.150 -0.1087 -0.5874 -0.0991
17446TIP3    H173829   5.224   1.063  13.061 -0.5242  0.2486 -0.1266
17446TIP3    H273830   5.176   1.073  13.205  0.3557 -2.2656  0.3703
17447TIP3   OH273831   3.966   1.222  12.953  0.7030 -0.2319 -0.6497
17447TIP3    H173832   3.926   1.303  12.920 -0.6087 -0.4835  0.2853
17447TIP3    H273833   4.032   1.252  13.015  1.0467  0.1624 -1.2093
17448TIP3   OH273834   0.487   1.677  11.315 -0.3246 -0.4351  0.1575
17448TIP3    H173835   0.481   1.630  11.232 -0.5320 -0.8024  0.3842
17448TIP3    H273836   0.574   1.717  11.313 -0.1598 -0.7984 -0.0431
17449TIP3   OH273837   1.108   1.559   2.066  0.8249 -0.6404 -0.5660
17449TIP3    H173838   1.194   1.595   2.087  0.1669  0.2358  0.6973
17449TIP3    H273839   1.102   1.480   2.119  0.3117  0.0361  0.3995
17450TIP3   OH273840   0.833   5.222   0.678  0.1228  0.6675  0.0100
17450TIP3    H173841   0.805   5.174   0.600  1.6479  3.1789 -2.1360
17450TIP3    H273842   0.926   5.202   0.687 -0.3492 -0.8060  2.1379
17451TIP3   OH273843   5.962   1.169  11.669 -0.6217  0.0162  0.2208
17451TIP3    H173844   6.043   1.214  11.694 -1.1707 -0.7094  3.4948
17451TIP3    H273845   5.977   1.078  11.694 -2.1062 -0.3238 -0.1028
17452TIP3   OH273846   3.516   2.014  15.968  0.3470  0.5197  0.3603
17452TIP3    H173847   3.547   1.927  15.992  1.6587  1.0949  0.7948
17452TIP3    H273848   3.437   1.998  15.916 -0.2169 -0.8759  1.6089
17453TIP3   OH273849   1.692   1.133   0.477 -0.2828 -0.0052 -0.0200
17453TIP3    H173850   1.662   1.077   0.548 -0.3723 -0.9648 -0.7939
17453TIP3    H273851   1.787   1.124   0.478 -0.1812  1.0710  0.8466
17454TIP3   OH273852   6.786   0.761  16.614  0.6389 -0.1707 -0.2478
17454TIP3    H173853   6.863   0.803  16.654 -0.3218  0.9798  0.4342
17454TIP3    H273854   6.739   0.722  16.688 -1.8556  3.1119  0.0390
17455TIP3   OH273855   5.069   1.509  12.310 -0.5704 -0.0999 -0.9272
17455TIP3    H173856   5.162   1.513  12.332 -0.8510 -2.3148  0.9580
17455TIP3    H273857   5.029   1.577  12.364 -0.3702 -1.0963  0.5345
17456TIP3   OH273858   1.116   0.282   4.166 -0.5294 -0.1749 -0.5057
17456TIP3    H173859   1.102   0.289   4.072  2.1497 -1.3218 -1.0495
17456TIP3    H273860   1.195   0.334   4.182 -0.4922 -0.6512  0.9830
17457TIP3   OH273861   5.954   4.650  11.722 -0.3619 -0.0310  0.5448
17457TIP3    H173862   5.911   4.719  11.672 -0.2213 -0.6451 -0.4560
17457TIP3    H273863   5.952   4.574  11.663  0.7945 -0.4631  1.0436
17458TIP3   OH273864   4.966   4.283  15.282  0.1425 -0.0026 -1.0168
17458TIP3    H173865   4.941   4.192  15.298 -1.6373  0.3943 -1.4552
17458TIP3    H273866   5.055   4.290  15.316 -0.2559 -1.5201  0.3849
17459TIP3   OH273867   6.273   1.925   5.141 -0.7879 -0.2014  0.2264
17459TIP3    H173868   6.212   1.990   5.106 -0.5769  0.2694  0.7148
17459TIP3    H273869   6.231   1.841   5.124 -1.6509  0.1271  0.6950
17460TIP3   OH273870   5.152   0.711  14.630 -0.1267 -1.0590  0.6051
17460TIP3    H173871   5.230   0.730  14.578 -0.5281 -1.4240 -0.1239
17460TIP3    H273872   5.140   0.617  14.623 -1.1509 -0.8840 -0.0047
17461TIP3   OH273873   4.057   0.450  13.084  0.4540  0.6636 -0.8819
17461TIP3    H173874   4.092   0.384  13.023  2.8595 -0.8357  1.9794
17461TIP3    H273875   4.091   0.533  13.050  3.7086 -0.3808 -0.4014
17462TIP3   OH273876   2.992   4.060   0.828  0.1031  0.0017  0.2599
17462TIP3    H173877   2.928   4.036   0.761  0.8257  0.4882 -0.6157
17462TIP3    H273878   2.939   4.080   0.905 -0.7748  0.0081 -0.3367
17463TIP3   OH273879   4.843   1.400  13.877 -0.1287  0.6415  0.2582
17463TIP3    H173880   4.787   1.445  13.814 -1.2412 -0.6171  0.3100
17463TIP3    H273881   4.801   1.414  13.962  0.2553  0.6498  0.4486
17464TIP3   OH273882   5.469   6.432   5.120 -0.5700 -0.1909  0.1481
17464TIP3    H173883   5.547   6.481   5.146 -0.6039  0.2887 -0.6543
17464TIP3    H273884   5.503   6.360   5.066 -0.6514 -0.1468  0.0375
17465TIP3   OH273885   6.536   0.426   4.187 -0.3046 -0.1743 -0.2237
17465TIP3    H173886   6.562   0.487   4.117 -0.1982  0.0450  0.0055
17465TIP3    H273887   6.461   0.379   4.151 -0.3537  0.0561 -0.4238
17466TIP3   OH273888   3.448   3.117   4.131 -0.0790 -0.3101 -0.7646
17466TIP3    H173889   3.430   3.043   4.073  1.5297 -1.4557  0.1458
17466TIP3    H273890   3.529   3.156   4.096  0.8811 -0.9862  0.6676
17467TIP3   OH273891   6.309   4.636   1.828 -0.3140  0.0625  0.5852
17467TIP3    H173892   6.289   4.553   1.783 -0.3487  0.9470 -1.0793
17467TIP3    H273893   6.403   4.631   1.847 -0.1163  0.0317 -0.3724
17468TIP3   OH273894   0.025   3.930   2.707  0.3442  0.6334  0.4206
17468TIP3    H173895  -0.012   3.849   2.744 -0.5392 -0.0736 -1.9102
17468TIP3    H273896   0.061   3.976   2.782  0.6190 -1.8138  1.8489
17469TIP3   OH273897   0.759   1.382  15.105 -0.1770  0.1182 -0.4474
17469TIP3    H173898   0.713   1.323  15.164 -1.4938  0.7212 -0.8447
17469TIP3    H273899   0.833   1.331  15.072 -0.2952 -0.7144  0.5583
17470TIP3   OH273900   0.420   4.535   5.946 -0.0030 -0.3673  0.5982
17470TIP3    H173901   0.379   4.588   5.878  0.1845 -2.5975 -1.3050
17470TIP3    H273902   0.418   4.591   6.024 -0.3801  2.1787 -1.1633
17471TIP3   OH273903   1.984   6.753   3.193  0.2627 -0.6467 -1.0392
17471TIP3    H173904   1.972   6.776   3.285  0.9448 -1.6916 -0.6722
17471TIP3    H273905   1.965   6.659   3.190  3.6372 -1.3888 -1.2759
17472TIP3   OH273906   6.198   4.620  14.436 -0.5333 -0.0750  0.3814
17472TIP3    H173907   6.243   4.547  14.393 -0.8110 -0.2992  0.4718
17472TIP3    H273908   6.257   4.694  14.424 -2.2602  0.7708 -3.6578
17473TIP3   OH273909   6.534   1.961   5.019 -0.3068 -1.2527  0.4053
17473TIP3    H173910   6.592   2.016   5.071 -0.4092 -1.1000  0.3621
17473TIP3    H273911   6.464   1.936   5.079 -2.4557  1.9871 -0.5696
17474TIP3   OH273912   6.621   3.336  16.034  0.7264 -0.2332 -0.6795
17474TIP3    H173913   6.526   3.330  16.027  0.6449 -0.7032  0.8697
17474TIP3    H273914   6.643   3.419  15.990 -0.7093  1.4805  1.7584
17475TIP3   OH273915   3.596   3.461  11.144 -0.1849  0.4719  0.0257
17475TIP3    H173916   3.622   3.369  11.139  0.4495  0.6096  0.7284
17475TIP3    H273917   3.637   3.502  11.068 -1.0828  0.0340 -0.7081
17476TIP3   OH273918   1.485   3.300  12.166  0.2825  0.4126  0.0524
17476TIP3    H173919   1.495   3.210  12.136 -3.4067  0.0529 -0.3155
17476TIP3    H273920   1.478   3.352  12.085  2.1912  1.0425  0.2633
17477TIP3   OH273921   3.531   6.425  16.619  0.2689 -0.1139  0.4998
17477TIP3    H173922   3.444   6.404  16.584  0.3904  0.8538 -0.4082
17477TIP3    H273923   3.585   6.443  16.542  1.3288 -0.8779  1.0432
17478TIP3   OH273924   1.856   3.093   4.135  0.2680 -0.5916 -0.4909
17478TIP3    H173925   1.781   3.042   4.108  0.1833  0.3469 -2.1202
17478TIP3    H273926   1.879   3.145   4.058  1.1675  0.8212  0.6815
17479TIP3   OH273927   3.675   5.925  11.479 -0.1402  0.6709 -0.0976
17479TIP3    H173928   3.692   5.980  11.403  1.3298  1.1548  0.5449
17479TIP3    H273929   3.724   5.845  11.461 -0.2876  0.5448  0.0656
17480TIP3   OH273930   0.863   6.404   4.375  0.1009  0.4533  0.5665
17480TIP3    H173931   0.828   6.428   4.461  1.0719 -1.2694  1.4685
17480TIP3    H273932   0.924   6.474   4.354  0.5021  0.4545  1.6798
17481TIP3   OH273933   6.648   1.715  16.898  0.5497  0.0278 -0.2703
17481TIP3    H173934   6.626   1.639  16.844 -2.2174  0.1412  0.6181
17481TIP3    H273935   6.624   1.689  16.987 -0.0291  1.7680  0.1078
17482TIP3   OH273936   2.903   6.673  15.458  0.1837  0.6697 -0.5051
17482TIP3    H173937   2.873   6.612  15.391  0.0857  1.7598 -1.4680
17482TIP3    H273938   2.826   6.691  15.511  0.9185 -2.5646  1.8362
17483TIP3   OH273939   5.963   4.808   1.154 -0.1176  0.2012 -0.5422
17483TIP3    H173940   5.949   4.754   1.231  0.0374  0.3070 -0.4397
17483TIP3    H273941   5.888   4.789   1.097 -1.4473  1.8248  0.6216
17484TIP3   OH273942   6.021   3.928   0.545  0.2763 -0.3234 -0.7138
17484TIP3    H173943   6.097   3.875   0.568 -0.0228 -0.6287 -0.4238
17484TIP3    H273944   5.961   3.917   0.618 -0.3216 -0.6149 -1.2436
17485TIP3   OH273945   1.815   0.229  17.171 -0.8291 -0.2011  0.1807
17485TIP3    H173946   1.788   0.278  17.249 -1.3660  1.1830 -0.8521
17485TIP3    H273947   1.814   0.138  17.198 -1.4348  0.2361  1.6739
17486TIP3   OH273948   5.630   0.530  12.922 -0.1309  0.7598  0.0065
17486TIP3    H173949   5.685   0.601  12.888  1.5191  0.4567  1.9185
17486TIP3    H273950   5.647   0.457  12.863  0.5602  1.0398 -0.1474
17487TIP3   OH273951   6.455   0.211  15.019 -0.3321  0.6337 -0.2692
17487TIP3    H173952   6.376   0.255  14.988 -0.1608  0.5089 -0.8829
17487TIP3    H273953   6.423   0.127  15.053 -0.3210  0.0201 -1.7135
17488TIP3   OH273954   3.966   5.253   5.133  0.6015 -0.0945  0.0073
17488TIP3    H173955   3.913   5.182   5.096  1.2371 -0.4997 -0.1286
17488TIP3    H273956   4.018   5.285   5.059  0.6765  0.1842  0.1800
17489TIP3   OH273957   2.331   2.581   1.696 -0.0672  0.5893 -0.5444
17489TIP3    H173958   2.283   2.585   1.779  1.2850 -0.3866  0.3152
17489TIP3    H273959   2.267   2.549   1.633 -0.5065 -0.9435  0.6339
17490TIP3   OH273960   5.056   5.552   1.669  0.2358  0.0044 -0.3361
17490TIP3    H173961   5.132   5.563   1.726 -0.0105  0.8372 -0.1518
17490TIP3    H273962   5.091   5.545   1.581  0.4275  2.8162 -0.5355
17491TIP3   OH273963   5.714   1.555  15.725  0.7289 -0.3278  0.7743
17491TIP3    H173964   5.725   1.596  15.639 -3.8737 -0.3926  0.0203
17491TIP3    H273965   5.740   1.464  15.711  1.7555  0.0806 -0.0741
17492TIP3   OH273966   4.909   4.108  16.627 -0.0456  0.3493  0.2767
17492TIP3    H173967   4.836   4.134  16.572  1.0405  0.5696 -1.0757
17492TIP3    H273968   4.876   4.118  16.717 -1.5590  0.7257 -0.3118
17493TIP3   OH273969   6.819   1.068   5.265 -0.3925 -0.5591 -1.1128
17493TIP3    H173970   6.741   1.024   5.230 -1.3014 -0.8910  1.2444
17493TIP3    H273971   6.831   1.029   5.351  0.0796  2.2640  0.1446
17494TIP3   OH273972   4.816   5.048  16.117 -0.0707 -0.2727 -0.1306
17494TIP3    H173973   4.749   5.015  16.177 -0.9034  3.4369  1.1225
17494TIP3    H273974   4.775   5.046  16.031 -1.6890  1.5131  0.5616
17495TIP3   OH273975   6.212   5.401   4.826  0.1219 -0.1654  0.1561
17495TIP3    H173976   6.253   5.342   4.763 -0.8385 -1.1922  0.4837
17495TIP3    H273977   6.150   5.346   4.874  1.9158  0.2599  3.0573
17496TIP3   OH273978   3.294   1.682   2.161 -0.1184 -0.3464  0.1889
17496TIP3    H173979   3.283   1.747   2.230 -2.6692 -0.4204 -0.1037
17496TIP3    H273980   3.219   1.697   2.102  2.9672  0.9673 -3.6089
17497TIP3   OH273981   3.382   5.889  13.319 -0.6002 -0.1824  0.5201
17497TIP3    H173982   3.296   5.868  13.282 -0.9341  0.7178  0.7726
17497TIP3    H273983   3.362   5.931  13.403  0.0873  0.0459  0.5697
17498TIP3   OH273984   5.285   0.890   3.520 -0.2335 -0.4074  0.4585
17498TIP3    H173985   5.355   0.908   3.583  1.0788 -0.5461 -0.9340
17498TIP3    H273986   5.213   0.947   3.548  0.3424 -0.4130  2.0320
17499TIP3   OH273987   4.593   0.318  13.605 -0.0545  0.1494 -0.2731
17499TIP3    H173988   4.582   0.309  13.510 -2.1988 -0.3228 -0.0164
17499TIP3    H273989   4.543   0.397  13.627  1.2133  0.7965  0.3554
17500TIP3   OH273990   1.062   0.540  12.943  0.0473  0.2510 -0.1096
17500TIP3    H173991   1.131   0.578  12.997  0.6726 -1.0691  0.0216
17500TIP3    H273992   1.036   0.460  12.988  0.8328 -1.0645 -1.9163
17501TIP3   OH273993   0.198   6.602  12.651  0.2793  0.2063  0.4480
17501TIP3    H173994   0.182   6.696  12.652 -1.9060 -0.1246 -0.1777
17501TIP3    H273995   0.187   6.574  12.742  0.2330  0.4359  0.5114
17502TIP3   OH273996   5.347   1.276   3.278 -0.6739 -0.0221  0.6389
17502TIP3    H173997   5.324   1.343   3.213  0.6981 -0.6272 -0.4934
17502TIP3    H273998   5.425   1.234   3.242 -0.5218 -1.0807  2.1815
17503TIP3   OH273999   3.938   6.162  16.626  0.1958 -0.2255 -0.6500
17503TIP3    H174000   4.005   6.120  16.572 -0.1155 -2.2349  0.4738
17503TIP3    H274001   3.856   6.122  16.599 -0.7542  2.8905 -2.6610
17504TIP3   OH274002   1.641   1.589  11.469  0.2120 -0.1423  0.2035
17504TIP3    H174003   1.636   1.524  11.398 -0.3279 -1.1378  1.1258
17504TIP3    H274004   1.696   1.548  11.535 -0.4359  0.1778  0.9538
17505TIP3   OH274005   1.235   5.741  10.354  0.3594 -0.3039 -0.3122
17505TIP3    H174006   1.180   5.818  10.367  0.8852  0.0993 -0.4583
17505TIP3    H274007   1.192   5.692  10.284  0.8723  0.6628 -1.3228
17506TIP3   OH274008   2.126   5.884  16.364  0.3896  0.4126  0.1207
17506TIP3    H174009   2.149   5.951  16.300 -0.2119 -1.1538 -1.7808
17506TIP3    H274010   2.191   5.814  16.351  0.2029  0.0282  1.1616
17507TIP3   OH274011   4.189   5.796   3.975 -1.2328 -0.1918 -0.3518
17507TIP3    H174012   4.193   5.798   4.071  0.1977 -1.4649 -0.3716
17507TIP3    H274013   4.220   5.883   3.948  0.8428 -0.7121  0.2860
17508TIP3   OH274014   5.624   6.431   3.316 -0.0557  0.0899 -0.4805
17508TIP3    H174015   5.576   6.445   3.398 -0.3299 -0.7929 -0.4873
17508TIP3    H274016   5.563   6.383   3.260  0.7014 -0.7163 -0.6219
17509TIP3   OH274017   2.933   2.140  15.688 -0.3275 -0.5200  0.0198
17509TIP3    H174018   3.014   2.177  15.654 -0.8346  1.3866  0.8010
17509TIP3    H274019   2.959   2.057  15.728  0.8758 -0.9236 -1.5741
17510TIP3   OH274020   5.800   1.557  17.039 -0.3877 -0.3886  0.1935
17510TIP3    H174021   5.856   1.624  16.999 -2.7122 -0.0394 -2.6582
17510TIP3    H274022   5.819   1.563  17.133  2.4116  1.4686 -0.4189
17511TIP3   OH274023   0.846   6.055   5.593  0.0632  0.3419 -0.5241
17511TIP3    H174024   0.806   6.098   5.669  0.0250 -2.6194  1.1950
17511TIP3    H274025   0.783   6.070   5.522 -0.8095  1.5592  0.4692
17512TIP3   OH274026   4.918   2.229  10.841 -0.2056  0.0685  0.3938
17512TIP3    H174027   4.894   2.307  10.891 -1.0710 -0.2232  0.4464
17512TIP3    H274028   5.005   2.206  10.872 -0.1653  0.7005  0.7621
17513TIP3   OH274029   2.436   1.848   0.135  0.2499  0.1536  0.3926
17513TIP3    H174030   2.397   1.845   0.222  0.0208 -1.4487  0.2508
17513TIP3    H274031   2.368   1.885   0.079 -0.0645 -0.0206  0.6575
17514TIP3   OH274032   6.629   2.958  15.388 -0.2677 -0.2109 -0.0624
17514TIP3    H174033   6.701   2.944  15.450  0.8733 -0.0905 -1.3198
17514TIP3    H274034   6.592   2.872  15.374 -0.8380 -0.1708  1.1405
17515TIP3   OH274035   5.580   2.419  10.589  0.2425 -0.1834  0.0328
17515TIP3    H174036   5.673   2.428  10.571  0.2536  2.2434  1.0514
17515TIP3    H274037   5.545   2.372  10.513  2.0618  0.1294 -1.0293
17516TIP3   OH274038   4.791   0.861   1.676  0.6765 -0.1595  0.0540
17516TIP3    H174039   4.728   0.874   1.605 -0.8949  2.3669  1.8036
17516TIP3    H274040   4.776   0.771   1.705 -0.1948 -0.4848 -1.3532
17517TIP3   OH274041   3.198   1.020  15.081  0.2617 -0.3500 -0.1572
17517TIP3    H174042   3.155   1.088  15.030  0.0721 -1.3240 -1.2983
17517TIP3    H274043   3.279   1.062  15.112 -0.4130  0.7635  0.1477
17518TIP3   OH274044   5.961   1.652  12.441  0.0478  0.0940  0.1450
17518TIP3    H174045   5.991   1.567  12.410  0.7811  0.4268 -0.0796
17518TIP3    H274046   6.030   1.682  12.500 -0.2417  0.4938  0.2877
17519TIP3   OH274047   2.354   1.426  11.554  0.0750  0.4618  0.2520
17519TIP3    H174048   2.325   1.485  11.483 -1.5225  0.5176  0.9228
17519TIP3    H274049   2.392   1.351  11.508 -0.3489  0.7949 -0.6658
17520TIP3   OH274050   1.167   2.362   0.680  0.2879 -0.2382  0.4505
17520TIP3    H174051   1.092   2.338   0.735  0.2376 -0.8422  0.1138
17520TIP3    H274052   1.130   2.421   0.614 -0.3345 -2.2455 -1.0580
17521TIP3   OH274053   4.671   5.311  15.613 -0.2089  0.8384  0.5721
17521TIP3    H174054   4.587   5.349  15.638 -1.2044 -1.1154  0.2725
17521TIP3    H274055   4.694   5.356  15.532 -1.3676  0.8144  0.2215
17522TIP3   OH274056   3.051   1.819  16.456  0.0785 -0.5696 -0.4433
17522TIP3    H174057   2.972   1.874  16.462 -0.9022 -1.7688 -1.8671
17522TIP3    H274058   3.069   1.814  16.362  2.3451  0.3485 -0.0719
17523TIP3   OH274059   3.443   2.681   0.581  0.0934  0.0123 -0.2856
17523TIP3    H174060   3.347   2.679   0.576 -0.0273  1.2095  1.3017
17523TIP3    H274061   3.466   2.772   0.565  1.0349 -0.3840 -1.2900
17524TIP3   OH274062   4.796   3.449  14.209  0.3286 -0.2497 -0.1081
17524TIP3    H174063   4.712   3.437  14.253  0.8061 -3.0102  0.1384
17524TIP3    H274064   4.822   3.361  14.181  2.5603  0.7151 -1.2607
17525TIP3   OH274065   3.633   1.661   0.239  0.5774 -0.4380 -0.2775
17525TIP3    H174066   3.646   1.603   0.315 -2.3492 -1.7485 -0.7098
17525TIP3    H274067   3.582   1.734   0.274  1.8759  0.5393 -0.3608
17526TIP3   OH274068   6.516   6.033  15.816 -0.1921  0.2599  0.1970
17526TIP3    H174069   6.587   6.097  15.826  0.2474 -0.2235  0.1530
17526TIP3    H274070   6.514   6.014  15.722 -0.3150  0.2032  0.2108
17527TIP3   OH274071   4.436   2.066  15.944  0.2640  0.1162 -0.7827
17527TIP3    H174072   4.376   2.046  16.017  0.2327  1.0652 -0.5497
17527TIP3    H274073   4.474   1.981  15.921  0.8477 -0.0848  0.8385
17528TIP3   OH274074   6.462   4.666  12.529 -0.7300  0.2463 -0.1074
17528TIP3    H174075   6.367   4.676  12.534 -0.6369  0.9457  0.2619
17528TIP3    H274076   6.488   4.642  12.618 -0.5802 -0.0896 -0.2423
17529TIP3   OH274077   3.371   2.320  13.900  0.1574  0.3000  0.4497
17529TIP3    H174078   3.408   2.398  13.941 -0.4578  2.2140 -2.4662
17529TIP3    H274079   3.276   2.334  13.904  0.0813  0.7850 -1.9432
17530TIP3   OH274080   3.072   0.418   6.383 -0.6794  0.1908 -0.4313
17530TIP3    H174081   3.050   0.481   6.451 -1.0044 -2.0621  1.6401
17530TIP3    H274082   3.164   0.396   6.398 -1.3713 -2.0606  0.8393
17531TIP3   OH274083   5.311   4.219  13.268  0.0301 -0.5583  1.0243
17531TIP3    H174084   5.269   4.305  13.274  2.7655  0.8346  0.8951
17531TIP3    H274085   5.276   4.181  13.187  0.0394  1.1114  0.2193
17532TIP3   OH274086   0.194   4.873   4.930  0.0640  0.1755 -0.1302
17532TIP3    H174087   0.146   4.794   4.904  2.2744 -0.6824 -1.8008
17532TIP3    H274088   0.148   4.904   5.008 -1.9442 -1.7310 -0.4799
17533TIP3   OH274089   5.311   5.477   3.233  0.3083 -0.4526  0.5075
17533TIP3    H174090   5.337   5.420   3.305  0.6233 -1.5347 -0.4426
17533TIP3    H274091   5.235   5.434   3.195  1.3605 -0.9814 -1.0643
17534TIP3   OH274092   1.869   4.321   6.021 -0.3769 -0.1612  0.2335
17534TIP3    H174093   1.799   4.315   6.086 -1.3858 -0.9174 -0.8818
17534TIP3    H274094   1.854   4.247   5.963 -1.5266  2.3014 -2.7746
17535TIP3   OH274095   2.931   1.364  11.287  0.9634  0.4179  0.0470
17535TIP3    H174096   2.933   1.431  11.355  0.4305  1.3429 -0.8374
17535TIP3    H274097   2.990   1.397  11.219  1.0271 -0.2154 -0.2064
17536TIP3   OH274098   4.565   0.416  14.604  0.5074  0.0740  0.5535
17536TIP3    H174099   4.639   0.359  14.582  1.0653  1.1996 -0.4711
17536TIP3    H274100   4.538   0.385  14.691  1.1460 -1.4025  0.2571
17537TIP3   OH274101   5.867   0.703   1.141 -0.2199 -0.1934 -0.0323
17537TIP3    H174102   5.795   0.710   1.079  1.2182  1.2577 -1.5874
17537TIP3    H274103   5.913   0.623   1.116 -1.4398 -1.2792  1.1476
17538TIP3   OH274104   4.484   4.044   0.468 -0.4904  0.0482  0.0046
17538TIP3    H174105   4.410   4.054   0.409 -1.1225 -1.0236  0.6124
17538TIP3    H274106   4.554   4.096   0.427 -0.7014 -1.2205 -2.0521
17539TIP3   OH274107   5.453   0.267   0.564  0.3904 -0.4053  0.0419
17539TIP3    H174108   5.440   0.339   0.626 -3.0135 -0.6302 -0.3039
17539TIP3    H274109   5.509   0.304   0.496 -1.7728  2.1349 -0.4395
17540TIP3   OH274110   4.634   3.767  11.725  0.0048 -0.2680 -0.0927
17540TIP3    H174111   4.662   3.727  11.807 -0.4051  1.1479  0.7495
17540TIP3    H274112   4.656   3.702  11.658 -0.7798 -1.9593  1.2468
17541TIP3   OH274113   6.134   0.741  15.196  0.8318  0.4081 -0.0678
17541TIP3    H174114   6.141   0.835  15.181  2.1270  0.8280  2.8939
17541TIP3    H274115   6.224   0.712  15.209  0.3216 -1.0094  0.4136
17542TIP3   OH274116   0.220   2.096  16.180  0.3060 -0.4954  0.2095
17542TIP3    H174117   0.239   2.008  16.212 -0.4843 -0.5362  0.6075
17542TIP3    H274118   0.183   2.083  16.093 -1.0062 -0.6670  0.7696
17543TIP3   OH274119   6.599   4.017   5.745 -0.5124 -0.4058  0.2779
17543TIP3    H174120   6.689   3.999   5.772 -0.9856 -2.3789  0.6594
17543TIP3    H274121   6.547   3.994   5.822 -1.3954 -0.0258 -0.2071
17544TIP3   OH274122   2.779   0.869  11.781 -0.8450  0.3904 -0.3856
17544TIP3    H174123   2.764   0.951  11.828 -1.0389 -0.3810  0.9244
17544TIP3    H274124   2.868   0.843  11.805 -0.8820  0.0816 -0.5767
17545TIP3   OH274125   2.033   5.133  14.936  0.2242 -0.1483 -0.1441
17545TIP3    H174126   1.997   5.094  14.856  2.5127  0.3444 -1.4399
17545TIP3    H274127   2.072   5.215  14.907 -1.2508  1.3351  1.9479
17546TIP3   OH274128   1.283   2.096  13.938 -0.4545 -0.2595 -0.3124
17546TIP3    H174129   1.238   2.173  13.902 -3.5806 -1.2220  1.3697
17546TIP3    H274130   1.317   2.050  13.861 -0.5517  1.5546 -1.4831
17547TIP3   OH274131   1.430   2.513   2.442  0.2096  0.7849  0.3283
17547TIP3    H174132   1.516   2.475   2.461  0.0279  0.8067  1.1959
17547TIP3    H274133   1.450   2.599   2.405  0.5841  0.4018 -0.3794
17548TIP3   OH274134   6.662   4.034   2.541 -0.9016  0.2528  0.2918
17548TIP3    H174135   6.703   4.054   2.457 -1.0994 -1.9778 -0.3728
17548TIP3    H274136   6.732   3.997   2.595 -0.7718  1.6806  1.1332
17549TIP3   OH274137   3.214   4.992  16.707 -0.0926 -0.0429 -0.3509
17549TIP3    H174138   3.273   4.965  16.637  1.3222  0.3608  0.6511
17549TIP3    H274139   3.204   5.086  16.695  0.8119  0.1641  0.4656
17550TIP3   OH274140   2.743   1.526   0.640  0.0180  0.1211 -0.2959
17550TIP3    H174141   2.740   1.481   0.725 -0.1507 -1.1433 -0.9722
17550TIP3    H274142   2.699   1.467   0.579  2.6526 -0.2825 -1.8760
17551TIP3   OH274143   4.340   5.783  15.348  0.0580  0.4785 -0.3947
17551TIP3    H174144   4.332   5.692  15.321 -2.5741  0.4734  0.2435
17551TIP3    H274145   4.423   5.812  15.310  1.2693 -2.3455 -0.0490
17552TIP3   OH274146   2.761   1.009   6.890  0.3910 -0.3198 -0.1327
17552TIP3    H174147   2.728   1.065   6.960  0.8344  0.6023 -0.6629
17552TIP3    H274148   2.837   0.965   6.929 -0.6542 -1.4544  0.6620
17553TIP3   OH274149   4.857   0.854   4.363  0.0350 -0.4118 -0.4579
17553TIP3    H174150   4.878   0.940   4.326  1.6774 -0.5379  0.1235
17553TIP3    H274151   4.818   0.805   4.290  1.1841  0.0710 -1.4090
17554TIP3   OH274152   2.139   6.028   5.063 -0.3027  0.4562  0.2957
17554TIP3    H174153   2.055   5.982   5.072  0.0656 -0.3630 -0.4565
17554TIP3    H274154   2.140   6.089   5.138 -1.3925  0.2080  0.5314
17555TIP3   OH274155   6.421   3.797   6.186  0.4337 -0.1041  0.2270
17555TIP3    H174156   6.433   3.878   6.236  1.9183  1.4061 -2.4914
17555TIP3    H274157   6.330   3.773   6.200 -0.4562  2.9002 -0.1760
17556TIP3   OH274158   6.614   3.936   1.399 -0.3393 -0.2418 -0.2270
17556TIP3    H174159   6.541   3.921   1.339  0.2098 -2.2850 -0.4193
17556TIP3    H274160   6.618   3.857   1.453  0.9216  0.3887  0.6450
17557TIP3   OH274161   2.939   6.714  12.551  0.2098 -0.3878  0.4335
17557TIP3    H174162   2.886   6.680  12.479 -0.9330 -0.6576  1.3716
17557TIP3    H274163   3.029   6.698  12.525 -0.0505  2.2204 -2.2670
17558TIP3   OH274164   2.049   6.370  17.090  0.0846 -0.2034  0.1446
17558TIP3    H174165   1.994   6.304  17.048  1.3908 -0.9091 -0.4804
17558TIP3    H274166   2.030   6.451  17.041  1.6741 -1.0369 -1.9313
17559TIP3   OH274167   6.643   5.461   5.013 -0.1415 -0.2067 -0.4043
17559TIP3    H174168   6.573   5.442   4.951  0.0596  0.5835 -0.8841
17559TIP3    H274169   6.599   5.503   5.087 -0.6136 -2.6211  0.7426
17560TIP3   OH274170   3.648   1.818  12.835  0.4730  0.6071 -0.0166
17560TIP3    H174171   3.643   1.866  12.918  0.8572  0.6986 -0.0452
17560TIP3    H274172   3.740   1.825  12.809 -0.6551  5.0403 -3.1567
17561TIP3   OH274173   3.957   0.723   5.546 -0.0659 -0.6395 -0.4059
17561TIP3    H174174   4.013   0.800   5.547  0.5648 -1.0969 -0.8012
17561TIP3    H274175   3.922   0.718   5.635  1.9710 -1.4231  0.3641
17562TIP3   OH274176   1.282   2.952   1.461 -0.2325  0.0929  0.0530
17562TIP3    H174177   1.348   2.949   1.391 -0.5285  0.6829 -0.2592
17562TIP3    H274178   1.242   3.039   1.452 -0.6083 -0.0155  0.6498
17563TIP3   OH274179   5.811   5.747   2.868 -0.3952 -0.0970  0.2192
17563TIP3    H174180   5.849   5.684   2.808 -1.5157 -1.4176  0.8491
17563TIP3    H274181   5.724   5.766   2.832 -1.7566 -2.1956  2.2559
17564TIP3   OH274182   1.415   3.557  11.628  0.2275  0.4494  0.0393
17564TIP3    H174183   1.383   3.571  11.538  0.7799  2.1032  0.0682
17564TIP3    H274184   1.336   3.561  11.682  0.2438  2.8353 -0.0565
17565TIP3   OH274185   3.653   4.172   3.631 -0.3029 -0.2573 -0.4426
17565TIP3    H174186   3.597   4.132   3.697  0.0470 -0.4215 -0.2486
17565TIP3    H274187   3.637   4.266   3.639 -0.7850 -0.3215 -0.5978
17566TIP3   OH274188   3.024   6.244   1.713 -0.5014 -0.3594  0.5451
17566TIP3    H174189   3.000   6.236   1.805 -1.8369 -0.6255  0.1967
17566TIP3    H274190   2.990   6.329   1.686 -0.5517 -0.4882  0.1884
17567TIP3   OH274191   1.174   5.393  10.439 -0.3171 -0.2602  0.2064
17567TIP3    H174192   1.122   5.322  10.475 -0.7982 -0.0854 -0.1365
17567TIP3    H274193   1.199   5.363  10.352 -0.2237 -0.1548  0.1972
17568TIP3   OH274194   6.108   5.145   3.389  0.4527 -0.2851  0.6543
17568TIP3    H174195   6.061   5.062   3.387  0.4003 -0.2644  1.0760
17568TIP3    H274196   6.046   5.206   3.429  0.4277 -0.0036  0.1936
17569TIP3   OH274197   0.481   1.872   6.459 -0.0092  0.6697 -0.1389
17569TIP3    H174198   0.396   1.884   6.418 -0.7552  2.0749  1.7505
17569TIP3    H274199   0.503   1.958   6.495  1.7949  0.1082  0.1571
17570TIP3   OH274200   6.472   5.325   1.230 -0.1233 -0.6687 -0.0446
17570TIP3    H174201   6.478   5.259   1.299 -1.2738 -0.4395  0.2893
17570TIP3    H274202   6.381   5.321   1.201 -0.1485  0.5958 -0.1811
17571TIP3   OH274203   4.200   3.520   2.665 -0.3428 -0.4107  0.2394
17571TIP3    H174204   4.140   3.485   2.599 -0.0250 -0.3206 -0.0975
17571TIP3    H274205   4.285   3.479   2.645  0.0354  0.5608 -0.1732
17572TIP3   OH274206   5.390   3.187   2.444 -0.2450 -0.0411  0.4251
17572TIP3    H174207   5.437   3.127   2.501 -1.6262 -0.0366  1.6130
17572TIP3    H274208   5.323   3.133   2.402 -0.9829  0.4772  0.8996
17573TIP3   OH274209   2.956   0.501   1.554  0.1500 -0.1551 -0.1334
17573TIP3    H174210   2.893   0.430   1.562  1.6704 -1.8779 -2.8537
17573TIP3    H274211   3.041   0.460   1.569  0.9874  1.2456 -0.9007
17574TIP3   OH274212   3.523   4.624   4.545 -0.2790  0.2547  0.3691
17574TIP3    H174213   3.537   4.717   4.566 -1.3632  0.4472  0.2832
17574TIP3    H274214   3.477   4.626   4.461  1.9859 -0.4445 -0.9102
17575TIP3   OH274215   6.093   2.204   1.407 -0.2091  0.3122 -0.0907
17575TIP3    H174216   6.175   2.251   1.417  0.3070 -0.3629 -1.1386
17575TIP3    H274217   6.041   2.232   1.483  0.8846  0.9141  0.4577
17576TIP3   OH274218   6.089   1.582   4.092 -0.2831  0.0623  0.4827
17576TIP3    H174219   6.147   1.640   4.142  0.9943  1.0038 -2.0160
17576TIP3    H274220   6.094   1.498   4.137  2.2019  0.4185  0.9024
17577TIP3   OH274221   5.499   6.421  14.361  0.2546  0.2021 -0.1349
17577TIP3    H174222   5.589   6.396  14.381  0.6519  0.6979 -1.2433
17577TIP3    H274223   5.452   6.337  14.353  0.6917 -0.0673  0.1323
17578TIP3   OH274224   4.245   0.092   4.309  0.1107 -0.4416  0.0029
17578TIP3    H174225   4.308   0.030   4.345  0.2011 -0.5999 -0.4335
17578TIP3    H274226   4.292   0.175   4.306  0.2806 -0.5462 -0.2625
17579TIP3   OH274227   4.234   3.059  14.629  0.2969  0.0278 -0.3322
17579TIP3    H174228   4.161   3.046  14.690  0.3716  0.4594 -0.1473
17579TIP3    H274229   4.207   3.014  14.549 -0.2320  0.2936 -0.3064
17580TIP3   OH274230   4.764   0.765  14.421 -0.0482  0.3932  0.2492
17580TIP3    H174231   4.847   0.805  14.447  1.6903 -1.5855 -2.0089
17580TIP3    H274232   4.755   0.788  14.328 -2.4162  1.2060  0.6554
17581TIP3   OH274233   1.927   0.175   4.545 -0.4228 -0.1100 -0.0031
17581TIP3    H174234   1.852   0.182   4.604 -0.7283  1.6674 -0.5957
17581TIP3    H274235   1.894   0.126   4.470 -0.6136 -0.5190  0.3472
17582TIP3   OH274236   2.606   0.960   5.834  0.0966 -0.0196  0.3463
17582TIP3    H174237   2.611   0.893   5.766  0.1901 -1.0544  1.3509
17582TIP3    H274238   2.691   0.955   5.879 -0.5300 -0.3942  1.5040
17583TIP3   OH274239   2.230   0.587  11.156  0.1392  0.0972 -0.1459
17583TIP3    H174240   2.286   0.542  11.219  0.9832 -1.2110 -1.8190
17583TIP3    H274241   2.158   0.526  11.140 -0.1112  0.4613 -0.4201
17584TIP3   OH274242   1.714   4.507   5.295  0.0834 -0.1423 -0.0225
17584TIP3    H174243   1.737   4.578   5.355 -0.0467  0.8565 -1.1306
17584TIP3    H274244   1.763   4.431   5.326  0.4417  0.5130  1.0094
17585TIP3   OH274245   4.616   3.205  12.091 -0.3136 -0.3868 -0.0633
17585TIP3    H174246   4.531   3.166  12.110 -0.6493 -0.2661 -1.2258
17585TIP3    H274247   4.673   3.131  12.068  0.3302 -0.6172  2.1777
17586TIP3   OH274248   4.452   0.182  12.930  0.8090 -0.6018  0.0408
17586TIP3    H174249   4.451   0.105  12.874  1.1703  0.0724 -0.9094
17586TIP3    H274250   4.519   0.164  12.996  1.0202 -1.0280 -0.2915
17587TIP3   OH274251   4.486   4.715   5.230 -0.6821  0.2715  0.3630
17587TIP3    H174252   4.493   4.630   5.274 -0.0148  0.8086  1.3114
17587TIP3    H274253   4.405   4.753   5.263 -0.6030  0.3158  0.5092
17588TIP3   OH274254   3.873   3.270   5.642 -0.1013 -0.1227 -0.3059
17588TIP3    H174255   3.806   3.300   5.580 -1.5654  0.3155  1.4549
17588TIP3    H274256   3.901   3.185   5.607 -1.3304 -0.1610 -1.2434
17589TIP3   OH274257   5.876   2.538  13.700  0.3995 -0.7906  0.4518
17589TIP3    H174258   5.882   2.517  13.607  0.8605 -2.2483  0.7986
17589TIP3    H274259   5.813   2.610  13.705  1.0965 -0.0569 -1.0843
17590TIP3   OH274260   2.458   2.686  13.373  0.1244 -0.1881  0.1475
17590TIP3    H174261   2.462   2.653  13.283 -1.1722 -0.6425  0.2382
17590TIP3    H274262   2.520   2.759  13.375  0.7334 -0.6660 -0.9049
17591TIP3   OH274263   3.177   1.546   5.789 -0.6251 -0.0074  0.1278
17591TIP3    H174264   3.129   1.594   5.856 -2.1158 -1.1049 -0.1254
17591TIP3    H274265   3.243   1.496   5.837 -0.7582  0.3096  0.6378
17592TIP3   OH274266   2.900   0.200   3.559  0.1430  0.0802  0.2387
17592TIP3    H174267   2.832   0.250   3.515 -0.5794  0.1252  1.3845
17592TIP3    H274268   2.852   0.129   3.604  1.0641 -1.1701 -0.7154
17593TIP3   OH274269   1.457   3.050  12.967 -0.2231 -0.1216  0.1525
17593TIP3    H174270   1.411   2.993  13.028  0.7497  0.0880  1.0911
17593TIP3    H274271   1.405   3.046  12.886 -1.6547 -0.1836  1.0682
17594TIP3   OH274272   5.413   5.044  13.620 -0.0113 -0.1691 -0.0968
17594TIP3    H174273   5.491   4.992  13.600 -1.3250 -2.4248  0.3784
17594TIP3    H274274   5.343   5.001  13.571 -1.3355  0.5365  1.1311
17595TIP3   OH274275   4.540   4.318  14.177  0.2145 -0.0163 -0.1968
17595TIP3    H174276   4.593   4.385  14.134  0.1211  0.4926  0.4756
17595TIP3    H274277   4.450   4.347  14.162  0.2096  0.9956  1.6458
17596TIP3   OH274278   1.740   5.155   1.954 -0.0722 -0.1983 -0.5085
17596TIP3    H174279   1.799   5.223   1.986 -1.0537  0.7103 -0.6055
17596TIP3    H274280   1.768   5.076   1.999 -0.1176  0.6545  1.0572
17597TIP3   OH274281   5.140   4.071  12.096 -0.0478  0.3310  0.4498
17597TIP3    H174282   5.159   4.152  12.143  2.3986  0.8706 -1.3674
17597TIP3    H274283   5.197   4.006  12.136 -1.3653 -0.3347  1.3080
17598TIP3   OH274284   2.857   4.292  11.902 -0.0777 -0.4599  0.5537
17598TIP3    H174285   2.842   4.247  11.985  1.4896 -1.6387  0.2331
17598TIP3    H274286   2.892   4.377  11.927 -2.6689  0.4735  1.1569
17599TIP3   OH274287   5.356   5.965  12.855  0.0292  0.1121 -0.0591
17599TIP3    H174288   5.399   5.957  12.770  0.1411 -0.0846  0.0149
17599TIP3    H274289   5.371   6.056  12.882 -4.0226  1.5784 -2.3839
17600TIP3   OH274290   0.655   1.265   6.691 -0.1238 -0.0147  0.0920
17600TIP3    H174291   0.745   1.242   6.669  0.1464  0.5134  0.6485
17600TIP3    H274292   0.658   1.357   6.716 -0.9659  0.2350 -0.6972
17601TIP3   OH274293   3.593   4.412  16.709 -0.5263 -0.2181  0.1343
17601TIP3    H174294   3.581   4.405  16.614  0.8997 -0.2091 -0.0551
17601TIP3    H274295   3.659   4.481  16.719 -0.7889 -0.1160  1.1402
17602TIP3   OH274296   0.280   4.060  13.323  0.0334 -0.6006  0.1935
17602TIP3    H174297   0.237   3.975  13.312  0.0801 -0.2114 -3.4071
17602TIP3    H274298   0.208   4.123  13.329  0.0288 -0.5817 -0.0551
17603TIP3   OH274299   0.281   1.619  11.895  0.4405  0.1300  0.0971
17603TIP3    H174300   0.323   1.569  11.824 -0.1598 -1.2428  0.6905
17603TIP3    H274301   0.309   1.709  11.880  1.3110 -0.3300 -1.1764
17604TIP3   OH274302   4.868   1.761   3.430 -0.5224  0.2207 -0.2890
17604TIP3    H174303   4.868   1.682   3.484  0.4621 -0.2158 -0.9315
17604TIP3    H274304   4.775   1.787   3.427 -0.6052  0.1850  1.4998
17605TIP3   OH274305   4.179   3.003  15.264 -0.3389  0.5264  0.0059
17605TIP3    H174306   4.200   2.910  15.266 -0.5660  0.4310 -1.9503
17605TIP3    H274307   4.175   3.026  15.172 -1.1276  2.2980  0.4484
17606TIP3   OH274308   4.293   0.641  12.658 -0.1699  0.0915 -0.1225
17606TIP3    H174309   4.214   0.611  12.614  1.2275 -2.2539 -1.1216
17606TIP3    H274310   4.339   0.693  12.593 -1.4557  2.5796  0.8710
17607TIP3   OH274311   5.817   0.702   5.409 -0.1014  0.0094  0.5160
17607TIP3    H174312   5.779   0.633   5.356 -0.8744 -0.3037  1.4613
17607TIP3    H274313   5.741   0.748   5.447  0.3784  1.8683 -0.7329
17608TIP3   OH274314   6.721   1.625  15.515 -0.5083 -0.0449  0.0804
17608TIP3    H174315   6.745   1.713  15.542 -0.3114 -0.6298  1.8865
17608TIP3    H274316   6.635   1.611  15.554  0.2703 -1.3267  1.3812
17609TIP3   OH274317   4.738   5.670   5.930 -0.2124 -0.8013 -0.7689
17609TIP3    H174318   4.720   5.673   5.836 -1.6235 -0.3048 -0.5037
17609TIP3    H274319   4.788   5.590   5.943 -0.3040 -1.0471 -1.8929
17610TIP3   OH274320   4.673   0.408  11.748 -0.0850  0.0233  0.0863
17610TIP3    H174321   4.688   0.496  11.714 -0.4887  0.5274  1.1950
17610TIP3    H274322   4.625   0.363  11.678 -2.9723  1.7556  0.8621
17611TIP3   OH274323   3.861   0.164  16.877  0.0278 -0.2535  0.2885
17611TIP3    H174324   3.885   0.073  16.859  0.3782  0.0330 -0.7352
17611TIP3    H274325   3.786   0.181  16.820 -0.1302  0.0478  0.5838
17612TIP3   OH274326   3.190   3.333   3.484  0.1493  0.2061 -0.5666
17612TIP3    H174327   3.206   3.389   3.560  0.2542  1.0881 -1.2372
17612TIP3    H274328   3.264   3.350   3.425 -0.0047 -0.3672 -0.9285
17613TIP3   OH274329   0.971   4.579   0.379 -0.0261  0.4486 -0.0820
17613TIP3    H174330   0.966   4.667   0.341  1.5369 -0.2131 -1.9240
17613TIP3    H274331   1.015   4.591   0.463 -0.1893  1.4820 -0.1390
17614TIP3   OH274332   2.654   3.145  17.265  0.1392  0.8379 -0.1145
17614TIP3    H174333   2.713   3.200  17.212 -0.0712  0.8930 -0.2922
17614TIP3    H274334   2.697   3.139  17.350  0.3910  0.8987 -0.2385
17615TIP3   OH274335   1.285   6.296  17.120  0.9193  0.4088 -0.3793
17615TIP3    H174336   1.200   6.273  17.082  1.8123 -0.8238 -1.6839
17615TIP3    H274337   1.302   6.385  17.088 -0.6591  1.3508  1.3130
17616TIP3   OH274338   1.399   5.771   1.512  0.2864 -0.3865 -0.1299
17616TIP3    H174339   1.340   5.846   1.503  0.2280 -0.5092 -0.7792
17616TIP3    H274340   1.375   5.713   1.440  0.9917 -0.5814 -0.2115
17617TIP3   OH274341   0.571   3.471   0.354  0.1081  0.1294  0.1390
17617TIP3    H174342   0.651   3.483   0.406 -0.0377  1.9256 -0.0110
17617TIP3    H274343   0.564   3.377   0.342  0.3694 -0.2888  3.0097
17618TIP3   OH274344   6.250   6.714   3.986 -0.2540 -0.5078 -0.2799
17618TIP3    H174345   6.322   6.655   3.964  0.4107  0.6870 -1.4425
17618TIP3    H274346   6.205   6.672   4.059  1.6661 -1.2374  0.5122
17619TIP3   OH274347   2.939   1.655  16.892  0.1949  0.1361  0.8373
17619TIP3    H174348   2.883   1.721  16.933  0.0483 -0.5992  1.8176
17619TIP3    H274349   2.983   1.703  16.821 -1.6454  0.7123  0.0705
17620TIP3   OH274350   4.653   3.290   2.554 -0.3664 -0.6029  0.3042
17620TIP3    H174351   4.668   3.286   2.649  1.3926  0.7511  0.1185
17620TIP3    H274352   4.558   3.288   2.544 -0.5509 -1.1951  2.0780
17621TIP3   OH274353   4.637   3.130  14.892 -0.0860 -0.0082  0.4415
17621TIP3    H174354   4.597   3.044  14.899 -0.7010  0.3635  1.6855
17621TIP3    H274355   4.573   3.184  14.847  0.9003 -0.5564 -1.6638
17622TIP3   OH274356   1.271   0.584  11.488  0.3889  0.1926 -0.0170
17622TIP3    H174357   1.351   0.630  11.513  0.5683  0.2486 -0.6771
17622TIP3    H274358   1.214   0.652  11.452 -0.5959  0.4242  1.9442
17623TIP3   OH274359   3.744   4.927   2.926 -0.2030 -0.2985  0.2018
17623TIP3    H174360   3.757   4.868   3.001 -0.6056  2.1491  2.2777
17623TIP3    H274361   3.736   4.868   2.851  0.1774 -2.8514  2.0636
17624TIP3   OH274362   2.804   0.530   6.006 -0.1356 -0.3934 -0.2042
17624TIP3    H174363   2.835   0.554   5.919  1.3421  0.8537  0.6464
17624TIP3    H274364   2.865   0.463   6.037 -1.0746 -1.3591 -0.3841
17625TIP3   OH274365   5.252   1.528   0.652  0.6115  0.5840 -0.2513
17625TIP3    H174366   5.307   1.598   0.686 -0.6282  1.5923 -0.2939
17625TIP3    H274367   5.243   1.467   0.725  1.3029  0.6917 -0.0690
17626TIP3   OH274368   1.202   2.943  15.613  0.1879 -0.5298 -0.5413
17626TIP3    H174369   1.157   3.027  15.610 -1.5525 -1.5004 -2.5943
17626TIP3    H274370   1.286   2.959  15.569 -0.9942 -0.3310 -2.7942
17627TIP3   OH274371   5.504   2.375   6.634  0.0850  0.3315 -0.2717
17627TIP3    H174372   5.504   2.339   6.545 -0.2894  1.2040 -0.6340
17627TIP3    H274373   5.499   2.298   6.691  0.6298 -0.2549 -0.9920
17628TIP3   OH274374   2.171   5.360  17.016 -0.5714  0.0843 -0.1263
17628TIP3    H174375   2.245   5.421  17.016  0.3022 -0.9677  0.0275
17628TIP3    H274376   2.131   5.371  16.930 -0.6867  1.1960  0.0664
17629TIP3   OH274377   2.999   5.815  10.318  0.2543 -0.1228 -0.7142
17629TIP3    H174378   3.036   5.893  10.277  1.1589 -1.8138 -3.1951
17629TIP3    H274379   2.943   5.776  10.251 -0.0665 -1.7058  0.4357
17630TIP3   OH274380   1.016   0.000  14.026  0.3223  0.5226  0.5740
17630TIP3    H174381   1.106  -0.030  14.020 -0.1121 -0.6131 -0.5292
17630TIP3    H274382   0.998   0.006  14.119  0.8259 -1.4430  0.8018
17631TIP3   OH274383   5.386   5.840  10.924  0.1743 -0.2023 -0.0598
17631TIP3    H174384   5.394   5.934  10.940  2.4011 -0.6402  1.6854
17631TIP3    H274385   5.337   5.806  10.998  0.7763 -0.6427  0.1432
17632TIP3   OH274386   6.037   1.959   2.770 -1.1054  0.5061 -0.5437
17632TIP3    H174387   6.106   2.025   2.772 -2.0681  1.5101  0.3067
17632TIP3    H274388   6.060   1.903   2.696  0.3400  1.1211 -0.5808
17633TIP3   OH274389   4.888   2.530  16.557 -0.2523 -0.2720 -0.2696
17633TIP3    H174390   4.890   2.610  16.504 -0.8252  0.6290  1.0544
17633TIP3    H274391   4.934   2.552  16.637  0.3186 -1.5378 -0.2399
17634TIP3   OH274392   5.091   0.739   2.849 -0.1135  0.2845 -0.2730
17634TIP3    H174393   5.006   0.781   2.839 -0.3318 -0.2083 -0.5525
17634TIP3    H274394   5.124   0.770   2.933 -0.6495  0.3467 -0.0817
17635TIP3   OH274395   4.991   4.426  12.208 -0.1914 -0.1304 -0.4135
17635TIP3    H174396   4.929   4.424  12.134 -1.5700  1.7077  0.6501
17635TIP3    H274397   4.959   4.358  12.267 -2.9471  2.6033  1.4193
17636TIP3   OH274398   3.714   5.885   6.677  0.0251 -0.1647 -0.4329
17636TIP3    H174399   3.726   5.794   6.653  0.3622  0.4288 -2.5993
17636TIP3    H274400   3.630   5.910   6.637  0.1032  0.5685 -0.1506
17637TIP3   OH274401   1.205   2.898  16.171  0.4582  0.2349  0.6250
17637TIP3    H174402   1.177   2.807  16.160 -0.3398  0.5734 -0.2321
17637TIP3    H274403   1.246   2.920  16.087 -0.0935  0.9256  0.5350
17638TIP3   OH274404   4.962   3.366   1.870  0.1968  0.4941  0.3859
17638TIP3    H174405   5.044   3.317   1.870 -0.8240 -1.3254 -1.0324
17638TIP3    H274406   4.909   3.323   1.802 -1.4690  2.3831  0.4339
17639TIP3   OH274407   6.542   5.983  11.879  0.9668  0.2606  0.1968
17639TIP3    H174408   6.520   6.038  11.954 -1.5412  0.4582 -0.6315
17639TIP3    H274409   6.538   6.042  11.804 -1.0977 -0.8607 -0.6248
17640TIP3   OH274410   4.578   2.670   3.957  0.3350  0.3723  0.1196
17640TIP3    H174411   4.512   2.623   4.008  0.0049 -0.4182 -1.0417
17640TIP3    H274412   4.562   2.763   3.977 -2.1439  0.3021 -1.3525
17641TIP3   OH274413   6.583   3.597  12.938  0.1164 -0.6666  0.2360
17641TIP3    H174414   6.525   3.557  13.003 -1.4947  0.9030 -0.1951
17641TIP3    H274415   6.671   3.581  12.971 -0.6201 -1.4713  1.8697
17642TIP3   OH274416   1.459   0.926   3.704 -0.3755  0.0436  0.5379
17642TIP3    H174417   1.508   0.998   3.664  1.4950 -1.8951 -0.7563
17642TIP3    H274418   1.443   0.955   3.794  0.4072  2.0452  0.0581
17643TIP3   OH274419   0.392   5.613  17.238  0.1512  0.1045 -0.4920
17643TIP3    H174420   0.477   5.574  17.258  0.7920  1.5291 -0.4009
17643TIP3    H274421   0.369   5.577  17.153  1.2002  0.2765 -0.8543
17644TIP3   OH274422   2.298   2.800   4.652  0.1337 -0.2289  0.6162
17644TIP3    H174423   2.334   2.740   4.718 -0.1788 -0.2564  0.7606
17644TIP3    H274424   2.342   2.883   4.671  1.6106 -0.7445 -0.4679
17645TIP3   OH274425   6.008   1.251   0.736  0.0257  0.1400 -0.1317
17645TIP3    H174426   5.936   1.259   0.798 -0.3009  2.0182 -0.6917
17645TIP3    H274427   5.981   1.182   0.675  0.6547 -2.1857  2.1582
17646TIP3   OH274428   2.533   5.069   3.315 -0.0770 -0.3193 -0.9219
17646TIP3    H174429   2.493   5.140   3.365  1.3964  1.1357 -1.7386
17646TIP3    H274430   2.602   5.112   3.264  0.4232 -2.2451 -1.9179
17647TIP3   OH274431   2.466   3.678   3.569 -0.7711 -0.2350  0.4839
17647TIP3    H174432   2.405   3.682   3.643  0.3810  1.6855  1.3695
17647TIP3    H274433   2.547   3.644   3.606 -1.1803 -2.5063 -0.6334
17648TIP3   OH274434   5.501   3.944  16.467  0.2261 -0.3575  0.4362
17648TIP3    H174435   5.561   4.017  16.456  1.4185 -1.0153  2.3273
17648TIP3    H274436   5.502   3.926  16.561 -1.3744 -1.6999  0.2255
17649TIP3   OH274437   1.694   3.756  14.056  0.2088 -0.4610 -0.8915
17649TIP3    H174438   1.613   3.707  14.041  0.2417 -0.9872  0.5462
17649TIP3    H274439   1.677   3.807  14.135  1.3947 -0.8519 -0.3719
17650TIP3   OH274440   3.558   5.880   3.947 -0.1933  0.5230  0.2032
17650TIP3    H174441   3.502   5.831   3.886  0.3688 -1.2452  1.0540
17650TIP3    H274442   3.608   5.940   3.891  0.4776 -1.2224 -1.1269
17651TIP3   OH274443   0.114   3.848   6.007 -0.0457  0.5390 -0.5456
17651TIP3    H174444   0.046   3.913   6.023 -0.4635 -0.3391  1.3385
17651TIP3    H274445   0.175   3.858   6.079  0.1956 -0.7553 -0.5505
17652TIP3   OH274446   5.989   0.932   1.079  0.5057  0.0179  0.3233
17652TIP3    H174447   5.954   0.942   0.990  0.6319  1.3319  0.4240
17652TIP3    H274448   5.925   0.875   1.123  0.6916 -1.0301 -0.7450
17653TIP3   OH274449   4.586   5.927  15.209 -0.6413 -0.3143  0.3107
17653TIP3    H174450   4.681   5.936  15.208 -0.7278  0.7899  0.8710
17653TIP3    H274451   4.561   5.913  15.118 -0.1321  1.5426 -0.1262
17654TIP3   OH274452   3.849   6.555  14.913 -0.5526 -0.3696  0.5519
17654TIP3    H174453   3.928   6.503  14.925  0.6706  1.1921 -0.6357
17654TIP3    H274454   3.822   6.579  15.002  1.7397  1.2092  0.8411
17655TIP3   OH274455   2.249   6.371   0.240 -1.0371 -0.0571 -0.1116
17655TIP3    H174456   2.246   6.333   0.152  0.0060 -0.5635  0.0680
17655TIP3    H274457   2.182   6.323   0.289 -0.5854 -0.8076 -0.2236
17656TIP3   OH274458   1.854   3.165  12.643  0.4205  0.3952 -0.3501
17656TIP3    H174459   1.783   3.118  12.601  0.2454  0.4280 -0.0902
17656TIP3    H274460   1.876   3.113  12.720  0.6669  0.3946 -0.4191
17657TIP3   OH274461   3.559   1.953   2.764 -0.4584 -0.2934  0.1111
17657TIP3    H174462   3.488   1.921   2.819 -0.6320 -0.6974 -0.3413
17657TIP3    H274463   3.525   1.947   2.675  0.0500 -0.2508 -0.0893
17658TIP3   OH274464   6.076   2.341  13.698  0.7300  0.2652  0.3338
17658TIP3    H174465   6.021   2.263  13.693  1.3050 -0.1686  0.7208
17658TIP3    H274466   6.014   2.414  13.699  0.2043 -0.1665 -0.3898
17659TIP3   OH274467   6.163   4.395  11.218  0.1586 -0.1649 -0.0230
17659TIP3    H174468   6.099   4.454  11.177  0.0245  0.3012  0.8361
17659TIP3    H274469   6.238   4.397  11.159 -1.4198 -2.4717 -2.2340
17660TIP3   OH274470   4.363   5.731   0.856  0.4771 -0.3227 -0.0032
17660TIP3    H174471   4.289   5.791   0.850 -1.2055 -2.2133  1.3580
17660TIP3    H274472   4.406   5.754   0.939  1.1052  0.4034 -0.5229
17661TIP3   OH274473   5.908   5.610   3.330  0.2204  0.0586 -0.2477
17661TIP3    H174474   5.926   5.638   3.241  0.9914 -0.8228 -0.3732
17661TIP3    H274475   5.812   5.600   3.333 -0.0901  2.6206 -0.1980
17662TIP3   OH274476   3.853   0.576  14.230  0.6581  0.7226  0.4655
17662TIP3    H174477   3.839   0.596  14.322 -0.3641  0.3130  0.4118
17662TIP3    H274478   3.804   0.495  14.215 -0.2378  1.4547 -0.7154
17663TIP3   OH274479   5.789   2.201  17.194  0.2581 -0.4950  0.0736
17663TIP3    H174480   5.862   2.187  17.134  1.2824  0.0048  1.1661
17663TIP3    H274481   5.806   2.142  17.267  1.0440  1.5390  1.5914
17664TIP3   OH274482   5.843   3.344  13.349 -0.3524  0.2171  0.1057
17664TIP3    H174483   5.835   3.428  13.303 -1.8169  0.7539  1.2919
17664TIP3    H274484   5.854   3.279  13.279  0.2535  1.3247 -0.8511
17665TIP3   OH274485   4.455   3.237  13.824  1.0154  0.3074  0.6489
17665TIP3    H174486   4.359   3.231  13.829  1.1339 -1.6694  0.9629
17665TIP3    H274487   4.481   3.274  13.908  0.5104  1.1981  0.4232
17666TIP3   OH274488   4.248   6.187   2.266  0.0074  0.0714  0.7119
17666TIP3    H174489   4.293   6.139   2.196  1.3260  0.2463  1.4154
17666TIP3    H274490   4.175   6.130   2.291 -1.1580  0.5373 -1.5867
17667TIP3   OH274491   4.720   0.341   3.293  0.3959 -0.4778 -0.2825
17667TIP3    H174492   4.723   0.407   3.362 -0.1002 -2.3062  1.5345
17667TIP3    H274493   4.811   0.315   3.280  0.4379 -0.4736  0.0108
17668TIP3   OH274494   3.717   2.146  15.212 -0.2562  0.1216 -0.2265
17668TIP3    H174495   3.768   2.185  15.141 -0.6142 -2.3890 -1.9375
17668TIP3    H274496   3.744   2.194  15.291  2.0529  1.2426 -1.6539
17669TIP3   OH274497   3.086   5.198  12.178  0.0398  0.1486 -0.0868
17669TIP3    H174498   3.055   5.233  12.094 -0.7014 -0.0643  0.0913
17669TIP3    H274499   3.171   5.239  12.191 -0.1028  0.6376 -0.6630
17670TIP3   OH274500   4.567   1.957  11.771  0.3518 -1.0168  0.1766
17670TIP3    H174501   4.480   1.998  11.769 -0.0434 -1.7777  1.3144
17670TIP3    H274502   4.581   1.927  11.681 -0.4973 -0.7629 -0.0451
17671TIP3   OH274503   6.535   5.724   5.958 -0.2039 -0.2001  0.0102
17671TIP3    H174504   6.510   5.633   5.940  0.3573 -0.7260  1.8711
17671TIP3    H274505   6.630   5.725   5.950 -0.0137 -0.2738  2.1504
17672TIP3   OH274506   1.706   5.914  14.511  0.5747  0.1785  0.9153
17672TIP3    H174507   1.679   5.988  14.457 -0.5822 -0.6747  0.2915
17672TIP3    H274508   1.730   5.846  14.447  2.3797  0.2676  1.4691
17673TIP3   OH274509   5.175   6.497  13.299 -0.0357  0.0782  0.1547
17673TIP3    H174510   5.192   6.501  13.393 -0.4886 -4.3677  0.5408
17673TIP3    H274511   5.251   6.539  13.259  1.8697 -1.0817  2.4345
17674TIP3   OH274512   2.059   0.221  13.191  0.2687 -0.3462  0.6823
17674TIP3    H174513   2.145   0.196  13.158  1.0114  1.0624  1.4864
17674TIP3    H274514   2.076   0.297  13.248 -1.3482 -0.8383  1.8618
17675TIP3   OH274515   5.405   1.532  11.127 -0.2125  0.4749 -0.4188
17675TIP3    H174516   5.453   1.459  11.088 -1.4982 -0.1295 -0.8945
17675TIP3    H274517   5.425   1.606  11.069  0.0155  0.1987 -0.6991
17676TIP3   OH274518   6.754   3.328   2.348 -0.1699  0.0494 -0.3309
17676TIP3    H174519   6.678   3.303   2.295  0.3288 -1.0051 -0.5592
17676TIP3    H274520   6.825   3.341   2.284  0.0041  0.4103 -0.0669
17677TIP3   OH274521   6.240   4.005  15.461  0.0520 -0.1297  0.5092
17677TIP3    H174522   6.285   4.086  15.484 -0.8608  1.2045 -2.2823
17677TIP3    H274523   6.149   4.021  15.484 -0.0584 -0.5278  0.3580
17678TIP3   OH274524   1.710   1.704   0.090  0.4748 -0.0346 -0.5809
17678TIP3    H174525   1.805   1.693   0.102  0.1047  0.0033  2.9253
17678TIP3    H274526   1.694   1.796   0.111 -0.3893 -0.1321 -0.7888
17679TIP3   OH274527   0.067   0.321  16.228  0.2013 -0.2918 -0.0045
17679TIP3    H174528   0.099   0.409  16.246 -1.3624  0.6786 -1.8669
17679TIP3    H274529  -0.028   0.331  16.223 -0.0021 -2.1356 -0.0038
17680TIP3   OH274530   3.648   2.999   2.675  0.8084 -0.1438  0.3526
17680TIP3    H174531   3.700   3.068   2.717 -1.0166  1.1379  0.5571
17680TIP3    H274532   3.617   3.039   2.594 -2.2195  0.1361  1.5802
17681TIP3   OH274533   4.503   0.757  11.738 -0.0510 -0.3463  0.6237
17681TIP3    H174534   4.559   0.719  11.806  0.0371  0.3097  0.9179
17681TIP3    H274535   4.560   0.817  11.691 -0.3838 -0.0347  0.6186
17682TIP3   OH274536   6.702   5.405   1.051 -0.8339 -0.3701  0.4451
17682TIP3    H174537   6.629   5.391   1.112 -0.2982 -0.5322  1.0542
17682TIP3    H274538   6.732   5.494   1.071 -2.4475  0.6633 -1.5096
17683TIP3   OH274539   4.675   3.018  12.465 -0.0846  0.2560  0.4274
17683TIP3    H174540   4.612   3.089  12.477 -0.8560 -0.7856  2.7495
17683TIP3    H274541   4.726   3.017  12.546 -1.2913 -2.9620  1.2273
17684TIP3   OH274542   2.538   4.877   3.070  0.0917  0.5308 -0.1401
17684TIP3    H174543   2.481   4.918   3.135 -2.3524  1.3221 -2.6762
17684TIP3    H274544   2.519   4.784   3.076 -0.2209  0.6150  0.1858
17685TIP3   OH274545   3.231   1.394  12.393  0.2497 -0.0072  0.4057
17685TIP3    H174546   3.202   1.385  12.302 -2.2525 -2.4783  1.3622
17685TIP3    H274547   3.322   1.364  12.393 -0.3067 -1.7458 -0.9868
17686TIP3   OH274548   2.316   2.189  16.995 -0.0282  0.3841 -0.0148
17686TIP3    H174549   2.305   2.221  16.905  0.0884 -1.0087 -0.5424
17686TIP3    H274550   2.354   2.102  16.984 -0.5957 -0.0483  1.3703
17687TIP3   OH274551   5.610   5.175  11.179  0.0770 -0.2432 -0.4551
17687TIP3    H174552   5.649   5.167  11.091  1.9612 -0.0729  0.3247
17687TIP3    H274553   5.580   5.086  11.199  3.4811 -1.2863  0.3895
17688TIP3   OH274554   3.899   1.659  13.093 -0.4410 -0.4402  0.1765
17688TIP3    H174555   3.809   1.652  13.125 -0.0514 -0.2481  1.3415
17688TIP3    H274556   3.954   1.642  13.170  0.5117  1.0426 -0.1336
17689TIP3   OH274557   1.817   0.698   6.378 -0.3525  0.3621  0.2513
17689TIP3    H174558   1.790   0.718   6.288  1.1862 -0.1712 -0.3553
17689TIP3    H274559   1.900   0.744   6.389  0.1725 -0.7229  0.9151
17690TIP3   OH274560   3.216   3.850   2.204  0.2051  0.3001  0.0995
17690TIP3    H174561   3.160   3.868   2.279  0.0326 -0.4111  0.1486
17690TIP3    H274562   3.221   3.754   2.201 -0.0160  0.3123 -0.9490
17691TIP3   OH274563   6.378   5.810  16.296  0.3386 -0.0978 -0.6646
17691TIP3    H174564   6.311   5.742  16.296  0.9208 -0.7132  2.0344
17691TIP3    H274565   6.391   5.831  16.203 -1.7905 -1.7243 -1.3545
17692TIP3   OH274566   5.951   4.584  13.272 -0.2162 -0.0327 -0.2199
17692TIP3    H174567   5.942   4.539  13.189 -1.6180 -1.4524  0.6738
17692TIP3    H274568   6.037   4.626  13.268  0.3566 -1.3321 -1.7669
17693TIP3   OH274569   3.340   1.594  13.315  0.0804 -0.7854  0.4410
17693TIP3    H174570   3.394   1.563  13.387 -0.4183 -1.1808  0.6513
17693TIP3    H274571   3.333   1.689  13.327  0.4393 -0.7826  0.6069
17694TIP3   OH274572   0.023   5.761  16.481  0.1177 -0.2221  0.1298
17694TIP3    H174573   0.058   5.789  16.396  0.9633  0.6541  0.7434
17694TIP3    H274574  -0.027   5.836  16.512 -1.6308 -1.1744 -0.3579
17695TIP3   OH274575   5.044   2.326   3.742  0.0856  0.4261 -0.0367
17695TIP3    H174576   4.973   2.389   3.734 -0.1164  0.1180 -0.7165
17695TIP3    H274577   5.092   2.333   3.659 -0.2092 -0.6371 -0.2987
17696TIP3   OH274578   0.395   0.401  11.571 -0.5711  0.4881 -0.0902
17696TIP3    H174579   0.358   0.315  11.588 -1.3542  0.8493  0.0475
17696TIP3    H274580   0.455   0.388  11.498  0.3778 -0.4475  0.8480
17697TIP3   OH274581   4.421   6.321   1.949 -0.2897 -0.0586  0.0609
17697TIP3    H174582   4.505   6.303   1.908  0.9702  0.5128  2.3052
17697TIP3    H274583   4.357   6.310   1.879  1.5274 -1.7044 -1.3947
17698TIP3   OH274584   0.559   2.883   3.775 -0.6737 -0.3721  0.1323
17698TIP3    H174585   0.542   2.933   3.695 -0.0276  1.1238  0.9203
17698TIP3    H274586   0.571   2.949   3.843 -0.2948 -1.6149  1.2959
17699TIP3   OH274587   4.727   0.479  11.176 -0.5398  0.4922 -0.3899
17699TIP3    H174588   4.785   0.519  11.111 -1.0363 -0.5086 -1.4866
17699TIP3    H274589   4.752   0.387  11.176  0.5242  0.7451  2.0323
17700TIP3   OH274590   3.472   3.859   0.775 -0.0148  0.0061  0.2980
17700TIP3    H174591   3.377   3.873   0.776 -0.2228 -1.3597  0.4123
17700TIP3    H274592   3.504   3.911   0.849 -1.2247 -3.0833  3.1541
17701TIP3   OH274593   0.381   4.082   1.831 -0.2225  0.3673  0.1566
17701TIP3    H174594   0.360   3.993   1.858  0.7635 -0.1089 -0.6091
17701TIP3    H274595   0.316   4.103   1.764  1.4714 -0.9785 -1.9690
17702TIP3   OH274596   6.144   0.511  16.891 -0.2827  0.3902  0.2002
17702TIP3    H174597   6.188   0.530  16.974  0.7597 -2.2272  0.3169
17702TIP3    H274598   6.215   0.492  16.830 -1.1214 -0.9868 -0.3912
17703TIP3   OH274599   6.615   1.547  11.113  0.6663 -0.1264  0.3254
17703TIP3    H174600   6.601   1.586  11.026  2.1220  2.1767  1.0659
17703TIP3    H274601   6.601   1.620  11.174 -1.0647 -1.9017  2.0871
17704TIP3   OH274602   1.911   5.706  12.440  0.0400 -0.1396 -0.3486
17704TIP3    H174603   1.969   5.675  12.369 -0.7335 -1.2913 -0.4919
17704TIP3    H274604   1.881   5.792  12.411 -1.7916 -1.3982 -2.3572
17705TIP3   OH274605   3.152   4.839   0.433  0.1953 -0.0203 -0.3684
17705TIP3    H174606   3.152   4.922   0.482  0.0180 -0.7180  0.8134
17705TIP3    H274607   3.217   4.785   0.477  1.6442  0.1145 -2.2555
17706TIP3   OH274608   6.666   1.672   3.807 -1.0040 -0.2407 -0.9186
17706TIP3    H174609   6.615   1.709   3.879  0.6429 -0.6711  0.4876
17706TIP3    H274610   6.727   1.741   3.782 -1.6860 -0.0215 -2.0641
17707TIP3   OH274611   3.248   2.516  14.560 -0.3715  0.8041  0.2989
17707TIP3    H174612   3.309   2.469  14.504  1.0093  2.4613  0.3593
17707TIP3    H274613   3.161   2.492  14.527  0.3957  1.3481 -2.2178
17708TIP3   OH274614   2.037   2.606  12.476  0.0309  0.5422 -0.5032
17708TIP3    H174615   1.953   2.574  12.509 -0.5727 -0.2243 -2.7146
17708TIP3    H274616   2.014   2.677  12.416  0.9555  0.2782 -1.1859
17709TIP3   OH274617   0.745   5.594   0.581  0.0328 -0.3138 -0.1073
17709TIP3    H174618   0.781   5.595   0.670  0.3002 -2.4013 -0.1670
17709TIP3    H274619   0.821   5.609   0.525  0.1736 -0.8870 -0.0683
17710TIP3   OH274620   6.146   2.605   1.999 -0.0216  0.2453  0.2590
17710TIP3    H174621   6.131   2.664   1.925  1.7120  1.5795  0.9313
17710TIP3    H274622   6.085   2.635   2.066 -0.7066 -0.1682 -0.1639
17711TIP3   OH274623   1.405   2.134  13.340 -0.6192 -0.2239  0.0368
17711TIP3    H174624   1.338   2.075  13.306 -0.6671  0.1688 -0.5675
17711TIP3    H274625   1.389   2.217  13.295 -0.1723  0.0771  0.4202
17712TIP3   OH274626   6.576   5.304   5.533 -0.4779  0.4303  0.0693
17712TIP3    H174627   6.641   5.307   5.604  1.1512  0.9912 -1.4311
17712TIP3    H274628   6.532   5.219   5.545  0.6503 -0.0337  0.9873
17713TIP3   OH274629   1.332   6.780  16.697 -0.1718  0.7837  0.2841
17713TIP3    H174630   1.395   6.710  16.713 -1.3940 -0.7579 -1.3749
17713TIP3    H274631   1.270   6.774  16.770 -1.2041 -1.0076 -0.6715
17714TIP3   OH274632   3.663   2.681   5.692  0.3154  0.4845 -0.0975
17714TIP3    H174633   3.719   2.695   5.768  0.5919  0.6646 -0.3340
17714TIP3    H274634   3.684   2.593   5.662 -0.3764  0.0984  0.5161
17715TIP3   OH274635   3.053   5.903   3.100 -0.1825 -0.4333 -0.4696
17715TIP3    H174636   3.057   5.989   3.057 -2.2925  0.2351  0.6178
17715TIP3    H274637   3.135   5.860   3.074 -0.0789  1.0615 -2.7859
17716TIP3   OH274638   3.144   3.132  13.501  0.0379  0.1644 -0.1914
17716TIP3    H174639   3.163   3.125  13.595 -0.6778  0.3738 -0.0256
17716TIP3    H274640   3.227   3.158  13.462 -0.1736  2.3476  0.6923
17717TIP3   OH274641   1.810   1.716   6.325 -0.2206  0.2883 -0.1990
17717TIP3    H174642   1.793   1.672   6.242 -0.9411  0.4809 -0.1585
17717TIP3    H274643   1.886   1.671   6.361  0.7513  0.8947 -1.4657
17718TIP3   OH274644   0.998   1.674  13.580 -0.5722 -0.3592  0.1182
17718TIP3    H174645   1.032   1.596  13.535 -0.6487 -0.1611 -0.2910
17718TIP3    H274646   0.919   1.697  13.531 -0.2908  0.2509 -0.0646
17719TIP3   OH274647   4.434   3.755   3.194  0.2281 -0.3012 -0.0374
17719TIP3    H174648   4.363   3.819   3.186  0.3194  0.1875  2.5783
17719TIP3    H274649   4.511   3.807   3.215  0.6042 -1.1289  0.6753
17720TIP3   OH274650   2.970   5.881   0.682 -0.1793  0.2672  0.1096
17720TIP3    H174651   2.989   5.845   0.595 -0.4740  0.8623 -0.2109
17720TIP3    H274652   2.958   5.975   0.666 -0.8009  0.2936  0.7086
17721TIP3   OH274653   5.369   4.560   1.976 -0.3610  0.4516  0.0473
17721TIP3    H174654   5.446   4.605   1.939 -0.2690  0.2328 -0.0336
17721TIP3    H274655   5.296   4.618   1.957 -0.2588  0.5177 -0.1532
17722TIP3   OH274656   4.201   4.577   1.042  0.4781 -0.7857  0.0711
17722TIP3    H174657   4.223   4.630   0.966  1.6159 -3.4708 -1.5595
17722TIP3    H274658   4.112   4.603   1.066 -0.1205 -0.3434 -2.5719
17723TIP3   OH274659   1.842   2.108  12.839 -0.2690  0.5787  0.9620
17723TIP3    H174660   1.787   2.030  12.840 -1.4832  1.3264 -2.0324
17723TIP3    H274661   1.928   2.078  12.869 -0.6042 -2.0036 -0.5719
17724TIP3   OH274662   1.494   2.602   1.868 -0.2250  0.1724 -0.9428
17724TIP3    H174663   1.456   2.689   1.885  0.2753 -0.0866  1.6006
17724TIP3    H274664   1.583   2.608   1.901 -0.1057 -1.2527 -0.9992
17725TIP3   OH274665   6.796   3.773   0.218 -0.5043 -0.4083  0.1233
17725TIP3    H174666   6.831   3.788   0.130 -1.0509 -1.9951 -0.3769
17725TIP3    H274667   6.839   3.693   0.248 -1.3235 -0.6110  0.7766
17726TIP3   OH274668   1.616   4.982   3.972  0.3962 -0.2734 -1.0355
17726TIP3    H174669   1.568   5.031   3.905 -0.0430  0.8577  0.0977
17726TIP3    H274670   1.559   4.986   4.049  1.7351 -0.0298 -0.0572
17727TIP3   OH274671   2.994   1.224  17.146 -0.3370  0.4566 -0.3023
17727TIP3    H174672   2.938   1.232  17.069  0.4079  0.6254 -0.8232
17727TIP3    H274673   3.030   1.312  17.158 -1.3253  0.7183  0.9081
17728TIP3   OH274674   3.891   2.828  15.126 -0.3410  0.2207  0.0304
17728TIP3    H174675   3.838   2.799  15.052 -0.1133 -1.4660  0.4981
17728TIP3    H274676   3.974   2.854  15.088 -0.1736 -0.7829 -0.3036
17729TIP3   OH274677   1.331   1.244  16.543  0.2363  0.1776  0.1300
17729TIP3    H174678   1.298   1.320  16.591 -2.0030 -0.2858 -0.5877
17729TIP3    H274679   1.391   1.279  16.478  0.1730  1.2092  0.6278
17730TIP3   OH274680   1.343   5.214   0.325  0.0063  0.1637  0.1448
17730TIP3    H174681   1.322   5.294   0.373  0.3054  0.3839 -0.0897
17730TIP3    H274682   1.412   5.172   0.377  0.6785  0.6493 -0.3434
17731TIP3   OH274683   2.283   5.614   6.047  0.3772  0.7051  0.1736
17731TIP3    H174684   2.370   5.608   6.086  0.6463 -2.4767 -0.7647
17731TIP3    H274685   2.235   5.540   6.085 -1.9197  2.3621  0.6037
17732TIP3   OH274686   5.017   2.442  16.852  0.5124 -0.6074 -0.2963
17732TIP3    H174687   5.042   2.412  16.939 -0.5055 -0.0218  0.2086
17732TIP3    H274688   4.921   2.444  16.854  0.5140  0.5559 -1.0245
17733TIP3   OH274689   3.801   6.447   0.273 -0.2036  0.4289 -0.2545
17733TIP3    H174690   3.756   6.470   0.354 -1.0404 -0.4473 -0.4635
17733TIP3    H274691   3.748   6.376   0.235 -0.0294  1.0766 -1.7485
17734TIP3   OH274692   1.888   1.673   0.745 -0.4773 -0.0821  0.1327
17734TIP3    H174693   1.809   1.632   0.782 -1.0522  0.0860 -0.8835
17734TIP3    H274694   1.937   1.600   0.706 -0.5346 -0.0786  0.0528
17735TIP3   OH274695   3.879   0.299  14.885 -0.1407 -0.0671 -0.1517
17735TIP3    H174696   3.946   0.362  14.912 -1.1252  1.4023 -1.0873
17735TIP3    H274697   3.917   0.256  14.808  0.9771 -1.4297  1.1011
17736TIP3   OH274698   4.815   2.111   0.220 -0.0701  0.4084 -0.5116
17736TIP3    H174699   4.764   2.057   0.281  1.4048 -0.5910 -0.1368
17736TIP3    H274700   4.824   2.195   0.264  0.9071 -0.2825  0.6418
17737TIP3   OH274701   3.626   1.804   0.855  0.6384 -0.4244  0.1739
17737TIP3    H174702   3.553   1.860   0.879  0.0311 -1.1857  0.1291
17737TIP3    H274703   3.648   1.756   0.935  1.7637  0.5500  0.4584
17738TIP3   OH274704   0.230   5.266  14.758  0.0399  0.0702 -0.4774
17738TIP3    H174705   0.179   5.243  14.836 -2.0004  2.4368 -1.0540
17738TIP3    H274706   0.282   5.341  14.785 -0.7355  0.9542 -1.3892
17739TIP3   OH274707   0.115   2.900   5.152 -0.0546 -0.3736 -0.3055
17739TIP3    H174708   0.125   2.994   5.167 -1.7173 -0.0083 -1.3367
17739TIP3    H274709   0.126   2.861   5.239  0.8728  0.7535  0.0923
17740TIP3   OH274710   6.263   2.083  14.420 -0.4719 -0.0994  0.2707
17740TIP3    H174711   6.272   2.023  14.346 -1.5623 -1.7865  1.4647
17740TIP3    H274712   6.352   2.106  14.445  0.0637 -3.0352  1.2170
17741TIP3   OH274713   4.709   3.264   0.488 -0.0723 -0.3665 -0.2202
17741TIP3    H174714   4.628   3.281   0.535 -0.0130  1.8202 -0.8725
17741TIP3    H274715   4.765   3.339   0.509  0.4111  0.0202 -2.7507
17742TIP3   OH274716   2.372   6.291   2.069  0.5487  1.0077 -0.4735
17742TIP3    H174717   2.310   6.240   2.121  1.4845  0.1303 -0.1929
17742TIP3    H274718   2.412   6.227   2.010 -0.4194  1.9675 -2.2010
17743TIP3   OH274719   6.217   2.732  12.632  0.1708  0.1377  0.0406
17743TIP3    H174720   6.158   2.783  12.688  0.5382  1.1351 -0.4681
17743TIP3    H274721   6.172   2.649  12.619  0.3571 -0.3677  2.3414
17744TIP3   OH274722   1.657   3.049  12.071 -0.1159  0.5172  0.3046
17744TIP3    H174723   1.666   3.134  12.028  0.5836  0.4135  0.2539
17744TIP3    H274724   1.566   3.024  12.055  0.4751 -0.0932 -2.1650
17745TIP3   OH274725   2.506   5.298   1.497  0.3309  0.1702 -0.2421
17745TIP3    H174726   2.489   5.371   1.438  0.2622  1.5833  1.4718
17745TIP3    H274727   2.556   5.336   1.569 -0.8830 -1.1541  1.3718
17746TIP3   OH274728   0.573   6.281  11.237  0.2815  0.3121 -0.0443
17746TIP3    H174729   0.517   6.281  11.160 -0.2578  1.2225  0.3363
17746TIP3    H274730   0.512   6.275  11.311  0.7604 -0.0202  0.3241
17747TIP3   OH274731   4.712   2.820  15.310 -0.6691 -0.1271  0.1838
17747TIP3    H174732   4.776   2.846  15.243 -0.6695  0.2093  0.3151
17747TIP3    H274733   4.749   2.851  15.392 -0.3319 -1.1542  0.4251
17748TIP3   OH274734   3.405   1.831   1.863 -0.1828 -0.5439 -0.0241
17748TIP3    H174735   3.340   1.781   1.913  0.6008 -0.5693  0.9803
17748TIP3    H274736   3.359   1.856   1.783 -1.8294  0.4860  1.2177
17749TIP3   OH274737   2.039   1.482   3.612 -0.2029  0.2239 -0.3970
17749TIP3    H174738   2.008   1.391   3.616 -2.1000  0.8792 -0.0555
17749TIP3    H274739   2.053   1.499   3.519 -0.8718 -0.0679 -0.5487
17750TIP3   OH274740   1.441   2.255  15.663  0.1025 -0.5243  0.2202
17750TIP3    H174741   1.499   2.286  15.593 -1.4557  1.5688 -0.1763
17750TIP3    H274742   1.434   2.329  15.723 -0.0837 -1.6720  1.6408
17751TIP3   OH274743   1.713   1.024   1.872  0.2321 -0.1803  0.1410
17751TIP3    H174744   1.803   1.003   1.898  1.0194 -0.0956 -2.3889
17751TIP3    H274745   1.718   1.114   1.840 -1.0750  0.3395  1.3276
17752TIP3   OH274746   2.965   1.781  14.126  0.3829  0.1242 -0.5825
17752TIP3    H174747   3.046   1.825  14.150  0.2294  1.0506 -1.7470
17752TIP3    H274748   2.909   1.850  14.092 -0.9974 -0.4682  0.4224
17753TIP3   OH274749   3.224   5.903  10.836 -0.3973  0.3940  0.7637
17753TIP3    H174750   3.226   5.988  10.794  0.2211 -0.3958 -0.8586
17753TIP3    H274751   3.143   5.862  10.807  0.1575 -0.2598  0.0992
17754TIP3   OH274752   5.379   1.521  13.367 -0.4847 -0.0838  0.2060
17754TIP3    H174753   5.306   1.507  13.427 -1.0069 -0.1630 -0.4333
17754TIP3    H274754   5.444   1.568  13.418 -1.7349  1.6185  0.2646
17755TIP3   OH274755   0.934   0.909  12.587  0.0648 -0.2314  0.3984
17755TIP3    H174756   0.964   0.839  12.644 -1.1868 -1.1347 -0.0443
17755TIP3    H274757   0.948   0.876  12.498 -2.2118 -0.6645  0.1825
17756TIP3   OH274758   5.175   4.128  15.933 -0.6824 -0.5633 -0.4096
17756TIP3    H174759   5.222   4.046  15.920 -0.9385 -0.7866  0.0552
17756TIP3    H274760   5.110   4.130  15.864 -0.2885 -0.4679 -0.7816
17757TIP3   OH274761   0.548   5.774   3.054  0.0591  0.0923 -0.1891
17757TIP3    H174762   0.607   5.726   2.995  0.7583  1.4834 -0.6576
17757TIP3    H274763   0.475   5.714   3.068  0.6502 -0.9005 -1.1825
17758TIP3   OH274764   4.148   4.604   1.762  0.2303 -0.8698 -0.1279
17758TIP3    H174765   4.136   4.514   1.792 -1.6374 -0.3036  0.8956
17758TIP3    H274766   4.069   4.623   1.710  0.9536 -0.0671 -0.9569
17759TIP3   OH274767   0.892   3.917   5.961 -0.0679  0.3348  0.4507
17759TIP3    H174768   0.825   3.978   5.993 -0.3415  0.5085 -0.4473
17759TIP3    H274769   0.924   3.873   6.040 -0.6685  0.8329  0.9741
17760TIP3   OH274770   1.800   2.556  15.458 -0.3333 -0.3558  0.3414
17760TIP3    H174771   1.817   2.568  15.365 -0.9942 -0.8150  0.1584
17760TIP3    H274772   1.809   2.644  15.496  2.6003 -0.5954  0.2996
17761TIP3   OH274773   1.227   3.148   2.535 -0.3379  0.2862  0.0853
17761TIP3    H174774   1.222   3.206   2.459  0.5812 -1.6445 -1.4760
17761TIP3    H274775   1.137   3.117   2.547 -0.2670 -0.3534 -0.9785
17762TIP3   OH274776   1.341   0.338  11.263 -0.4986 -0.2996  0.0181
17762TIP3    H174777   1.342   0.245  11.282 -2.4604 -0.6302 -1.3104
17762TIP3    H274778   1.419   0.353  11.209  0.3686 -0.9602  1.0778
17763TIP3   OH274779   4.764   3.797   3.169  0.0554 -0.9293 -0.7465
17763TIP3    H174780   4.828   3.861   3.197 -0.2158 -1.2062  0.5231
17763TIP3    H274781   4.788   3.777   3.078 -0.0611  1.1896 -1.2638
17764TIP3   OH274782   2.622   2.676  10.541  0.4474  0.1461 -0.3633
17764TIP3    H174783   2.598   2.759  10.500  0.0167 -0.1515 -0.7175
17764TIP3    H274784   2.544   2.651  10.591 -0.2453 -1.1392 -2.0300
17765TIP3   OH274785   5.814   2.875  15.487  0.2363 -0.1990  0.0301
17765TIP3    H174786   5.754   2.820  15.538  0.8654 -1.4606 -0.5639
17765TIP3    H274787   5.901   2.855  15.523  0.5962 -0.5084 -0.9897
17766TIP3   OH274788   0.713   1.665   3.782 -0.2758  0.4337  0.1664
17766TIP3    H174789   0.710   1.571   3.764 -0.7341  0.6335 -0.8393
17766TIP3    H274790   0.760   1.673   3.865 -1.6609 -0.7982  1.0805
17767TIP3   OH274791   3.986   6.239   4.760 -0.1136  0.2897  0.3181
17767TIP3    H174792   4.008   6.149   4.785 -0.5340  0.5992  1.8528
17767TIP3    H274793   3.899   6.233   4.722 -0.6523  0.2004  1.5268
17768TIP3   OH274794   6.496   5.760  10.527  0.3811  0.6628  0.2058
17768TIP3    H174795   6.508   5.812  10.448 -1.2732  0.8593  0.0636
17768TIP3    H274796   6.562   5.792  10.587  1.9901  0.1771 -1.2624
17769TIP3   OH274797   6.445   5.675   5.089 -0.4144  0.1528  0.6097
17769TIP3    H174798   6.473   5.764   5.069 -2.0826  0.7620  0.9526
17769TIP3    H274799   6.468   5.662   5.181  0.0486  0.1408  0.4925
17770TIP3   OH274800   3.187   1.713  12.011 -0.5275  0.6622 -0.7850
17770TIP3    H174801   3.150   1.703  12.099  1.0752 -0.8118 -0.2528
17770TIP3    H274802   3.143   1.647  11.958 -0.9159  1.0129 -0.9000
17771TIP3   OH274803   5.149   4.866  14.160  0.1486  0.3398 -0.2220
17771TIP3    H174804   5.134   4.911  14.077 -0.6497  0.2651 -0.1202
17771TIP3    H274805   5.063   4.861  14.201  0.3048 -0.8245 -0.0034
17772TIP3   OH274806   0.009   3.681  14.074 -1.0040  0.1229 -0.1016
17772TIP3    H174807  -0.010   3.775  14.077  0.7406  0.4855  0.0130
17772TIP3    H274808  -0.043   3.644  14.146 -0.2641  1.2719  1.0548
17773TIP3   OH274809   5.188   0.634  12.267  1.1132  0.5887  0.0527
17773TIP3    H174810   5.173   0.545  12.235  1.1992  1.4316 -2.4238
17773TIP3    H274811   5.121   0.686  12.223  0.5771  1.6594  2.0745
17774TIP3   OH274812   3.609   1.714  15.993  0.5036 -0.2082 -0.5666
17774TIP3    H174813   3.528   1.727  15.944  0.1626 -1.1789 -0.2639
17774TIP3    H274814   3.628   1.620  15.984 -1.4681 -1.1827  4.1181
17775TIP3   OH274815   3.701   3.276   0.506  0.4407 -0.1096 -0.1547
17775TIP3    H174816   3.784   3.312   0.474  0.5675  0.9441  1.3110
17775TIP3    H274817   3.685   3.200   0.451  1.6554  0.5132 -1.3993
17776TIP3   OH274818   4.306   2.230  15.419 -0.3869 -0.2969 -0.4897
17776TIP3    H174819   4.346   2.200  15.337 -0.5543  0.4670 -0.8571
17776TIP3    H274820   4.333   2.322  15.426  1.4028 -0.9158  1.3892
17777TIP3   OH274821   1.148   1.481  16.349 -0.4102 -0.5858  0.4392
17777TIP3    H174822   1.065   1.448  16.313 -0.7999 -0.0671  0.8490
17777TIP3    H274823   1.209   1.476  16.276  0.2070 -4.5042  1.1328
17778TIP3   OH274824   0.839   1.542  10.472 -0.4238  0.7730 -0.3958
17778TIP3    H174825   0.850   1.515  10.564 -1.2682 -1.9099 -1.0283
17778TIP3    H274826   0.926   1.573  10.446  0.3160 -0.2774  0.7519
17779TIP3   OH274827   0.770   1.995  12.737 -0.6482  0.3167  0.2793
17779TIP3    H174828   0.687   1.996  12.689 -0.2486 -0.5754 -0.4494
17779TIP3    H274829   0.788   1.902  12.752 -0.9114  0.5904  2.4281
17780TIP3   OH274830   6.409   5.212  15.455  0.1376 -0.1252  0.1276
17780TIP3    H174831   6.317   5.234  15.441 -0.1154 -0.9831  0.4117
17780TIP3    H274832   6.425   5.136  15.399  0.5741 -0.1960  0.3445
17781TIP3   OH274833   2.685   1.772  16.531 -0.6309  0.4069 -0.0167
17781TIP3    H174834   2.590   1.783  16.532 -0.5432  2.0879 -3.0033
17781TIP3    H274835   2.719   1.856  16.565 -0.1737 -0.5109  1.8936
17782TIP3   OH274836   4.138   2.267   4.627  0.0993 -0.1125  0.0059
17782TIP3    H174837   4.153   2.284   4.534 -1.1850  0.3490 -0.1234
17782TIP3    H274838   4.103   2.178   4.630  2.7067 -1.1753  0.3046
17783TIP3   OH274839   6.465   6.662   2.568  0.3036  1.1472  0.0089
17783TIP3    H174840   6.388   6.675   2.624  0.3674 -1.7945  0.8598
17783TIP3    H274841   6.535   6.706   2.615 -0.3488  1.6449  0.5345
17784TIP3   OH274842   4.697   3.281  15.448  0.3218 -0.4813 -0.1946
17784TIP3    H174843   4.707   3.234  15.365  0.4254 -0.0498 -0.4260
17784TIP3    H274844   4.602   3.281  15.463  0.2932 -0.4550 -0.3728
17785TIP3   OH274845   3.097   3.818  14.098  0.0626 -0.5406 -0.1622
17785TIP3    H174846   3.156   3.859  14.161 -2.3476  0.6938  1.4089
17785TIP3    H274847   3.096   3.879  14.024  2.3305 -1.6218 -1.1187
17786TIP3   OH274848   3.990   4.038   5.941  0.0010 -0.3954  0.6425
17786TIP3    H174849   3.989   4.016   5.847 -1.3911 -0.2008  0.6077
17786TIP3    H274850   4.083   4.051   5.961  0.1164  2.4541 -1.3939
17787TIP3   OH274851   3.346   0.081  14.402  0.0543 -0.1333 -0.0101
17787TIP3    H174852   3.258   0.046  14.412  0.4826 -1.3528 -0.3345
17787TIP3    H274853   3.337   0.175  14.413 -1.2195 -0.3020  0.3750
17788TIP3   OH274854   5.171   2.703   3.221 -0.3560 -0.0911  0.2598
17788TIP3    H174855   5.142   2.611   3.217  0.0846 -0.2104 -0.2035
17788TIP3    H274856   5.093   2.753   3.195 -0.2616 -0.3949 -0.6338
17789TIP3   OH274857   4.158   0.501  10.625 -0.1239 -0.0331 -0.3568
17789TIP3    H174858   4.155   0.471  10.716  1.2421 -0.2575 -0.3834
17789TIP3    H274859   4.251   0.502  10.603 -0.4013  0.7597 -1.5098
17790TIP3   OH274860   4.261   2.020   2.552 -0.5070  0.7245 -0.0611
17790TIP3    H174861   4.275   1.926   2.561 -0.8407  0.3498 -3.0362
17790TIP3    H274862   4.344   2.059   2.579  0.5375 -0.6010 -1.2734
17791TIP3   OH274863   3.561   1.983  11.927 -0.4885 -0.1024 -0.0849
17791TIP3    H174864   3.605   1.985  12.012 -1.1372 -0.2951  0.2613
17791TIP3    H274865   3.509   2.063  11.924 -0.7238 -0.2570 -0.1595
17792TIP3   OH274866   0.261   0.642  13.494  0.5548  0.6149 -0.0023
17792TIP3    H174867   0.225   0.659  13.407  0.9524  0.7752 -0.1344
17792TIP3    H274868   0.208   0.696  13.553 -0.6962 -0.6110  0.0467
17793TIP3   OH274869   1.637   1.908  12.988  0.6068 -0.0374 -0.1393
17793TIP3    H174870   1.552   1.932  12.952 -0.4062 -2.4820  0.5214
17793TIP3    H274871   1.659   1.980  13.047 -0.2508  1.3782 -1.5217
17794TIP3   OH274872   2.826   0.891  12.292  0.1013 -0.0616  0.4360
17794TIP3    H174873   2.901   0.899  12.233 -0.7783 -2.1214 -1.0006
17794TIP3    H274874   2.847   0.815  12.347 -0.3986  0.0960  0.8521
17795TIP3   OH274875   2.354   3.675   0.373 -0.2406 -0.0814  0.0620
17795TIP3    H174876   2.395   3.756   0.344 -0.9168  0.3222  0.2411
17795TIP3    H274877   2.329   3.692   0.464 -0.7284 -0.3647 -0.0201
17796TIP3   OH274878   4.341   6.808  15.577 -0.7363 -0.1848  0.0179
17796TIP3    H174879   4.299   6.727  15.549  0.6808 -1.3043  1.0914
17796TIP3    H274880   4.281   6.844  15.643 -1.5067 -0.1889 -0.6679
17797TIP3   OH274881   5.164   0.474   3.056  0.2862 -0.6717  0.6374
17797TIP3    H174882   5.175   0.463   3.150  0.7420 -1.1829  0.5254
17797TIP3    H274883   5.218   0.549   3.034  0.0986 -0.4895  0.8027
17798TIP3   OH274884   6.563   4.102  14.125  0.6148  0.1447 -0.0026
17798TIP3    H174885   6.569   4.070  14.215  0.2267 -1.1323 -0.4125
17798TIP3    H274886   6.507   4.038  14.081  0.5339  0.9419 -1.0656
17799TIP3   OH274887   6.493   2.500   3.781  0.2452 -0.1508 -0.6441
17799TIP3    H174888   6.532   2.543   3.857  1.1059 -1.5488 -0.2614
17799TIP3    H274889   6.546   2.421   3.769 -0.3977 -0.3634 -2.1944
17800TIP3   OH274890   5.037   5.454  14.426 -0.2213 -0.2778 -0.2652
17800TIP3    H174891   5.039   5.537  14.475  0.9802 -2.2884  3.2436
17800TIP3    H274892   4.963   5.406  14.464 -1.0674 -0.7497 -2.4572
17801TIP3   OH274893   1.962   6.791  17.211  0.1844  0.1055  0.3876
17801TIP3    H174894   1.998   6.806  17.298 -1.0526  1.2383  0.7304
17801TIP3    H274895   1.904   6.715  17.221  1.9219 -1.2974 -0.0157
17802TIP3   OH274896   5.359   4.145  13.912  0.5830  0.0986  0.1537
17802TIP3    H174897   5.366   4.229  13.868  1.2175  0.3610  0.7608
17802TIP3    H274898   5.321   4.165  13.997 -1.2315 -0.4806 -0.4719
17803TIP3   OH274899   2.761   2.036   4.974  0.3055 -0.4196 -0.4024
17803TIP3    H174900   2.829   2.044   5.041 -2.1158  0.8078  2.0061
17803TIP3    H274901   2.733   2.126   4.957 -2.1222 -1.0262  0.1863
17804TIP3   OH274902   5.435   2.903   4.220 -0.1560 -0.4500  0.0319
17804TIP3    H174903   5.421   2.848   4.297  0.3337 -0.9829 -0.2530
17804TIP3    H274904   5.353   2.950   4.208 -0.1882 -0.2556  0.9685
17805TIP3   OH274905   2.209   3.720   4.537 -0.1943 -0.4261  0.7513
17805TIP3    H174906   2.256   3.725   4.454  1.1905 -1.1379  1.4579
17805TIP3    H274907   2.228   3.632   4.569 -0.9372 -0.2511  1.6808
17806TIP3   OH274908   2.283   2.051   3.279 -0.0950 -0.3499 -0.2719
17806TIP3    H174909   2.368   2.053   3.235  0.4131 -0.0796  0.7198
17806TIP3    H274910   2.299   2.091   3.365 -1.3701  0.3368 -0.3450
17807TIP3   OH274911   1.298   5.697  11.678  0.2428  0.1452 -0.3299
17807TIP3    H174912   1.302   5.699  11.582 -0.5707  1.5783 -0.3548
17807TIP3    H274913   1.220   5.645  11.697 -1.3597  2.3607 -0.5404
17808TIP3   OH274914   5.820   3.926   0.729 -0.0413  0.6114  0.0347
17808TIP3    H174915   5.774   3.911   0.812 -1.5639  2.0576 -0.5209
17808TIP3    H274916   5.750   3.935   0.664  1.0465  2.1314 -0.9449
17809TIP3   OH274917   0.784   4.875   4.881  0.1325 -0.4948 -0.4720
17809TIP3    H174918   0.708   4.824   4.909 -0.9210  0.8559 -0.8342
17809TIP3    H274919   0.779   4.872   4.785  0.2172  0.0634 -0.4922
17810TIP3   OH274920   1.869   2.707  13.880 -0.5127 -0.0599 -0.1285
17810TIP3    H174921   1.958   2.672  13.889 -0.5563  0.0121  0.6009
17810TIP3    H274922   1.870   2.788  13.932 -1.6019 -1.1610  1.6319
17811TIP3   OH274923   6.288   0.160   2.121  0.1930 -0.8752 -0.6054
17811TIP3    H174924   6.196   0.135   2.134 -1.1147  3.7937  0.1925
17811TIP3    H274925   6.323   0.169   2.210  0.2805  1.0402 -0.8130
17812TIP3   OH274926   0.443   1.587  16.280 -0.0531 -0.3423 -0.5958
17812TIP3    H174927   0.410   1.512  16.330 -0.1859 -0.1479 -0.3918
17812TIP3    H274928   0.465   1.551  16.194  0.6268 -0.7825 -0.2478
17813TIP3   OH274929   0.987   3.907  14.095 -0.1240  0.8124 -0.2458
17813TIP3    H174930   1.014   3.914  14.186 -2.4928 -0.5618  0.6194
17813TIP3    H274931   0.913   3.845  14.096  1.1683 -0.9319 -3.3656
17814TIP3   OH274932   1.126   0.280  13.089 -0.1189 -0.9363 -0.0323
17814TIP3    H174933   1.210   0.242  13.062 -0.0535 -0.2988 -0.7486
17814TIP3    H274934   1.115   0.252  13.180  1.7966  0.5761  0.6933
17815TIP3   OH274935   1.529   4.493  13.172  0.4290  0.1248  0.0095
17815TIP3    H174936   1.468   4.565  13.188 -3.4032 -3.0840  0.8077
17815TIP3    H274937   1.565   4.472  13.258 -1.4636 -1.3511  0.4838
17816TIP3   OH274938   0.330   6.591   0.616 -0.2017 -1.0306  0.2868
17816TIP3    H174939   0.350   6.660   0.552 -1.1339  0.3517  1.4668
17816TIP3    H274940   0.396   6.602   0.684  2.6742 -4.3976 -1.7827
17817TIP3   OH274941   5.732   3.828   5.556 -0.2169  0.1664  0.2185
17817TIP3    H174942   5.710   3.749   5.507  1.2821  0.3075 -0.7139
17817TIP3    H274943   5.648   3.859   5.591 -0.9422 -1.3025 -0.2023
17818TIP3   OH274944   1.113   0.368  13.822 -0.4794 -0.5698  0.1346
17818TIP3    H174945   1.025   0.392  13.794 -0.1890 -0.4687 -0.6867
17818TIP3    H274946   1.163   0.450  13.816 -0.8830 -0.0791  2.8080
17819TIP3   OH274947   0.540   3.156  11.920  0.3379 -0.0559 -0.3089
17819TIP3    H174948   0.483   3.119  11.852 -1.0389 -1.7501  1.6907
17819TIP3    H274949   0.481   3.209  11.974  0.9397 -0.6140  0.9091
17820TIP3   OH274950   2.911   2.799  12.515  0.1251  0.4032  0.1180
17820TIP3    H174951   2.934   2.780  12.424  0.6674 -0.1751  0.3709
17820TIP3    H274952   2.953   2.882  12.534  1.4269 -0.3039  0.3590
17821TIP3   OH274953   0.709   5.837   2.473 -0.4441 -0.4083  0.5136
17821TIP3    H174954   0.719   5.797   2.387 -2.5448  1.5975 -0.7082
17821TIP3    H274955   0.795   5.875   2.492 -0.9458  2.3263 -2.3762
17822TIP3   OH274956   0.630   3.144  10.621 -0.1858 -0.6088  0.0081
17822TIP3    H174957   0.696   3.211  10.637  1.0410 -1.3787 -1.6251
17822TIP3    H274958   0.654   3.072  10.679 -0.0235 -0.6166 -0.0702
17823TIP3   OH274959   0.489   2.174   6.484 -0.4858  0.3293 -0.2610
17823TIP3    H174960   0.424   2.225   6.436 -1.2683 -0.7188 -0.3528
17823TIP3    H274961   0.559   2.235   6.504 -1.5182  1.4839 -0.1458
17824TIP3   OH274962   0.459   6.778  11.207 -0.7034 -0.5830 -0.0425
17824TIP3    H174963   0.416   6.765  11.122 -0.1414  1.0248 -0.6039
17824TIP3    H274964   0.550   6.796  11.185 -0.4918 -0.4562  0.9235
17825TIP3   OH274965   0.677   3.696   4.982 -0.0295 -0.4402 -0.6648
17825TIP3    H174966   0.613   3.757   5.020  0.4120 -1.1744  1.3493
17825TIP3    H274967   0.625   3.622   4.952 -0.3705  0.0696 -1.3516
17826TIP3   OH274968   2.596   1.557   2.318  0.0337  0.2495  0.0183
17826TIP3    H174969   2.567   1.631   2.264  0.2499 -0.6681 -1.3965
17826TIP3    H274970   2.617   1.488   2.255 -0.2001 -1.0391  1.3174
17827TIP3   OH274971   5.243   3.043   1.446  0.1233  0.2095  0.1814
17827TIP3    H174972   5.221   3.008   1.360  0.4875 -0.3821  0.3257
17827TIP3    H274973   5.268   3.134   1.429 -0.7900  0.3907 -0.1990
17828TIP3   OH274974   5.096   0.463   2.347  0.6507  0.7631  0.2377
17828TIP3    H174975   5.103   0.491   2.438  1.9596  1.4002 -0.0473
17828TIP3    H274976   5.118   0.370   2.348 -0.9055  0.3899  0.7866
17829TIP3   OH274977   0.840   6.075   4.992  0.4790 -0.6728  0.1801
17829TIP3    H174978   0.913   6.014   5.003  1.6152  0.5451 -0.5910
17829TIP3    H274979   0.835   6.122   5.075  0.8884 -0.4166  0.0606
17830TIP3   OH274980   2.103   0.850   3.598  0.0719 -0.1553 -0.1718
17830TIP3    H174981   2.021   0.870   3.553 -0.2310  0.2847  0.5645
17830TIP3    H274982   2.118   0.757   3.581  0.4602  0.2033 -1.9793
17831TIP3   OH274983   6.592   2.774  12.811 -0.8572 -0.1466 -0.7944
17831TIP3    H174984   6.563   2.740  12.727 -2.5699  0.3655 -0.4359
17831TIP3    H274985   6.651   2.846  12.789 -2.2975  0.8156 -1.5674
17832TIP3   OH274986   0.934   3.690  15.734  0.0761 -0.4796 -0.3528
17832TIP3    H174987   0.991   3.760  15.765 -1.8799  1.8152 -1.7797
17832TIP3    H274988   0.972   3.662  15.651 -0.0329 -0.0280 -0.5526
17833TIP3   OH274989   0.663   0.781   2.377 -0.1239 -0.0497  0.2774
17833TIP3    H174990   0.670   0.788   2.282 -2.0811 -0.3812  0.0974
17833TIP3    H274991   0.721   0.708   2.401  0.2504 -0.0592 -0.6611
17834TIP3   OH274992   3.540   3.967   2.675 -0.1302 -0.0622  0.1257
17834TIP3    H174993   3.490   3.952   2.595 -0.1633 -1.6651  0.4170
17834TIP3    H274994   3.481   3.943   2.746  0.7769 -1.2661  0.5016
17835TIP3   OH274995   5.951   4.363  15.227  0.1372 -0.8513 -0.7657
17835TIP3    H174996   5.868   4.378  15.272 -0.4270 -1.1216 -1.6984
17835TIP3    H274997   5.971   4.271  15.244  1.1470 -0.3361  0.9218
17836TIP3   OH274998   2.906   5.034  17.268  0.4050 -0.0101 -0.1220
17836TIP3    H174999   2.964   5.094  17.314 -1.3294  1.4865  0.1697
17836TIP3    H275000   2.889   4.964  17.332 -0.0360  0.7938  0.6521
17837TIP3   OH275001   5.748   4.617   0.716 -0.0491 -0.1185  0.3374
17837TIP3    H175002   5.842   4.600   0.722 -0.0740 -0.3953 -0.0156
17837TIP3    H275003   5.723   4.579   0.631 -0.5013 -0.1606  0.4895
17838TIP3   OH275004   6.544   1.619   0.977 -0.3558 -0.4038 -0.0935
17838TIP3    H175005   6.517   1.528   0.966 -1.6909 -0.2493  1.6595
17838TIP3    H275006   6.639   1.618   0.963 -0.0787 -2.3768  1.6853
17839TIP3   OH275007   0.958   2.321  16.990  0.3404 -0.1489 -0.2542
17839TIP3    H175008   0.909   2.319  17.072  0.4811  0.8628 -0.1309
17839TIP3    H275009   0.970   2.230  16.966  0.5278 -0.4600  0.9961
17840TIP3   OH275010   3.998   3.906   3.535 -0.3699  0.6300 -0.6260
17840TIP3    H175011   4.038   3.820   3.549  1.3902  1.3798 -0.8565
17840TIP3    H275012   3.904   3.891   3.547  0.0335 -1.0413  0.6969
17841TIP3   OH275013   3.218   0.855   0.149  0.7731  0.2104 -0.0701
17841TIP3    H175014   3.224   0.913   0.073 -0.9134 -0.6127 -0.8632
17841TIP3    H275015   3.134   0.877   0.189  0.5171 -1.0659  0.1232
17842TIP3   OH275016   4.345   1.897   6.081  0.3198 -0.3324  0.1331
17842TIP3    H175017   4.409   1.953   6.125  0.4070 -0.9281  0.7623
17842TIP3    H275018   4.292   1.861   6.152  0.2819 -1.0772 -0.2736
17843TIP3   OH275019   2.745   2.473  10.915 -0.0109  0.4389  0.3721
17843TIP3    H175020   2.666   2.463  10.862  0.9008  0.9155 -1.0984
17843TIP3    H275021   2.806   2.407  10.881  0.6279  0.8420  0.7234
17844TIP3   OH275022   0.950   2.619  12.141 -0.7353 -0.1731 -0.1756
17844TIP3    H175023   0.966   2.649  12.230 -0.6710 -0.5161 -0.0710
17844TIP3    H275024   1.034   2.582  12.112  0.3103  3.1311 -1.6479
17845TIP3   OH275025   0.091   0.180  13.055 -0.2903 -0.6313  1.2065
17845TIP3    H175026   0.039   0.100  13.062  0.0728 -1.1119 -1.0589
17845TIP3    H275027   0.171   0.153  13.010 -1.1219  1.3466 -1.6623
17846TIP3   OH275028   2.208   0.182   2.323 -1.0690 -0.1923 -0.3756
17846TIP3    H175029   2.233   0.275   2.321 -3.5466  0.4878 -0.6159
17846TIP3    H275030   2.195   0.162   2.415 -0.8739 -0.2206 -0.3533
17847TIP3   OH275031   5.980   5.541   3.954  0.0756 -0.3200  0.3981
17847TIP3    H175032   5.999   5.499   3.870 -0.1784  2.7369 -1.2575
17847TIP3    H275033   6.066   5.553   3.995  0.3876  0.0386 -0.3574
17848TIP3   OH275034   5.347   6.238  17.051  0.0742  0.3448 -0.2628
17848TIP3    H175035   5.366   6.245  17.145 -0.3150 -0.2441 -0.1352
17848TIP3    H275036   5.420   6.282  17.009  1.1541 -0.8758  0.2574
17849TIP3   OH275037   1.541   3.530   6.216 -0.5306 -0.0488 -0.5684
17849TIP3    H175038   1.574   3.469   6.282  1.7683 -0.3752 -1.9674
17849TIP3    H275039   1.615   3.588   6.198 -1.2083  0.1813 -2.6897
17850TIP3   OH275040   0.464   0.277  15.190  0.0960  0.0469 -0.2528
17850TIP3    H175041   0.428   0.246  15.108 -0.3833  2.0871 -0.8475
17850TIP3    H275042   0.389   0.282  15.249  0.3114 -0.6906  0.0922
17851TIP3   OH275043   5.579   1.381  14.276 -0.2745 -0.2095 -0.1028
17851TIP3    H175044   5.591   1.470  14.243 -0.3938 -0.5830 -1.1737
17851TIP3    H275045   5.590   1.389  14.371 -2.9189  1.4164  0.1178
17852TIP3   OH275046   6.404   4.626   2.531 -0.2464  0.3218  0.2454
17852TIP3    H175047   6.331   4.597   2.585  0.4239 -0.7763  0.5900
17852TIP3    H275048   6.394   4.578   2.449  0.4692 -0.3811  0.5547
17853TIP3   OH275049   1.216   1.353   0.817  1.0455  0.2692 -0.1654
17853TIP3    H175050   1.307   1.376   0.799  0.5733  0.1252 -2.9257
17853TIP3    H275051   1.196   1.283   0.755 -1.3258  1.1878 -0.4858
17854TIP3   OH275052   2.727   6.142   3.075 -0.7591 -0.3454  0.1089
17854TIP3    H175053   2.675   6.072   3.034 -0.7626 -0.2943  0.0271
17854TIP3    H275054   2.662   6.208   3.101 -0.9441 -1.0952  1.6384
17855TIP3   OH275055   2.881   4.340   6.520  0.0057  0.3955  0.2856
17855TIP3    H175056   2.974   4.325   6.534 -0.2484  1.7083  3.8861
17855TIP3    H275057   2.876   4.430   6.489  0.0196 -0.2231 -1.5835
17856TIP3   OH275058   0.853   4.278   0.803 -0.2953 -0.2323  0.9161
17856TIP3    H175059   0.758   4.290   0.810 -0.3793 -0.3949  0.1636
17856TIP3    H275060   0.867   4.260   0.710  0.5344  0.3079  0.9386
17857TIP3   OH275061   0.186   2.775  13.358  0.3803  0.6210  0.2737
17857TIP3    H175062   0.121   2.824  13.307  0.4975 -1.2852 -1.8071
17857TIP3    H275063   0.260   2.835  13.367 -0.1011  1.3922 -0.8394
17858TIP3   OH275064   4.941   0.048   2.807  0.4864  0.6749  0.0147
17858TIP3    H175065   4.900   0.114   2.751 -0.3253 -0.3471 -0.6004
17858TIP3    H275066   4.942  -0.032   2.754  5.9002  1.2849 -1.1472
17859TIP3   OH275067   0.706   4.179  17.161 -0.4342  0.1733 -0.2621
17859TIP3    H175068   0.616   4.170  17.195 -0.7977  0.4330 -1.1451
17859TIP3    H275069   0.717   4.106  17.101  0.8752 -1.3688  1.8208
17860TIP3   OH275070   6.668   1.434  14.625  0.4831  0.4438  0.9700
17860TIP3    H175071   6.651   1.505  14.563  0.8099  0.4616  0.9011
17860TIP3    H275072   6.686   1.358  14.570  1.1521  0.5486  1.0397
17861TIP3   OH275073   3.442   3.670   4.438 -0.0137  0.0183 -0.2298
17861TIP3    H175074   3.452   3.753   4.391  1.2352  0.4183  0.7001
17861TIP3    H275075   3.355   3.639   4.414 -0.6166  1.7490 -0.3609
17862TIP3   OH275076   4.654   5.338   1.703 -0.0037  0.5101  0.4507
17862TIP3    H175077   4.636   5.244   1.698  1.9975  0.0424  1.4024
17862TIP3    H275078   4.573   5.377   1.735 -0.5398 -1.0154  0.9652
17863TIP3   OH275079   3.869   6.426   4.959  0.1304  0.5532  0.1131
17863TIP3    H175080   3.920   6.353   4.924  0.6640  1.1801 -0.4365
17863TIP3    H275081   3.800   6.440   4.894 -0.7806 -0.3058  0.8640
17864TIP3   OH275082   1.540   0.710   5.622  0.1318 -0.4262 -0.2742
17864TIP3    H175083   1.503   0.649   5.687 -3.3936  1.8730  0.0249
17864TIP3    H275084   1.596   0.768   5.672  0.8801 -1.3518 -0.0256
17865TIP3   OH275085   2.947   5.542  14.852  0.2976 -0.3413  0.2543
17865TIP3    H175086   2.969   5.494  14.931  0.0091 -0.5123  0.2305
17865TIP3    H275087   3.013   5.611  14.847  0.0235 -0.0291  0.9067
17866TIP3   OH275088   3.000   5.013   6.229 -0.1238 -0.0653 -0.3053
17866TIP3    H175089   2.989   5.107   6.234 -2.3317 -0.4229  2.5008
17866TIP3    H275090   3.057   4.991   6.303  0.2290 -0.9850 -0.8296
17867TIP3   OH275091   6.816   5.896  13.711 -0.2308  0.1084  0.7552
17867TIP3    H175092   6.883   5.958  13.681 -0.6082  0.3634  0.4353
17867TIP3    H275093   6.775   5.938  13.786 -2.2016  1.3902 -0.9771
17868TIP3   OH275094   2.046   1.676   1.016 -0.4459 -0.3761 -0.1650
17868TIP3    H175095   1.968   1.732   1.019  0.1092  0.3095  2.3593
17868TIP3    H275096   2.018   1.600   0.965 -1.1384  2.2421 -3.9571
17869TIP3   OH275097   5.566   3.692   4.221 -0.0163 -0.6239 -0.0467
17869TIP3    H175098   5.623   3.759   4.183 -1.3015  0.7554  0.3873
17869TIP3    H275099   5.520   3.655   4.145 -0.1867 -0.1504 -0.1833
17870TIP3   OH275100   4.477   1.177   1.939 -1.0971  0.1075 -0.1807
17870TIP3    H175101   4.565   1.165   1.904 -1.0795 -0.8770  0.1869
17870TIP3    H275102   4.450   1.263   1.907 -0.3335  0.0498 -1.0093
17871TIP3   OH275103   0.318   0.418  12.191  0.2972 -0.2065  0.1166
17871TIP3    H175104   0.351   0.503  12.163 -2.0086  0.3433 -1.0104
17871TIP3    H275105   0.351   0.408  12.280 -1.4437  3.0076  1.2000
17872TIP3   OH275106   5.713   5.219   2.366  0.0263  0.1123 -0.0613
17872TIP3    H175107   5.789   5.162   2.359 -0.0247 -0.0689  0.8164
17872TIP3    H275108   5.644   5.162   2.402  0.1926  0.9223  1.5603
17873TIP3   OH275109   3.559   4.510   6.071 -0.3719  0.3862  0.6652
17873TIP3    H175110   3.552   4.439   6.134 -2.0258  0.9382  1.1266
17873TIP3    H275111   3.574   4.588   6.124  0.2749  0.5519  0.2424
17874TIP3   OH275112   1.072   2.436   4.596  0.6211 -0.5788 -0.2765
17874TIP3    H175113   1.096   2.444   4.504  1.6066 -0.3568 -0.0063
17874TIP3    H275114   1.022   2.515   4.614  1.1167 -0.2261 -0.4191
17875TIP3   OH275115   2.277   5.539   1.780 -0.6930 -0.9327 -0.0614
17875TIP3    H175116   2.217   5.514   1.710  1.5919 -2.6685 -1.4440
17875TIP3    H275117   2.288   5.634   1.770 -1.4473 -0.9604 -1.1842
17876TIP3   OH275118   5.055   4.586   4.266  0.1040 -0.2523 -0.2209
17876TIP3    H175119   4.998   4.540   4.327  1.3960 -2.1908 -0.4442
17876TIP3    H275120   5.128   4.526   4.251  1.6929  1.7567 -0.7331
17877TIP3   OH275121   0.729   4.485  14.086  0.1601  0.2215  0.4548
17877TIP3    H175122   0.811   4.467  14.040  0.6551  0.0352  1.4015
17877TIP3    H275123   0.670   4.415  14.059  0.4936  0.0241  0.2370
17878TIP3   OH275124   4.258   5.280   5.277  0.3290 -0.0235 -0.1893
17878TIP3    H175125   4.183   5.313   5.228  1.4931  1.8421 -0.7753
17878TIP3    H275126   4.312   5.357   5.293 -0.5205 -0.3458  5.0537
17879TIP3   OH275127   6.649   1.428  12.169  0.4685  0.2111 -0.1354
17879TIP3    H175128   6.698   1.452  12.248  1.6243  1.5272 -1.2201
17879TIP3    H275129   6.637   1.511  12.123  1.6073 -0.8140 -2.3491
17880TIP3   OH275130   0.816   5.816   0.198 -0.4784  0.6017  0.1481
17880TIP3    H175131   0.862   5.898   0.181 -1.4984  0.7201 -2.1878
17880TIP3    H275132   0.726   5.832   0.168 -0.7550 -1.2606 -0.0869
17881TIP3   OH275133   5.594   2.315   6.120  0.4937  0.3840  0.3728
17881TIP3    H175134   5.689   2.326   6.114  0.4168  0.5063 -0.8044
17881TIP3    H275135   5.560   2.404   6.126  0.4083  0.3832 -0.0666
17882TIP3   OH275136   3.534   4.437   3.159 -0.1303  0.7721 -0.3113
17882TIP3    H175137   3.605   4.495   3.132 -0.2470  0.3413 -1.5736
17882TIP3    H275138   3.554   4.353   3.117 -1.1206  0.5055 -0.2652
17883TIP3   OH275139   4.056   5.130   2.992 -0.3463 -0.0201  0.1629
17883TIP3    H175140   3.982   5.134   2.931 -0.3120  1.5346  0.1983
17883TIP3    H275141   4.123   5.187   2.953  0.0284  0.2528  1.1743
17884TIP3   OH275142   3.114   5.844  12.864 -0.1211 -0.0305  0.2166
17884TIP3    H175143   3.150   5.853  12.776 -1.7633  1.1566 -0.3551
17884TIP3    H275144   3.096   5.751  12.874  0.6946 -0.2607 -0.4405
17885TIP3   OH275145   5.385   0.500   2.521 -0.1888  0.6558  0.7151
17885TIP3    H175146   5.338   0.578   2.549 -1.6493 -0.3272  1.1041
17885TIP3    H275147   5.373   0.438   2.593 -0.0849 -0.3341 -0.1076
17886TIP3   OH275148   3.999   0.971  15.083  0.3843  0.4764  0.0320
17886TIP3    H175149   4.041   0.886  15.070  0.0337  0.4369 -0.8774
17886TIP3    H275150   3.908   0.956  15.056  0.1331  0.9404  0.6114
17887TIP3   OH275151   5.043   0.806   4.891  0.4034 -0.3783  0.2818
17887TIP3    H175152   5.125   0.836   4.930 -0.4423  0.2452  1.6270
17887TIP3    H275153   5.029   0.863   4.816  0.4476  0.4787  0.9243
17888TIP3   OH275154   2.927   2.038  13.992  0.2331 -0.0894 -0.6267
17888TIP3    H175155   3.002   2.039  13.932  1.2456 -0.6523  0.5889
17888TIP3    H275156   2.923   2.127  14.027  1.0012 -0.3237  0.0846
17889TIP3   OH275157   6.141   2.505  14.436 -0.4326  0.5619  0.1039
17889TIP3    H175158   6.107   2.520  14.348  0.4268 -1.5497 -0.6116
17889TIP3    H275159   6.219   2.450  14.423  1.5574  2.8388  1.9328
17890TIP3   OH275160   3.091   5.815   5.681 -0.5005  0.3084 -0.4248
17890TIP3    H175161   3.136   5.857   5.754  0.5594  1.8091 -1.8888
17890TIP3    H275162   3.015   5.871   5.664 -0.4212  0.2932 -0.8440
17891TIP3   OH275163   5.440   4.933  16.239  0.7363  1.4278 -0.2542
17891TIP3    H175164   5.509   4.999  16.235  2.0367  0.1820  1.0101
17891TIP3    H275165   5.419   4.914  16.147  2.1293  1.7880 -0.6581
17892TIP3   OH275166   1.195   0.200   3.660  0.3772 -0.1988 -0.0135
17892TIP3    H175167   1.227   0.150   3.585 -1.3105 -0.5373 -0.5170
17892TIP3    H275168   1.130   0.142   3.701 -0.3988  0.9240  0.3466
17893TIP3   OH275169   5.523   4.131  14.548  0.1199  0.8192  0.2556
17893TIP3    H175170   5.449   4.095  14.596  2.2197 -0.2394  2.8221
17893TIP3    H275171   5.556   4.201  14.605  1.8864  0.3852 -0.2168
17894TIP3   OH275172   5.214   0.491  15.464 -0.4592  0.8387  0.0194
17894TIP3    H175173   5.196   0.465  15.554 -0.0553  1.0419  0.1634
17894TIP3    H275174   5.257   0.576  15.472  0.6610  0.3209 -0.2955
17895TIP3   OH275175   5.874   3.006   0.835 -0.4109  0.9250  0.5068
17895TIP3    H175176   5.815   2.973   0.768 -0.2396 -0.2001  0.9083
17895TIP3    H275177   5.906   3.090   0.800 -1.1035  0.8318 -0.3545
17896TIP3   OH275178   4.377   1.222  13.467 -0.2623 -0.5623 -0.1602
17896TIP3    H175179   4.375   1.126  13.473  0.2058 -0.5325  0.6806
17896TIP3    H275180   4.382   1.241  13.374  2.6894 -1.4508 -0.2411
17897TIP3   OH275181   1.292   5.636   5.329 -0.0416 -0.8541 -0.1128
17897TIP3    H175182   1.223   5.570   5.336 -0.8775 -0.0755 -0.8789
17897TIP3    H275183   1.323   5.648   5.418 -1.4677 -0.6125  0.3641
17898TIP3   OH275184   2.954   5.897   1.842  0.2215 -0.5090 -0.7763
17898TIP3    H175185   3.028   5.957   1.849 -0.1343 -0.2535  1.2716
17898TIP3    H275186   2.993   5.811   1.828  0.9124 -0.3167 -0.0843
17899TIP3   OH275187   6.077   4.060  14.920  0.0509 -0.0848 -0.0356
17899TIP3    H175188   6.138   4.113  14.972  2.1128 -0.8081 -1.6485
17899TIP3    H275189   6.065   3.980  14.971 -3.4063  1.9466  2.6243
17900TIP3   OH275190   0.346   0.606  15.629  0.1394  0.0815 -0.5793
17900TIP3    H175191   0.417   0.578  15.687  0.5190 -0.4842 -1.3131
17900TIP3    H275192   0.313   0.525  15.590  1.1021  0.6159 -2.5516
17901TIP3   OH275193   5.952   2.382  16.801 -0.5228 -0.5974 -0.0115
17901TIP3    H175194   5.901   2.440  16.858 -1.0834 -0.7247 -0.3736
17901TIP3    H275195   5.965   2.303  16.853  0.8321  0.1020  0.7354
17902TIP3   OH275196   4.043   1.686   0.902 -0.2060 -0.0803  0.0092
17902TIP3    H175197   4.030   1.692   0.808 -0.6592 -2.7875 -0.1276
17902TIP3    H275198   4.001   1.765   0.937 -2.5981 -0.4990 -1.8058
17903TIP3   OH275199   2.491   2.606  14.551  0.4759  0.1744  0.5156
17903TIP3    H175200   2.530   2.528  14.512 -0.1870 -0.0146  0.2225
17903TIP3    H275201   2.549   2.629  14.623  1.2170 -0.0110 -0.0148
17904TIP3   OH275202   5.354   0.116  14.386  0.2521 -0.3901 -0.3353
17904TIP3    H175203   5.259   0.121  14.378  0.3544  0.6797 -1.0792
17904TIP3    H275204   5.387   0.133  14.298  1.1446 -0.0633  0.0450
17905TIP3   OH275205   2.359   5.953   2.551 -0.1128  0.9026  0.4550
17905TIP3    H175206   2.435   5.987   2.596  1.3160 -0.4595 -0.8703
17905TIP3    H275207   2.334   5.875   2.601 -1.3437  1.9669  1.5381
17906TIP3   OH275208   5.934   1.541   1.154  0.5305 -0.4379  0.1962
17906TIP3    H175209   5.854   1.512   1.110  0.1169  0.1103  0.5919
17906TIP3    H275210   5.976   1.599   1.091 -0.1758  0.5264  0.6072
17907TIP3   OH275211   4.576   4.963  12.245 -0.3081 -0.1567  0.2889
17907TIP3    H175212   4.605   5.051  12.221 -0.2474  0.2095  1.6602
17907TIP3    H275213   4.653   4.908  12.234 -0.2977 -0.0086 -0.3957
17908TIP3   OH275214   3.223   5.608  11.140 -0.5975 -0.0550  0.2710
17908TIP3    H175215   3.269   5.615  11.223  1.0336  0.9801 -0.6993
17908TIP3    H275216   3.185   5.520  11.141  1.9643 -1.2052  0.8089
17909TIP3   OH275217   6.685   4.942  11.462  0.3025  0.3032 -0.5582
17909TIP3    H175218   6.754   4.959  11.525  1.1519  1.0833 -1.6951
17909TIP3    H275219   6.731   4.922  11.380 -0.7578 -1.6386 -0.7273
17910TIP3   OH275220   6.024   1.797   5.817  0.5447 -0.6324 -0.2107
17910TIP3    H175221   6.103   1.847   5.840  1.6700 -1.7616 -1.5402
17910TIP3    H275222   6.037   1.712   5.858 -1.8293  0.4245  2.8866
17911TIP3   OH275223   2.144   6.104  16.714  0.1124 -0.3814  0.1629
17911TIP3    H175224   2.202   6.033  16.740  1.1627  0.1666 -0.6299
17911TIP3    H275225   2.189   6.184  16.742  0.4366  0.1283 -1.7096
17912TIP3   OH275226   4.761   6.257  14.614 -0.1002 -0.2238 -0.7082
17912TIP3    H175227   4.751   6.266  14.519 -1.8939  1.0530 -0.4143
17912TIP3    H275228   4.676   6.227  14.644 -0.2966  1.7281  0.7691
17913TIP3   OH275229   0.310   1.098  16.997 -0.3740 -0.3457 -0.1469
17913TIP3    H175230   0.241   1.046  16.955  0.1264 -0.9270 -0.2507
17913TIP3    H275231   0.281   1.108  17.088  0.4599 -2.4602  0.3696
17914TIP3   OH275232   0.521   5.423  16.082  1.2157  0.0300  0.0455
17914TIP3    H175233   0.565   5.497  16.040  1.1057  0.3703  0.5205
17914TIP3    H275234   0.570   5.411  16.164  0.4860  0.3356  0.5232
17915TIP3   OH275235   1.363   3.130   4.937  0.1507  0.4410  0.6013
17915TIP3    H175236   1.441   3.094   4.978  1.1224  0.1039 -1.4807
17915TIP3    H275237   1.391   3.156   4.849 -1.6049  2.1495  0.4984
17916TIP3   OH275238   6.038   1.256   3.417 -0.6859  0.0865 -0.4504
17916TIP3    H175239   5.960   1.308   3.397  0.2258  1.6560  0.0542
17916TIP3    H275240   6.070   1.227   3.332 -1.5323 -0.1714 -0.6899
17917TIP3   OH275241   2.505   5.729  17.214 -0.1813 -0.3265 -0.5074
17917TIP3    H175242   2.411   5.721  17.199 -0.1605 -0.8862 -0.3365
17917TIP3    H275243   2.515   5.723  17.309  0.1943 -2.0869 -0.6388
17918TIP3   OH275244   6.573   6.538  16.426  0.9496  0.2615  0.2483
17918TIP3    H175245   6.492   6.500  16.390  1.2680  0.2066 -0.4203
17918TIP3    H275246   6.591   6.486  16.504 -0.4947  1.2465  1.2655
17919TIP3   OH275247   3.388   1.905  15.396  0.1532  0.3427 -0.0331
17919TIP3    H175248   3.392   1.995  15.363 -1.1259  0.4958  0.1970
17919TIP3    H275249   3.479   1.878  15.404  0.5658  1.8565  0.4976
17920TIP3   OH275250   1.144   4.780  12.115 -0.1392 -0.1622  0.0935
17920TIP3    H175251   1.193   4.698  12.113 -1.7837 -1.1857  0.7869
17920TIP3    H275252   1.062   4.760  12.069 -0.4501  1.1528  0.0594
17921TIP3   OH275253   1.398   0.463   4.789  0.4120  0.4399 -0.2209
17921TIP3    H175254   1.406   0.391   4.726  1.3778  0.0714  0.3119
17921TIP3    H275255   1.315   0.449   4.833  0.3350 -0.0300 -0.5202
17922TIP3   OH275256   4.121   4.619  11.758  0.6233 -0.3021  0.6553
17922TIP3    H175257   4.130   4.674  11.679 -1.7571  0.4933  0.8780
17922TIP3    H275258   4.048   4.560  11.737  0.3175 -0.4301  2.0724
17923TIP3   OH275259   6.401   2.210   3.968  0.1838  0.2996  0.1558
17923TIP3    H175260   6.367   2.187   3.882  1.4692 -0.2488 -0.2151
17923TIP3    H275261   6.359   2.294   3.988 -0.4810  0.2071 -0.7953
17924TIP3   OH275262   5.283   1.157  12.742 -0.1410  0.5694  0.1740
17924TIP3    H175263   5.338   1.219  12.789  0.5253 -0.4276  0.7283
17924TIP3    H275264   5.246   1.101  12.810 -0.1875 -0.0816 -0.3783
17925TIP3   OH275265   0.268   3.310   4.082 -0.2053 -0.2090  0.2226
17925TIP3    H175266   0.200   3.250   4.054 -0.5732  0.3413 -0.0748
17925TIP3    H275267   0.238   3.343   4.167 -0.0749 -0.3312  0.3172
17926TIP3   OH275268   5.337   5.830   0.184  0.2492  0.1706 -0.1606
17926TIP3    H175269   5.280   5.834   0.262 -0.5698 -1.0915 -0.6724
17926TIP3    H275270   5.363   5.921   0.169 -2.0666  0.8636 -0.2086
17927TIP3   OH275271   0.890   5.636   5.939  0.3970  0.4355  0.1170
17927TIP3    H175272   0.858   5.722   5.968  1.6606  0.3156  1.9358
17927TIP3    H275273   0.979   5.631   5.972 -0.3089 -2.3926  1.7051
17928TIP3   OH275274   0.769   2.785  13.875  0.3814  0.1252  0.0483
17928TIP3    H175275   0.726   2.862  13.912 -2.3004 -0.7948 -1.0224
17928TIP3    H275276   0.754   2.793  13.780  3.6483  0.3763 -0.4954
17929TIP3   OH275277   6.589   1.192  13.436 -0.5170  0.6036 -0.6815
17929TIP3    H175278   6.565   1.198  13.529  0.2321  1.0686 -0.5132
17929TIP3    H275279   6.684   1.198  13.435 -0.4387 -0.5596 -1.4012
17930TIP3   OH275280   6.049   2.747   5.594 -0.8049  0.1641  0.4958
17930TIP3    H175281   5.959   2.727   5.622 -0.8747  2.3532  1.9922
17930TIP3    H275282   6.073   2.825   5.645  1.4796  0.3823 -0.8461
17931TIP3   OH275283   5.468   6.631  12.715  0.2926  0.0104  0.1030
17931TIP3    H175284   5.517   6.620  12.797  0.0319 -1.6918  0.0615
17931TIP3    H275285   5.404   6.700  12.733 -0.6210 -1.2328  1.7548
17932TIP3   OH275286   5.256   5.635   6.569 -0.5275 -0.0543  0.1684
17932TIP3    H175287   5.324   5.680   6.519 -0.1500  1.3950  1.9509
17932TIP3    H275288   5.191   5.702   6.589 -1.5848 -1.0246  0.0707
17933TIP3   OH275289   1.128   1.525  12.939 -0.2953 -0.0455  0.0026
17933TIP3    H175290   1.085   1.610  12.947 -1.0730 -0.5249  0.9821
17933TIP3    H275291   1.219   1.547  12.915 -0.5027  1.0505  0.1745
17934TIP3   OH275292   3.063   1.115   4.650 -1.0291  0.1851  0.6104
17934TIP3    H175293   3.125   1.123   4.577 -1.3890 -1.2632  0.1389
17934TIP3    H275294   3.116   1.133   4.728 -0.8418  2.6412 -0.0556
17935TIP3   OH275295   3.320   3.187   1.333 -0.0011  0.8293  0.5237
17935TIP3    H175296   3.403   3.140   1.338  0.2135  1.3126  1.6964
17935TIP3    H275297   3.322   3.231   1.248  2.0398  2.8177  1.5276
17936TIP3   OH275298   6.287   3.752   1.607  0.4647  0.0147 -0.5800
17936TIP3    H175299   6.254   3.735   1.695 -1.8448  0.3377 -1.3344
17936TIP3    H275300   6.338   3.832   1.614 -2.0480  1.6369 -0.0196
17937TIP3   OH275301   1.030   5.169   1.639 -0.1029  0.2712 -0.2130
17937TIP3    H175302   0.987   5.091   1.674  1.8551 -1.5761 -1.8129
17937TIP3    H275303   1.027   5.158   1.544  0.6779  1.8909 -0.4578
17938TIP3   OH275304   3.782   5.328  12.137 -0.4135 -0.1430  0.2167
17938TIP3    H175305   3.794   5.363  12.049  1.9999 -0.1288  0.5136
17938TIP3    H275306   3.866   5.343  12.180 -1.7810  0.5293  2.7733
17939TIP3   OH275307   1.031   2.682   1.309 -0.3738 -0.0776 -0.2331
17939TIP3    H175308   0.947   2.730   1.309  0.1456  0.8576 -0.8807
17939TIP3    H275309   1.073   2.707   1.391 -1.0899 -1.2051  0.4838
17940TIP3   OH275310   2.426   4.827   1.819 -0.1083  0.1040  0.3692
17940TIP3    H175311   2.416   4.865   1.732  0.7996 -1.8613 -0.6241
17940TIP3    H275312   2.505   4.868   1.854  1.5168 -1.6314 -1.1544
17941TIP3   OH275313   5.444   4.649   4.442 -0.5916  0.5287  0.2964
17941TIP3    H175314   5.374   4.594   4.407 -0.4201  0.3502  0.2337
17941TIP3    H275315   5.399   4.727   4.474 -1.0645 -0.5434  2.2628
17942TIP3   OH275316   4.942   0.808  12.356 -0.4441  0.7016  0.4438
17942TIP3    H175317   4.961   0.886  12.407 -0.2958  0.4571  0.7653
17942TIP3    H275318   4.868   0.767  12.401 -2.1799  1.9815 -1.1590
17943TIP3   OH275319   2.225   6.577  15.977 -0.3732  0.5048  0.2128
17943TIP3    H175320   2.253   6.568  15.886  1.9321  1.1036  0.8256
17943TIP3    H275321   2.130   6.585  15.972 -0.3246 -0.0366 -2.0964
17944TIP3   OH275322   0.267   0.692  17.025 -0.0225 -0.5732  0.5097
17944TIP3    H175323   0.316   0.632  16.969  1.8923  0.9383  0.4915
17944TIP3    H275324   0.201   0.730  16.967 -0.2949 -1.5612  0.1630
17945TIP3   OH275325   5.694   0.749  16.410 -1.1940  0.3975 -0.5827
17945TIP3    H175326   5.674   0.711  16.495  0.5215 -1.9043 -1.1452
17945TIP3    H275327   5.673   0.679  16.347  0.7152  0.8369 -1.7536
17946TIP3   OH275328   6.688   0.935   4.938  0.3010  0.4056 -0.3594
17946TIP3    H175329   6.713   0.863   4.996  3.0032  1.0013 -0.7364
17946TIP3    H275330   6.599   0.958   4.966  1.1430  0.0031  2.8585
17947TIP3   OH275331   3.447   3.049  12.862 -0.0276 -0.2018 -0.2493
17947TIP3    H175332   3.352   3.064  12.865  0.1215  0.5597  0.8639
17947TIP3    H275333   3.480   3.119  12.805 -0.0198  0.2143  0.2538
17948TIP3   OH275334   5.634   6.789   2.572 -0.5355 -0.1169 -0.2614
17948TIP3    H175335   5.602   6.848   2.641  0.8706  1.5524 -0.9996
17948TIP3    H275336   5.650   6.846   2.497  2.6530 -1.0967 -0.4118
17949TIP3   OH275337   4.612   4.510   1.497  0.3846 -0.1616 -0.1827
17949TIP3    H175338   4.569   4.581   1.545  1.6617  1.1567 -0.9541
17949TIP3    H275339   4.557   4.434   1.514 -2.4873  1.5232 -1.4097
17950TIP3   OH275340   5.744   0.934   3.044  0.5611  0.2759 -0.8732
17950TIP3    H175341   5.789   0.917   3.127  0.3022  0.7508 -0.6325
17950TIP3    H275342   5.782   0.872   2.982  0.9677  0.1239 -0.4686
17951TIP3   OH275343   6.240   6.134  16.465 -0.2055 -0.3451  0.3698
17951TIP3    H175344   6.181   6.153  16.392 -0.1274  1.7356  0.8096
17951TIP3    H275345   6.316   6.190  16.450  0.5715 -1.1966  1.1052
17952TIP3   OH275346   4.018   6.440  17.066  0.0165  0.0583 -0.1617
17952TIP3    H175347   3.930   6.409  17.044  0.3884 -2.2130  1.2818
17952TIP3    H275348   4.037   6.398  17.150  2.5878  0.2828 -0.5908
17953TIP3   OH275349   5.322   2.549   2.195 -0.2702  0.0475  0.0927
17953TIP3    H175350   5.340   2.611   2.124 -0.9699 -0.6889 -0.7511
17953TIP3    H275351   5.375   2.579   2.268  4.5646 -2.0980 -2.2975
17954TIP3   OH275352   2.795   4.527   0.488  1.2691  0.3241  0.0064
17954TIP3    H175353   2.834   4.441   0.502  0.2857 -0.1756 -0.3027
17954TIP3    H275354   2.701   4.512   0.492  1.0372  1.0378 -1.9159
17955TIP3   OH275355   2.830   3.942  11.318 -0.1667 -0.4169 -0.0560
17955TIP3    H175356   2.824   3.952  11.223  0.3038 -1.8179 -0.2492
17955TIP3    H275357   2.786   3.859  11.336 -0.2933 -0.1389  0.9544
17956TIP3   OH275358   1.322   5.163  11.122  0.2439  0.6580  0.5657
17956TIP3    H175359   1.266   5.223  11.074  1.6261  0.7562 -0.9621
17956TIP3    H275360   1.293   5.170  11.213 -2.1020  0.8034 -0.1677
17957TIP3   OH275361   4.590   1.132   0.567 -0.0954  0.0456  0.0212
17957TIP3    H175362   4.506   1.124   0.612 -0.4479  0.5402 -0.5378
17957TIP3    H275363   4.592   1.223   0.537  1.9766  0.9539  2.6579
17958TIP3   OH275364   6.079   5.944   1.916 -0.6795  0.4363 -0.0975
17958TIP3    H175365   6.129   5.997   1.853 -0.3265 -0.1407 -0.3195
17958TIP3    H275366   5.999   5.994   1.932 -1.0747  0.3034 -1.5095
17959TIP3   OH275367   5.405   2.919   5.881 -0.0615 -0.7995  0.2314
17959TIP3    H175368   5.438   2.990   5.826 -0.3481 -0.2378  0.7697
17959TIP3    H275369   5.409   2.841   5.826 -0.3921 -0.2343 -0.5930
17960TIP3   OH275370   0.919   4.965   1.158  0.0647  0.3564  0.1450
17960TIP3    H175371   0.901   5.030   1.226  0.8826  1.3085 -0.5281
17960TIP3    H275372   1.011   4.940   1.171 -0.3191 -0.8812  0.5681
17961TIP3   OH275373   4.874   5.077  15.054  0.2919  0.5564 -0.2503
17961TIP3    H175374   4.898   5.139  15.123  1.9388 -0.7990  0.4332
17961TIP3    H275375   4.948   5.078  14.994  0.0204 -0.2260 -0.6057
17962TIP3   OH275376   0.528   2.853   2.115  0.5977  0.8971 -0.3034
17962TIP3    H175377   0.459   2.811   2.167  0.0200  1.7796 -0.3518
17962TIP3    H275378   0.594   2.878   2.179 -0.2209  2.1941  0.0392
17963TIP3   OH275379   0.003   0.687   4.643  0.2269 -0.8212 -0.5671
17963TIP3    H175380  -0.009   0.593   4.660 -3.1737  0.1404  3.0784
17963TIP3    H275381   0.045   0.720   4.721 -2.1759  1.3100 -0.1031
17964TIP3   OH275382   5.197   0.133   0.097 -0.0772 -0.2494  0.2016
17964TIP3    H175383   5.232   0.051   0.132 -0.0919 -0.6450 -0.6863
17964TIP3    H275384   5.135   0.105   0.029 -1.7999  0.4459  1.4479
17965TIP3   OH275385   2.934   0.575   1.272  0.2368 -0.1372  0.5945
17965TIP3    H175386   3.026   0.595   1.289 -0.1877  1.5321  1.0181
17965TIP3    H275387   2.897   0.556   1.358 -0.3531  1.5692  0.7330
17966TIP3   OH275388   0.150   1.933   5.018  0.1102  0.0634 -0.4131
17966TIP3    H175389   0.070   1.904   4.975 -1.5990  3.2501  0.4284
17966TIP3    H275390   0.119   1.992   5.087  3.2431  2.3097 -0.8549
17967TIP3   OH275391   6.580   5.507   0.508 -0.2388  0.4054  0.5380
17967TIP3    H175392   6.576   5.510   0.604 -0.9796 -0.1638  0.5256
17967TIP3    H275393   6.503   5.456   0.482 -0.3353  1.0209 -0.3913
17968TIP3   OH275394   1.323   2.807  16.722 -0.1397 -0.1485  0.0716
17968TIP3    H175395   1.350   2.778  16.635 -0.1110 -2.8786  0.9459
17968TIP3    H275396   1.234   2.773  16.732 -0.0843  0.0085  1.1418
17969TIP3   OH275397   4.673   0.804   0.758  0.1741 -0.4274 -0.0076
17969TIP3    H175398   4.736   0.804   0.831 -0.6689 -1.1046  0.7170
17969TIP3    H275399   4.598   0.755   0.790 -0.9824  0.8606 -0.6631
17970TIP3   OH275400   4.726   6.524   2.926  0.2732 -0.8146  0.8192
17970TIP3    H175401   4.817   6.507   2.950  0.4442 -1.2448 -0.1459
17970TIP3    H275402   4.699   6.595   2.985  1.3303 -0.4647  0.8884
17971TIP3   OH275403   0.024   2.769  15.435  0.2635  0.2313  1.1146
17971TIP3    H175404   0.038   2.717  15.514  2.0913 -2.1560 -0.6855
17971TIP3    H275405   0.091   2.837  15.439  0.2415  0.2205  1.6962
17972TIP3   OH275406   2.866   6.657   2.989 -0.5960  0.2737  0.2372
17972TIP3    H175407   2.896   6.719   2.922 -3.5039  1.4396 -0.0239
17972TIP3    H275408   2.939   6.653   3.051  0.7431  1.8598 -1.1761
17973TIP3   OH275409   6.081   0.368   1.340  0.1099 -0.7533 -0.2015
17973TIP3    H175410   6.093   0.365   1.435  0.1308  0.8963 -0.1415
17973TIP3    H275411   6.170   0.373   1.305  0.0756 -0.7610 -0.2894
17974TIP3   OH275412   6.050   6.322   5.680  0.5697 -0.4543  0.3080
17974TIP3    H175413   6.099   6.261   5.625 -0.3392 -0.5115 -0.4483
17974TIP3    H275414   6.113   6.352   5.745  0.9581 -2.4157  0.8631
17975TIP3   OH275415   4.705   2.157  12.605 -0.1043  0.0897 -0.1033
17975TIP3    H175416   4.702   2.209  12.525 -0.4765  0.4466  0.1451
17975TIP3    H275417   4.737   2.071  12.577 -0.7837  0.0422 -0.7237
17976TIP3   OH275418   4.369   5.534  11.388 -0.3094  0.2390  0.0019
17976TIP3    H175419   4.314   5.506  11.315 -0.3880  0.6389 -0.0943
17976TIP3    H275420   4.332   5.489  11.464  0.7619 -1.4485 -0.4526
17977TIP3   OH275421   5.177   6.196   2.498 -0.2276 -0.1841  0.4481
17977TIP3    H175422   5.256   6.198   2.444 -0.3946 -1.9046  0.1036
17977TIP3    H275423   5.116   6.256   2.455  0.3644 -0.0011 -0.1346
17978TIP3   OH275424   2.280   3.639  12.335 -0.8989  0.5303 -0.1009
17978TIP3    H175425   2.232   3.655  12.253  0.6449 -2.8744 -1.7766
17978TIP3    H275426   2.234   3.567  12.376  0.3664 -0.0603  0.3059
17979TIP3   OH275427   4.035   3.497   1.604 -0.3823 -0.0959 -0.4123
17979TIP3    H175428   4.035   3.546   1.522  2.5927  0.2473 -0.2372
17979TIP3    H275429   4.105   3.535   1.656 -2.3358 -0.1719  2.4265
17980TIP3   OH275430   0.723   1.089  12.918 -0.0551 -0.2243  0.0264
17980TIP3    H175431   0.678   1.022  12.970  0.0722  1.0227  1.7649
17980TIP3    H275432   0.665   1.165  12.922  1.0109  0.5924  0.1865
17981TIP3   OH275433   0.230   3.476  12.524 -0.1756  0.1164  0.4586
17981TIP3    H175434   0.221   3.457  12.430  1.9197  0.8465  0.0666
17981TIP3    H275435   0.251   3.392  12.564  1.0137  0.1562 -0.0560
17982TIP3   OH275436   4.021   0.822  17.012 -0.2524  0.1054  0.2368
17982TIP3    H175437   3.942   0.783  16.975  0.0661  0.2592 -0.6230
17982TIP3    H275438   3.994   0.853  17.098 -0.5635 -1.8296  0.8634
17983TIP3   OH275439   0.161   0.161   1.812  0.5942 -0.6717  0.3841
17983TIP3    H175440   0.212   0.221   1.757  2.6313 -2.2083  0.4951
17983TIP3    H275441   0.087   0.135   1.757  1.5101 -0.6300 -0.8957
17984TIP3   OH275442   4.577   6.264   2.907  0.0103  0.3873  0.0256
17984TIP3    H175443   4.643   6.333   2.919 -0.4679  0.5031  2.1628
17984TIP3    H275444   4.502   6.309   2.869 -0.8558  1.3872  2.8128
17985TIP3   OH275445   6.059   2.604  11.372  0.1913 -0.7218 -0.3890
17985TIP3    H175446   6.080   2.659  11.297 -0.4027 -0.6685 -0.5199
17985TIP3    H275447   5.964   2.607  11.378  0.3035  0.2304  1.0930
17986TIP3   OH275448   4.883   5.355   2.041  0.4625 -0.1316  0.2271
17986TIP3    H175449   4.859   5.263   2.032  0.7385 -0.0921 -0.9394
17986TIP3    H275450   4.817   5.391   2.100  2.2627 -1.8346  3.4568
17987TIP3   OH275451   0.385   5.709   0.297 -0.2602  0.5667  0.6519
17987TIP3    H175452   0.472   5.669   0.302 -0.3967  0.0990 -0.6163
17987TIP3    H275453   0.351   5.702   0.387  1.8648  2.7774  1.6740
17988TIP3   OH275454   6.783   3.338   4.435  0.1572  0.4030  0.6195
17988TIP3    H175455   6.690   3.342   4.457 -0.3060  0.5163 -1.2564
17988TIP3    H275456   6.804   3.245   4.434  0.1223  0.3873  1.2644
17989TIP3   OH275457   0.206   2.553  13.516 -0.1567 -0.2539  0.0575
17989TIP3    H175458   0.190   2.615  13.588 -0.0119 -0.7271  0.5019
17989TIP3    H275459   0.188   2.604  13.437 -0.8635  0.1119  0.4427
17990TIP3   OH275460   3.058   0.425   1.025 -0.2984 -0.4271 -0.6881
17990TIP3    H175461   3.118   0.401   1.096  2.0103  1.6871 -1.8472
17990TIP3    H275462   2.986   0.470   1.070  0.2467 -0.7127  0.5085
17991TIP3   OH275463   4.824   6.662  16.835  0.5110  0.1931 -0.8940
17991TIP3    H175464   4.762   6.614  16.780 -0.7645  1.6722 -0.7791
17991TIP3    H275465   4.775   6.738  16.866  3.0315  2.6034 -2.5852
17992TIP3   OH275466   0.219   0.671  11.536 -0.1993 -0.7048 -0.4113
17992TIP3    H175467   0.278   0.692  11.608  0.6733 -1.5633 -0.8791
17992TIP3    H275468   0.272   0.623  11.473 -1.3718 -1.4361 -0.8723
17993TIP3   OH275469   1.714   4.483  12.952  0.3991  0.1106  0.8112
17993TIP3    H175470   1.660   4.503  13.029 -1.8656 -0.4782 -0.5701
17993TIP3    H275471   1.678   4.401  12.919  0.4533  1.0514 -1.6505
17994TIP3   OH275472   6.497   3.038  16.251 -0.0241  0.2183 -0.9724
17994TIP3    H175473   6.485   3.007  16.341 -0.3032  0.8075 -0.8026
17994TIP3    H275474   6.554   2.973  16.211  0.3681  0.1209 -0.2751
17995TIP3   OH275475   5.783   5.972  17.197 -0.1727  0.0740  0.3372
17995TIP3    H175476   5.706   6.025  17.174  0.5427  0.2732 -1.6730
17995TIP3    H275477   5.769   5.949  17.289 -0.6534  3.5121  1.2224
17996TIP3   OH275478   0.109   3.723  10.973  0.2235  0.4917  0.6403
17996TIP3    H175479   0.153   3.639  10.981 -0.1698  0.1197 -0.8535
17996TIP3    H275480   0.015   3.702  10.978  0.0935  0.7099 -0.6730
17997TIP3   OH275481   6.061   4.808   2.820  0.0063  0.5363  0.3166
17997TIP3    H175482   5.993   4.843   2.762 -0.2003  2.1426  1.4908
17997TIP3    H275483   6.141   4.815   2.769 -0.3977  0.5563 -0.3315
17998TIP3   OH275484   2.009   1.287   5.488 -0.1339  0.1953 -0.6213
17998TIP3    H175485   2.057   1.225   5.433  0.4430 -0.7011  0.8624
17998TIP3    H275486   2.059   1.290   5.570  0.2998  3.2330 -0.9398
17999TIP3   OH275487   1.386   0.754   3.368 -0.2518 -0.2677 -0.4321
17999TIP3    H175488   1.400   0.836   3.319  1.2724  0.4080  1.0472
17999TIP3    H275489   1.325   0.778   3.438  1.5522  0.0762  1.0628
18000TIP3   OH275490   5.908   2.761   1.041  0.1582 -0.3237  0.0681
18000TIP3    H175491   5.939   2.791   0.955  0.4625 -1.0086 -0.0614
18000TIP3    H275492   5.813   2.778   1.039  0.2844  0.3801 -0.1051
18001TIP3   OH275493   4.906   3.229  15.989  0.4325 -0.1226  0.1485
18001TIP3    H175494   4.972   3.165  15.961  1.0279  0.7454 -0.4369
18001TIP3    H275495   4.861   3.254  15.908  0.1993  0.2092  0.3768
18002TIP3   OH275496   5.876   0.844  11.246  0.5947 -0.0569  0.3145
18002TIP3    H175497   5.840   0.760  11.216 -0.1098  0.9134 -1.6469
18002TIP3    H275498   5.819   0.910  11.206 -0.0266  1.3410  3.4072
18003TIP3   OH275499   3.760   2.490  12.305  0.1792 -0.8716 -0.1023
18003TIP3    H175500   3.720   2.403  12.311 -1.1607 -0.1929  0.9717
18003TIP3    H275501   3.764   2.508  12.211 -2.0348 -0.9668 -0.2240
18004TIP3   OH275502   1.414   5.165   3.143 -0.0676 -0.1743 -0.3790
18004TIP3    H175503   1.491   5.118   3.175  0.1947  0.4247 -0.1090
18004TIP3    H275504   1.339   5.120   3.182  0.2325  0.3239  0.7821
18005TIP3   OH275505   2.081   4.288   2.846  0.2617 -0.2242 -0.1761
18005TIP3    H175506   2.097   4.212   2.903 -0.6895 -0.2956  0.0112
18005TIP3    H275507   2.036   4.351   2.902 -0.7624 -0.3303 -0.8676
18006TIP3   OH275508   2.218   4.702   3.852 -0.4515 -0.0906  0.3229
18006TIP3    H175509   2.241   4.614   3.883 -0.6072 -0.5617 -0.8830
18006TIP3    H275510   2.130   4.717   3.887 -0.2825 -0.2628  0.8329
18007TIP3   OH275511   6.597   2.355  14.705 -0.1810 -0.2320  0.3347
18007TIP3    H175512   6.601   2.421  14.635 -2.8453 -2.0455 -1.6449
18007TIP3    H275513   6.519   2.379  14.755  0.1170 -0.5734  0.9591
18008TIP3   OH275514   4.806   5.768  15.409  0.1338  0.1662  0.3257
18008TIP3    H175515   4.900   5.752  15.400  0.3142  1.4895 -0.2175
18008TIP3    H275516   4.777   5.793  15.321 -0.4281  1.3028  0.8181
18009TIP3   OH275517   1.870   5.900   5.931 -0.2668 -0.3018 -0.1609
18009TIP3    H175518   1.959   5.890   5.966  0.5082  1.0266 -1.6279
18009TIP3    H275519   1.848   5.992   5.949 -0.7343 -0.2215 -1.1082
18010TIP3   OH275520   2.579   3.299   1.357 -0.1766 -0.1055 -0.5396
18010TIP3    H175521   2.641   3.270   1.291 -0.1688 -0.5575 -0.3374
18010TIP3    H275522   2.626   3.364   1.408  0.3256 -0.8424 -0.0434
18011TIP3   OH275523   5.616   1.819   0.383 -0.1862 -0.0129 -0.4340
18011TIP3    H175524   5.600   1.906   0.347 -0.4037  0.5813  1.0770
18011TIP3    H275525   5.688   1.831   0.445 -0.3290 -0.8844 -0.0907
18012TIP3   OH275526   1.847   0.578   1.455  0.0308 -0.1554 -0.5055
18012TIP3    H175527   1.818   0.597   1.544  0.6528 -0.4567 -0.2351
18012TIP3    H275528   1.844   0.482   1.450  1.3210 -0.2097 -0.3566
18013TIP3   OH275529   5.172   6.129   4.982 -0.0273  0.3239 -0.1015
18013TIP3    H175530   5.242   6.182   4.946  0.6421 -0.8282 -0.5434
18013TIP3    H275531   5.175   6.047   4.932 -0.6929 -0.3288  0.8854
18014TIP3   OH275532   4.173   0.342  15.572  0.4178  0.1077 -0.1387
18014TIP3    H175533   4.215   0.420  15.536  0.6479 -0.0667 -0.2475
18014TIP3    H275534   4.151   0.366  15.662 -0.6963  0.7518 -0.5739
18015TIP3   OH275535   5.563   3.993  12.273 -0.1714 -0.0414 -0.4110
18015TIP3    H175536   5.468   3.983  12.276 -0.3594  2.1065  2.8307
18015TIP3    H275537   5.596   3.924  12.330 -0.0355  1.3440  1.2392
18016TIP3   OH275538   2.980   4.102   4.514  0.0595  0.7524  0.0086
18016TIP3    H175539   3.021   4.071   4.595  2.7997 -3.5813 -2.8004
18016TIP3    H275540   3.037   4.172   4.483  0.2655  0.8770  0.6576
18017TIP3   OH275541   5.820   3.946  16.115  0.1194  0.2509 -0.0974
18017TIP3    H175542   5.739   3.988  16.086 -0.5449 -2.7242 -2.8312
18017TIP3    H275543   5.808   3.933  16.209 -2.5512 -0.0212 -0.4385
18018TIP3   OH275544   1.118   2.715   4.059 -1.0999 -0.2121 -0.0860
18018TIP3    H175545   1.055   2.680   3.997 -0.2274  2.4421 -2.5723
18018TIP3    H275546   1.204   2.700   4.018 -0.3980  0.1552  1.2092
18019TIP3   OH275547   0.269   6.267  12.945  1.0526 -0.2788  0.1798
18019TIP3    H175548   0.242   6.322  13.019  0.3345 -1.0612  0.5087
18019TIP3    H275549   0.189   6.257  12.892  1.1007 -1.2403  0.2779
18020TIP3   OH275550   3.320   1.252  11.063 -0.0269 -0.3805  0.4872
18020TIP3    H175551   3.377   1.328  11.056 -0.3112 -0.1049  1.1461
18020TIP3    H275552   3.231   1.287  11.054 -0.1482 -0.6663  0.5368
18021TIP3   OH275553   2.920   6.032  15.456 -0.4641  0.4031 -0.3310
18021TIP3    H175554   3.006   5.996  15.475 -0.5610 -0.1930 -1.0124
18021TIP3    H275555   2.902   6.091  15.530 -0.3585 -1.0205  0.8529
18022TIP3   OH275556   3.144   0.843  14.220 -0.0895  0.1733 -0.1321
18022TIP3    H175557   3.199   0.778  14.265  0.0576 -1.3416 -2.4135
18022TIP3    H275558   3.199   0.875  14.149 -0.9544  1.1789 -0.3495
18023TIP3   OH275559   3.568   1.964   3.965 -0.4469  0.4897  0.4081
18023TIP3    H175560   3.645   2.000   3.919  0.8027  1.8983  3.4749
18023TIP3    H275561   3.581   1.870   3.961  1.1504  0.6823  0.3697
18024TIP3   OH275562   5.601   1.343  11.120  0.4629 -0.5045  0.1348
18024TIP3    H175563   5.666   1.332  11.189 -2.2536 -0.2345  2.8508
18024TIP3    H275564   5.605   1.261  11.070  1.2053 -1.4843  1.7578
18025TIP3   OH275565   1.572   4.862  14.187  0.1038 -0.5363 -0.0300
18025TIP3    H175566   1.530   4.781  14.214  1.5113 -1.1858  0.2512
18025TIP3    H275567   1.540   4.876  14.097 -0.4048 -1.2199  0.0398
18026TIP3   OH275568   1.809   3.182   6.009  0.3682  0.2817  0.3846
18026TIP3    H175569   1.750   3.107   6.017 -1.2249  1.1221 -2.8216
18026TIP3    H275570   1.788   3.236   6.086 -0.6675 -1.0362  1.0494
18027TIP3   OH275571   6.538   0.683   5.179  0.1886  0.5497  0.4038
18027TIP3    H175572   6.508   0.678   5.088  2.5781  0.6427 -0.4273
18027TIP3    H275573   6.548   0.592   5.206 -0.9428  0.5163  0.7351
18028TIP3   OH275574   0.272   4.500  11.816 -0.8464  0.5418 -0.0692
18028TIP3    H175575   0.187   4.514  11.858 -0.3957  2.2193  0.2953
18028TIP3    H275576   0.269   4.552  11.736 -0.1270  0.6781 -0.0116
18029TIP3   OH275577   3.086   3.998  10.739  0.6707 -0.1894  0.0341
18029TIP3    H175578   3.019   3.974  10.802  0.7726  0.9646  0.5888
18029TIP3    H275579   3.139   3.918  10.728  0.7924 -0.3272  1.5701
18030TIP3   OH275580   1.543   0.685   0.230 -0.2942 -0.1817 -0.4042
18030TIP3    H175581   1.487   0.761   0.244  0.0350  0.2091 -1.2041
18030TIP3    H275582   1.583   0.669   0.316 -1.8243 -0.6347  0.2417
18031TIP3   OH275583   2.216   6.619   0.905 -0.1804 -0.4658 -0.0366
18031TIP3    H175584   2.274   6.652   0.974  0.7038 -1.5776 -0.2339
18031TIP3    H275585   2.190   6.532   0.935 -2.2235  0.2448  0.3182
18032TIP3   OH275586   1.437   0.857   0.859 -0.0748  0.0424  0.1671
18032TIP3    H175587   1.441   0.766   0.888  2.1796 -0.2912 -1.0574
18032TIP3    H275588   1.442   0.908   0.940 -0.1339 -0.9139  0.7889
18033TIP3   OH275589   2.983   0.580   3.238 -0.8152 -0.2307  0.4838
18033TIP3    H175590   3.024   0.522   3.302 -0.8728 -1.0781 -0.2457
18033TIP3    H275591   2.975   0.527   3.159 -2.4864  0.2244  0.3392
18034TIP3   OH275592   2.262   4.479  12.514  0.2020 -0.2597  0.3145
18034TIP3    H175593   2.249   4.523  12.430 -1.4797 -0.3408  0.5187
18034TIP3    H275594   2.282   4.550  12.576 -0.8490  0.0470  0.3059
18035TIP3   OH275595   4.403   0.123   5.465 -0.1511  0.1427  0.3442
18035TIP3    H175596   4.392   0.060   5.394  1.8656  0.6461 -0.4575
18035TIP3    H275597   4.494   0.153   5.456  0.1385  0.2382  3.1247
18036TIP3   OH275598   2.947   1.055   5.079  0.1831 -0.2553  0.3255
18036TIP3    H175599   2.968   1.063   5.172 -1.4323 -0.8386  0.7641
18036TIP3    H275600   3.010   0.991   5.045  0.1932 -0.7172  1.2117
18037TIP3   OH275601   3.894   5.266  14.210  0.0867  0.1628  0.3044
18037TIP3    H175602   3.877   5.176  14.185  1.3585  0.6868 -2.6465
18037TIP3    H275603   3.964   5.260  14.276 -1.0860 -1.0834  1.4398
18038TIP3   OH275604   0.150   0.889   1.188  0.4431  0.2231 -0.4427
18038TIP3    H175605   0.201   0.968   1.166 -0.5228  0.5255 -1.6572
18038TIP3    H275606   0.061   0.910   1.162  0.1395 -1.2282 -0.6168
18039TIP3   OH275607   0.317   5.275  12.219 -0.0713  0.4875 -0.0858
18039TIP3    H175608   0.334   5.245  12.130  0.2837  0.8846 -0.1559
18039TIP3    H275609   0.361   5.360  12.225  0.0927  0.3699  0.5304
18040TIP3   OH275610   3.787   0.446   2.425 -0.6518 -0.2077 -0.3120
18040TIP3    H175611   3.729   0.471   2.353  0.4907  0.6202 -0.9494
18040TIP3    H275612   3.872   0.431   2.384  0.5847  2.4777  1.1429
18041TIP3   OH275613   3.876   4.869   1.023 -0.4528  0.5514  0.1778
18041TIP3    H175614   3.802   4.852   0.966 -0.0714 -1.8268  0.3360
18041TIP3    H275615   3.953   4.855   0.968 -0.0990 -0.0224  0.8073
18042TIP3   OH275616   3.051   5.117   2.240 -0.1007  0.3719  0.5795
18042TIP3    H175617   2.962   5.135   2.270 -0.2371  0.1876  0.2908
18042TIP3    H275618   3.100   5.197   2.261 -0.2374  0.3179  1.1099
18043TIP3   OH275619   3.794   0.491   5.386 -0.1352  0.4561  0.1908
18043TIP3    H175620   3.825   0.575   5.420 -1.2900  0.4638  1.2568
18043TIP3    H275621   3.794   0.433   5.462  0.5764 -0.5026 -0.5244
18044TIP3   OH275622   5.446   4.930   5.987 -0.9023 -0.3746 -0.4657
18044TIP3    H175623   5.420   4.911   5.897  0.3285 -0.7196 -0.7654
18044TIP3    H275624   5.527   4.981   5.978  0.1229 -1.7795  0.4582
18045TIP3   OH275625   5.919   5.355   3.477  0.0280 -0.1688 -0.0620
18045TIP3    H175626   5.928   5.439   3.432  1.4498 -0.3666 -0.1618
18045TIP3    H275627   5.825   5.347   3.493 -0.0513  1.7928  0.6171
18046TIP3   OH275628   6.621   1.466  13.278 -0.3949  0.5373 -0.6224
18046TIP3    H175629   6.615   1.522  13.201  0.1533  0.6888 -0.5537
18046TIP3    H275630   6.674   1.391  13.250  1.3325  1.4674  0.1222
18047TIP3   OH275631   6.634   4.446   6.012 -0.1671  0.1813  0.2044
18047TIP3    H175632   6.654   4.443   5.919 -0.7995 -1.4199  0.0850
18047TIP3    H275633   6.553   4.394   6.020  2.0174 -3.1558  2.1315
18048TIP3   OH275634   0.715   5.414  12.804 -0.4591  0.1469  0.1019
18048TIP3    H175635   0.636   5.435  12.855 -1.6596 -1.8539 -0.8425
18048TIP3    H275636   0.729   5.320  12.819  1.8364  0.4984  0.3458
18049TIP3   OH275637   4.808   6.633   4.535 -0.4280  0.3833  0.4244
18049TIP3    H175638   4.837   6.555   4.582  0.3847  1.6218  2.0459
18049TIP3    H275639   4.713   6.635   4.547 -0.2428  0.5859  1.8447
18050TIP3   OH275640   5.139   3.584   0.992  0.0325 -0.2633  0.0401
18050TIP3    H175641   5.210   3.602   0.930 -0.0143  0.0629  0.0814
18050TIP3    H275642   5.098   3.669   1.006  0.7676 -0.1227  1.4198
18051TIP3   OH275643   0.015   1.549   1.249 -0.7430 -0.4243 -0.3377
18051TIP3    H175644  -0.006   1.633   1.289  0.5293  0.2095 -0.9877
18051TIP3    H275645   0.030   1.490   1.323 -0.4610  0.2229  0.1236
18052TIP3   OH275646   3.161   5.490   4.886 -0.1010 -0.5269 -0.7279
18052TIP3    H175647   3.220   5.500   4.811  0.7457 -2.4774 -0.3569
18052TIP3    H275648   3.100   5.421   4.859 -0.8754 -0.0138 -0.2852
18053TIP3   OH275649   0.816   6.083   0.936 -0.1051 -0.3754 -0.2473
18053TIP3    H175650   0.892   6.063   0.881  0.0251  0.6413 -0.4622
18053TIP3    H275651   0.743   6.091   0.875  0.1487  1.3174 -0.3571
18054TIP3   OH275652   0.180   1.658   3.041  0.3837  0.1973 -0.0935
18054TIP3    H175653   0.125   1.646   2.963 -1.5701 -1.8342  1.5497
18054TIP3    H275654   0.158   1.584   3.098  4.0569 -0.0844  1.0967
18055TIP3   OH275655   3.617   3.777   0.148  0.3022  0.0523  0.9092
18055TIP3    H175656   3.551   3.836   0.111 -0.3268 -1.6679 -0.7690
18055TIP3    H275657   3.682   3.836   0.187  0.1557  1.9027 -1.4923
18056TIP3   OH275658   5.791   2.834  13.228  0.3149 -0.3273  0.1239
18056TIP3    H175659   5.791   2.858  13.321  0.7401  0.1207  0.0087
18056TIP3    H275660   5.873   2.787  13.216 -0.3461 -1.5533  0.2662
18057TIP3   OH275661   4.154   2.655   0.473  0.1760 -0.3667  0.8657
18057TIP3    H175662   4.148   2.691   0.561  1.5684  1.0705  0.4050
18057TIP3    H275663   4.247   2.663   0.450 -0.3426  0.2062 -1.1076
18058TIP3   OH275664   1.505   5.047  15.234  0.0318  0.8155 -0.0549
18058TIP3    H175665   1.447   5.030  15.160 -0.1864  0.5905  0.1639
18058TIP3    H275666   1.591   5.061  15.194 -0.0659  0.6047 -0.3452
18059TIP3   OH275667   2.323   3.955   1.855  0.1480  0.0231 -0.1404
18059TIP3    H175668   2.404   4.003   1.874 -0.3998  0.2963  1.6563
18059TIP3    H275669   2.256   4.023   1.852 -0.2896 -0.3954  0.1888
18060TIP3   OH275670   1.801   6.199  16.533  0.2502  0.4728  0.0736
18060TIP3    H175671   1.823   6.223  16.623  0.4205  1.6028 -0.2602
18060TIP3    H275672   1.770   6.281  16.493 -0.8219 -0.2409 -0.5949
18061TIP3   OH275673   4.164   2.236   0.739 -0.4489 -0.2870 -0.1982
18061TIP3    H175674   4.138   2.223   0.647 -1.6520  0.3299  0.0493
18061TIP3    H275675   4.097   2.191   0.789 -0.4367  0.3796  0.4198
18062TIP3   OH275676   0.986   5.418   1.390  0.5893 -1.0401  0.6285
18062TIP3    H175677   1.014   5.464   1.311 -3.2279  0.3456 -0.0129
18062TIP3    H275678   1.016   5.474   1.462  0.4741 -0.1642  0.0038
18063TIP3   OH275679   2.788   6.743  12.142  0.6477  0.6763  0.1584
18063TIP3    H175680   2.752   6.811  12.199 -1.6042 -0.4976  0.2084
18063TIP3    H275681   2.823   6.677  12.202  3.1248  1.8803  0.1098
18064TIP3   OH275682   5.789   0.262   4.801 -0.1042 -0.5125  0.7976
18064TIP3    H175683   5.847   0.212   4.858 -0.9594  0.2503  2.3933
18064TIP3    H275684   5.718   0.290   4.859 -0.2788  1.4816 -0.3425
18065TIP3   OH275685   5.892   3.861  15.661 -0.2933  0.2459 -0.3008
18065TIP3    H175686   5.817   3.918  15.680  0.2456  1.2655 -1.1293
18065TIP3    H275687   5.940   3.857  15.744  0.3712  2.0993 -0.5775
18066TIP3   OH275688   4.750   1.982  15.267 -0.0027  0.0777 -0.2871
18066TIP3    H175689   4.773   1.913  15.330  4.8994  1.3900 -0.4629
18066TIP3    H275690   4.690   2.039  15.315 -0.7226 -1.9149  1.2878
18067TIP3   OH275691   0.788   4.837  16.569 -0.0773 -0.1182  0.2483
18067TIP3    H175692   0.845   4.761  16.576 -1.9386 -1.5607  0.1084
18067TIP3    H275693   0.803   4.871  16.481 -1.4518 -2.1807 -0.8274
18068TIP3   OH275694   1.568   1.111  14.643 -0.5084 -0.1900 -0.6022
18068TIP3    H175695   1.604   1.200  14.640  0.2818 -0.5449 -2.3284
18068TIP3    H275696   1.622   1.066  14.709  0.0602  0.1994 -0.8000
18069TIP3   OH275697   3.632   4.762   0.057  0.0607 -0.3102  0.4828
18069TIP3    H175698   3.573   4.767  -0.018 -0.1370 -1.1715  0.5817
18069TIP3    H275699   3.713   4.803   0.026 -0.6542  1.0766  0.4252
18070TIP3   OH275700   5.367   1.340   3.551  0.5560  0.1303 -0.4536
18070TIP3    H175701   5.305   1.412   3.565  0.8147  0.0814  0.9700
18070TIP3    H275702   5.364   1.325   3.456 -2.2492 -0.4611 -0.3228
18071TIP3   OH275703   4.179   3.181  13.728 -0.1161 -0.1312 -0.6407
18071TIP3    H175704   4.197   3.092  13.759 -2.3936  0.1001  1.5180
18071TIP3    H275705   4.220   3.185  13.642  0.5052 -3.1064 -0.5436
18072TIP3   OH275706   5.601   3.757   3.577 -0.4988 -0.2824 -0.1674
18072TIP3    H175707   5.506   3.751   3.563 -0.9306  1.9062  1.6673
18072TIP3    H275708   5.613   3.742   3.670  0.9585 -0.2936 -0.3381
18073TIP3   OH275709   4.752   2.829  14.462 -0.3029 -0.2526 -0.7681
18073TIP3    H175710   4.817   2.771  14.423  2.0569 -0.2066  2.8832
18073TIP3    H275711   4.759   2.910  14.411  2.9667 -0.0541 -0.1023
18074TIP3   OH275712   4.682   6.780  15.701  0.3845  0.8948 -0.1691
18074TIP3    H175713   4.590   6.762  15.683  0.4491  0.4327 -0.0436
18074TIP3    H275714   4.689   6.774  15.797  0.5752  0.7856 -0.1898
18075TIP3   OH275715   0.811   0.543   5.983  0.5858  0.6929  0.0089
18075TIP3    H175716   0.856   0.496   5.912 -0.8958  0.2756 -0.6566
18075TIP3    H275717   0.820   0.485   6.059 -1.5424 -0.8577 -0.8917
18076TIP3   OH275718   0.075   0.205  11.453 -0.0942  0.0815 -0.6256
18076TIP3    H175719   0.118   0.182  11.371 -3.2244  1.1146 -2.6057
18076TIP3    H275720   0.048   0.296  11.443 -0.1334  0.3826  1.7497
18077TIP3   OH275721   6.133   0.746   1.269  0.4944  0.1629  0.4864
18077TIP3    H175722   6.199   0.702   1.215 -0.9282  0.2582 -1.3854
18077TIP3    H275723   6.059   0.759   1.210 -0.4160  1.9443  1.9695
18078TIP3   OH275724   0.566   1.203  10.996  0.0281 -0.3709 -0.5299
18078TIP3    H175725   0.611   1.281  10.962 -1.0084  0.2358 -0.5349
18078TIP3    H275726   0.513   1.172  10.922 -1.0678  0.0692  0.0556
18079TIP3   OH275727   0.255   0.815   3.240 -0.7461 -0.4758 -0.1112
18079TIP3    H175728   0.350   0.818   3.244 -0.8632  0.9295  5.1240
18079TIP3    H275729   0.230   0.897   3.198  0.2796  0.0321  0.2578
18080TIP3   OH275730   4.919   0.141  14.220 -0.6614 -0.0150 -0.0448
18080TIP3    H175731   4.848   0.077  14.214  0.9577 -1.8644  0.1665
18080TIP3    H275732   4.964   0.134  14.136 -1.7642  2.4331 -0.8784
18081TIP3   OH275733   0.324   5.647  12.512 -0.3780  0.2994  0.0587
18081TIP3    H175734   0.289   5.559  12.508 -1.9374  0.9520 -1.3313
18081TIP3    H275735   0.413   5.636  12.545 -1.1068 -1.6154  1.4631
18082TIP3   OH275736   2.920   0.700  10.927 -0.0209 -0.2755  0.1296
18082TIP3    H175737   2.859   0.648  10.875 -1.9241 -0.0968  2.0714
18082TIP3    H275738   2.918   0.659  11.014  1.5518  0.5989  0.5929
18083TIP3   OH275739   0.649   1.533  12.226 -0.5419 -0.0500 -0.3372
18083TIP3    H175740   0.639   1.627  12.244 -0.7691 -0.2709  0.7411
18083TIP3    H275741   0.613   1.522  12.138 -0.9774  0.7909 -0.2769
18084TIP3   OH275742   2.322   0.620   1.701 -0.1933 -0.9103 -0.0792
18084TIP3    H175743   2.332   0.616   1.606 -2.2280  0.8626 -0.4091
18084TIP3    H275744   2.406   0.653   1.733  0.3142 -1.0002 -1.3138
18085TIP3   OH275745   4.756   2.154  16.127 -0.2584 -0.6605  0.2040
18085TIP3    H175746   4.688   2.184  16.186 -0.4139 -0.9248  0.1599
18085TIP3    H275747   4.755   2.059  16.134  1.6058 -0.5901  1.9005
18086TIP3   OH275748   6.693   4.097  16.122 -0.2739 -0.5581 -0.5228
18086TIP3    H175749   6.702   4.058  16.035  2.3332  0.9819 -1.0114
18086TIP3    H275750   6.770   4.154  16.130 -1.2422  0.4222  2.2232
18087TIP3   OH275751   1.182   2.944  11.838  0.2310  0.5290  0.4736
18087TIP3    H175752   1.107   2.895  11.805  0.7901 -0.5552  0.8058
18087TIP3    H275753   1.191   3.018  11.777  0.6613 -0.9161 -1.2540
18088TIP3   OH275754   6.684   6.152   3.743  0.5517  0.4426  0.4428
18088TIP3    H175755   6.657   6.068   3.705  1.5994 -0.1544  0.9809
18088TIP3    H275756   6.779   6.154   3.730  0.8507  0.4960  2.4916
18089TIP3   OH275757   2.923   2.320   6.380  0.3989 -0.1520  0.7045
18089TIP3    H175758   2.846   2.263   6.375  0.7880 -0.5184 -1.7072
18089TIP3    H275759   2.997   2.260   6.373  0.8181  0.5273 -1.1480
18090TIP3   OH275760   2.570   5.403   3.025  0.0128 -0.1979  0.5143
18090TIP3    H175761   2.643   5.463   3.013 -0.5205  0.3097 -0.2623
18090TIP3    H275762   2.602   5.318   2.995  0.3493 -0.0208  0.3825
18091TIP3   OH275763   5.777   6.349   4.706 -0.4365 -0.1452  0.2192
18091TIP3    H175764   5.695   6.382   4.668  0.0788 -0.8233 -1.4859
18091TIP3    H275765   5.773   6.378   4.797 -3.3309 -1.5388  0.6113
18092TIP3   OH275766   3.614   1.381   2.369 -0.0510 -0.2491  0.9975
18092TIP3    H175767   3.648   1.364   2.457  0.6588  2.1369  1.2120
18092TIP3    H275768   3.574   1.468   2.375  1.0769  0.4642 -1.3217
18093TIP3   OH275769   0.894   4.188   5.023 -0.3789  0.0566  0.2796
18093TIP3    H175770   0.923   4.243   4.949 -0.0593 -0.9413 -0.3447
18093TIP3    H275771   0.818   4.234   5.058 -0.4636  0.6087 -0.6028
18094TIP3   OH275772   0.383   4.498  14.274 -0.1690  0.3035  0.1730
18094TIP3    H175773   0.473   4.505  14.305  0.4748 -1.5533 -1.1371
18094TIP3    H275774   0.333   4.469  14.350  0.7294 -0.7140  0.3863
18095TIP3   OH275775   5.601   3.006   0.405 -0.5063  0.3837 -0.7570
18095TIP3    H175776   5.616   3.097   0.378  1.6388 -0.2799 -1.8722
18095TIP3    H275777   5.554   2.967   0.330  2.7885 -0.6526 -2.3797
18096TIP3   OH275778   3.576   6.738   1.841 -0.3359  0.3562  0.2250
18096TIP3    H175779   3.597   6.798   1.912  0.4235  1.0242 -0.5531
18096TIP3    H275780   3.614   6.654   1.868  2.2520  1.2235 -0.5457
18097TIP3   OH275781   3.237   0.664  12.725 -0.0294 -0.1441 -0.1938
18097TIP3    H175782   3.162   0.604  12.722 -1.0584  0.9992  1.7973
18097TIP3    H275783   3.204   0.745  12.686  0.1985  0.3240  0.5857
18098TIP3   OH275784   3.775   4.879  15.377 -0.4183 -0.4641 -0.3419
18098TIP3    H175785   3.799   4.796  15.335 -1.4498 -0.1997 -1.4905
18098TIP3    H275786   3.814   4.946  15.321  0.4734 -0.1637  0.6239
18099TIP3   OH275787   3.528   5.429   2.070  0.5203 -0.8530 -0.2900
18099TIP3    H175788   3.494   5.352   2.024 -2.4839  0.5696 -0.5803
18099TIP3    H275789   3.480   5.431   2.153  0.1930  0.9730 -0.5039
18100TIP3   OH275790   6.128   1.849   6.391 -0.5873  0.7827 -0.1020
18100TIP3    H175791   6.058   1.796   6.430  0.6685 -0.1851  0.8834
18100TIP3    H275792   6.112   1.844   6.297  0.3059 -2.5562 -0.1470
18101TIP3   OH275793   6.418   1.893   0.696 -0.4784 -0.3468  0.3144
18101TIP3    H175794   6.421   1.870   0.603  1.3406  2.1539 -0.2983
18101TIP3    H275795   6.490   1.843   0.735  0.5161  0.6956 -0.1554
18102TIP3   OH275796   3.729   1.672  15.188  0.3808 -0.3387 -0.1541
18102TIP3    H175797   3.809   1.700  15.143  0.8583 -2.9430 -1.0536
18102TIP3    H275798   3.713   1.739  15.253  2.2373  1.2170 -1.2376
18103TIP3   OH275799   2.956   6.113  12.334  0.2768 -0.2851  0.4266
18103TIP3    H175800   3.043   6.105  12.372  0.6468  0.5680 -0.2403
18103TIP3    H275801   2.921   6.024  12.335  1.4645 -0.7557 -0.0569
18104TIP3   OH275802   0.730   4.718  11.913 -0.3707 -0.2057 -0.1199
18104TIP3    H175803   0.790   4.659  11.959 -0.4624  0.4429  0.8443
18104TIP3    H275804   0.653   4.663  11.894 -0.4838 -0.3826  0.8291
18105TIP3   OH275805   3.059   4.635  17.277 -0.3418  0.2046 -0.1619
18105TIP3    H175806   3.138   4.624  17.330 -0.4858 -1.4246 -0.2493
18105TIP3    H275807   3.090   4.627  17.186 -0.4258  0.7611 -0.2367
18106TIP3   OH275808   1.657   3.311   3.775 -0.1856  0.4038  0.0072
18106TIP3    H175809   1.607   3.267   3.844 -2.0761  1.6154 -0.5678
18106TIP3    H275810   1.611   3.291   3.694 -0.5448  2.6247 -0.3831
18107TIP3   OH275811   5.815   2.922   1.802  0.1574  0.0664 -0.3603
18107TIP3    H175812   5.780   2.937   1.715 -0.2098 -1.2853 -0.4539
18107TIP3    H275813   5.847   3.008   1.830 -2.5883  1.2097 -0.5409
18108TIP3   OH275814   1.863   0.437   5.944  0.3555  0.4708  0.3275
18108TIP3    H175815   1.834   0.528   5.940 -2.2114 -0.3370 -0.2860
18108TIP3    H275816   1.798   0.389   5.893  1.8134 -1.6832  0.4408
18109TIP3   OH275817   5.075   3.773   3.385 -0.0026 -0.1918 -0.0582
18109TIP3    H175818   5.155   3.752   3.433  0.1162  1.5647  0.5613
18109TIP3    H275819   5.031   3.689   3.374  1.6098 -1.0931  0.1554
18110TIP3   OH275820   5.293   2.930   3.347 -0.3795 -0.7231  0.0990
18110TIP3    H175821   5.263   2.852   3.301 -3.1751  1.4759 -2.0411
18110TIP3    H275822   5.216   2.959   3.397 -0.8060  2.8773 -2.4128
18111TIP3   OH275823   2.307   4.939   5.325  0.1000 -0.3834  0.2780
18111TIP3    H175824   2.273   4.933   5.235  1.5047  0.1022 -0.3053
18111TIP3    H275825   2.385   4.884   5.325  0.1820 -0.2728  1.1755
18112TIP3   OH275826   3.295   1.245  13.142 -0.1233 -0.5769  0.3439
18112TIP3    H175827   3.239   1.214  13.071  1.8243  0.8140 -1.8882
18112TIP3    H275828   3.269   1.336  13.156  2.1898  0.4135 -1.4395
18113TIP3   OH275829   1.327   2.449   1.532 -0.1100  0.5509 -0.3076
18113TIP3    H175830   1.328   2.544   1.543  0.7056  0.5020  0.0923
18113TIP3    H275831   1.384   2.416   1.602 -2.0504 -0.3700  0.9079
18114TIP3   OH275832   3.825   2.461   1.611  0.0361 -0.0736  0.1846
18114TIP3    H175833   3.901   2.403   1.621  0.3695 -0.1319 -2.3718
18114TIP3    H275834   3.856   2.547   1.639  0.6423 -0.3593  0.4054
18115TIP3   OH275835   4.690   5.015  13.214  0.0643 -0.2435 -0.0526
18115TIP3    H175836   4.757   5.083  13.222  1.7300 -2.0103  1.6498
18115TIP3    H275837   4.739   4.934  13.200 -1.9190 -1.0164 -3.0971
18116TIP3   OH275838   5.756   0.052   6.072  0.2426 -0.5830 -0.2399
18116TIP3    H175839   5.798   0.138   6.071 -0.1790 -0.3404  1.3142
18116TIP3    H275840   5.684   0.061   6.135  1.4200 -2.6365  1.4721
18117TIP3   OH275841   1.364   4.721   2.555  0.3391 -0.8120  0.2024
18117TIP3    H175842   1.397   4.807   2.580 -1.0317  0.1632 -1.2424
18117TIP3    H275843   1.408   4.660   2.613  3.4408  0.5937 -0.6078
18118TIP3   OH275844   1.099   6.206  15.700 -0.5365 -0.2268  0.1112
18118TIP3    H175845   1.107   6.171  15.611  0.9849  0.5417 -0.0737
18118TIP3    H275846   1.114   6.131  15.757 -2.6432 -0.9708 -0.2445
18119TIP3   OH275847   4.688   5.545  16.505 -0.4195  0.1142  0.7319
18119TIP3    H175848   4.637   5.467  16.482 -2.1733  1.5322 -0.2973
18119TIP3    H275849   4.626   5.617  16.496  1.5463  1.7840  0.3601
18120TIP3   OH275850   4.765   6.798  14.061  0.1421 -0.2230  0.0871
18120TIP3    H175851   4.757   6.840  13.975  0.2673 -0.2126  0.0799
18120TIP3    H275852   4.679   6.760  14.077  0.5462 -1.5409 -0.7407
18121TIP3   OH275853   0.199   2.932   4.628  0.9580  0.5082 -0.2821
18121TIP3    H175854   0.157   3.001   4.680 -0.6849  0.1712 -1.1520
18121TIP3    H275855   0.150   2.853   4.649  0.7761  0.2212 -1.7761
18122TIP3   OH275856   1.612   4.877   3.009 -0.2419 -0.0593  0.2219
18122TIP3    H175857   1.647   4.933   3.078  1.2152 -3.0577  1.9979
18122TIP3    H275858   1.688   4.852   2.957 -0.6916 -1.3503  0.1786
18123TIP3   OH275859   5.608   4.809   0.249  0.0663 -0.1956  0.3810
18123TIP3    H175860   5.670   4.879   0.270  1.0155 -0.7750 -0.4260
18123TIP3    H275861   5.664   4.733   0.229 -0.9229 -0.9410  0.4029
18124TIP3   OH275862   6.774   2.345   1.120 -0.1418 -0.0503  0.1361
18124TIP3    H175863   6.733   2.281   1.061 -2.2870  1.0484  0.3956
18124TIP3    H275864   6.866   2.346   1.093 -0.2645 -2.5014 -0.5372
18125TIP3   OH275865   6.493   4.967   4.659  0.4809 -0.8987 -0.3956
18125TIP3    H175866   6.525   5.055   4.679 -0.2361 -0.8191  0.3834
18125TIP3    H275867   6.502   4.918   4.740 -1.7977 -0.7545 -0.0321
18126TIP3   OH275868   5.741   3.259  13.708  0.2143  0.0707  0.0725
18126TIP3    H175869   5.781   3.242  13.793 -0.7459  0.0337  0.5114
18126TIP3    H275870   5.815   3.282  13.652  0.6406  1.8390  1.3402
18127TIP3   OH275871   2.776   6.326   1.401  0.4116 -0.2046  0.6275
18127TIP3    H175872   2.692   6.281   1.404 -0.0513  0.5658 -0.5819
18127TIP3    H275873   2.771   6.383   1.324  2.5591 -1.1635 -0.2888
18128TIP3   OH275874   6.694   4.536   0.943 -0.2237 -0.9855 -0.2425
18128TIP3    H175875   6.782   4.573   0.933 -0.1050 -0.7523  1.5611
18128TIP3    H275876   6.710   4.446   0.970 -0.5364 -1.0075 -0.1344
18129TIP3   OH275877   4.785   6.707   0.768 -0.0158 -0.0766 -0.3065
18129TIP3    H175878   4.833   6.627   0.790 -0.3822 -0.4898 -0.9923
18129TIP3    H275879   4.842   6.778   0.796 -0.5532 -0.5870  2.1475
18130TIP3   OH275880   2.924   3.798   4.573  0.5497 -0.2382 -0.1708
18130TIP3    H175881   2.976   3.732   4.527 -0.0223  1.2439 -3.0770
18130TIP3    H275882   2.961   3.881   4.544 -0.8835  0.7610  0.8212
18131TIP3   OH275883   5.993   4.075  15.508 -1.0206 -0.2373  0.0307
18131TIP3    H175884   5.952   4.158  15.533  1.0008  0.7457  0.1969
18131TIP3    H275885   5.966   4.013  15.576 -1.0471  0.7484  0.9306
18132TIP3   OH275886   6.203   2.805  13.554  0.1110 -0.0079  0.1900
18132TIP3    H175887   6.152   2.774  13.629  2.6997  0.2649  2.1255
18132TIP3    H275888   6.275   2.742  13.547  0.1165  0.1908 -1.8554
18133TIP3   OH275889   3.016   4.074  16.987  0.9677 -0.0222 -0.2415
18133TIP3    H175890   3.044   4.081  17.078  2.1060  0.6318 -0.6294
18133TIP3    H275891   2.979   3.986  16.980  3.7773 -1.2662  0.0789
18134TIP3   OH275892   2.998   3.231   4.897  0.4259 -0.3881 -0.2136
18134TIP3    H175893   3.012   3.313   4.849 -0.2594 -0.5216 -0.6527
18134TIP3    H275894   2.924   3.250   4.955  0.7692 -0.4594  0.2520
18135TIP3   OH275895   1.048   4.132  16.992 -0.6216  0.1178  0.3232
18135TIP3    H175896   1.079   4.148  16.903 -2.6468  1.5282 -0.1826
18135TIP3    H275897   0.976   4.069  16.981 -2.5216  2.1621  0.6320
18136TIP3   OH275898   4.336   0.224  16.687 -0.4140 -0.5937  0.3176
18136TIP3    H175899   4.379   0.231  16.602 -0.0135 -1.5919  0.4401
18136TIP3    H275900   4.243   0.215  16.666 -0.5494  1.2131  0.0487
18137TIP3   OH275901   5.140   5.872   1.482  0.6216 -0.0342 -0.3388
18137TIP3    H175902   5.196   5.947   1.502 -0.3550  0.4631  0.5845
18137TIP3    H275903   5.064   5.910   1.437  0.1546 -0.4648  0.0686
18138TIP3   OH275904   6.674   2.641   3.600  0.4923 -0.0651  0.8602
18138TIP3    H175905   6.610   2.596   3.655 -1.8098  0.9138 -0.9202
18138TIP3    H275906   6.709   2.572   3.543  0.3077 -0.4385  1.1987
18139TIP3   OH275907   5.900   4.864   4.529  1.1557 -0.5386  0.3320
18139TIP3    H175908   5.982   4.913   4.523 -0.3812  2.1276  0.3705
18139TIP3    H275909   5.838   4.914   4.476 -0.8878 -1.5496  1.6946
18140TIP3   OH275910   3.637   3.359  16.383  0.6178 -0.0490  1.0264
18140TIP3    H175911   3.609   3.297  16.450  1.0240  0.4971  1.7059
18140TIP3    H275912   3.555   3.384  16.338  0.5512 -1.6793  0.2046
18141TIP3   OH275913   4.331   2.454  13.222  0.4351 -0.0564 -0.1365
18141TIP3    H175914   4.326   2.359  13.236 -0.2578  0.1889  1.4122
18141TIP3    H275915   4.306   2.492  13.306 -0.2355  1.5124 -1.0203
18142TIP3   OH275916   2.833   6.033   5.060  0.4292  0.6358 -0.3358
18142TIP3    H175917   2.792   5.963   5.111  0.2432 -0.0804 -1.4307
18142TIP3    H275918   2.775   6.108   5.071 -0.2379  0.1457 -0.4362
18143TIP3   OH275919   6.611   5.405  13.062 -0.2091  0.2363  0.0686
18143TIP3    H175920   6.550   5.332  13.065 -0.8640  0.7969  0.6011
18143TIP3    H275921   6.661   5.391  12.982 -0.7994 -0.4150 -0.1922
18144TIP3   OH275922   5.916   3.343  15.217 -0.4838  0.2140  0.1850
18144TIP3    H175923   5.931   3.436  15.202 -0.0973 -0.0246 -0.9293
18144TIP3    H275924   5.843   3.320  15.161 -0.1615 -0.2942 -0.0352
18145TIP3   OH275925   0.676   5.565   4.389  0.0628  0.0892  0.0791
18145TIP3    H175926   0.697   5.563   4.482 -0.1407  0.4104  0.1345
18145TIP3    H275927   0.676   5.659   4.367 -1.6279  0.1148  0.1602
18146TIP3   OH275928   3.452   5.927   6.599 -0.2477 -0.1696 -0.4105
18146TIP3    H175929   3.403   5.954   6.522 -0.9619 -2.1254 -0.6772
18146TIP3    H275930   3.405   5.850   6.631  0.3730  0.2885  1.6507
18147TIP3   OH275931   0.223   2.564   3.373  0.0151  0.1644 -0.1023
18147TIP3    H175932   0.210   2.471   3.394 -0.1692  0.1321 -0.3681
18147TIP3    H275933   0.276   2.564   3.294 -0.2356  0.2811 -0.2739
18148TIP3   OH275934   5.526   4.182  15.481  0.2711 -0.6654 -0.0757
18148TIP3    H175935   5.448   4.130  15.498 -0.3722  1.1721  3.0069
18148TIP3    H275936   5.589   4.153  15.547  1.7632 -1.2154 -1.7057
18149TIP3   OH275937   3.830   0.023   3.362  0.0572 -0.3698 -0.2109
18149TIP3    H175938   3.835   0.012   3.457 -1.2342 -0.8643 -0.1963
18149TIP3    H275939   3.821   0.118   3.349 -2.5091 -0.5216  0.2944
18150TIP3   OH275940   4.827   3.870   1.304  0.4669  0.0993  0.0925
18150TIP3    H175941   4.733   3.858   1.287  0.5551  0.0606 -0.3601
18150TIP3    H275942   4.854   3.787   1.344  0.0295  0.5857  1.4326
18151TIP3   OH275943   4.433   2.613  15.750  0.4095  0.1895 -0.0082
18151TIP3    H175944   4.346   2.573  15.752  1.0164 -1.1740 -0.3877
18151TIP3    H275945   4.480   2.572  15.823  1.1749 -0.0998 -0.6568
18152TIP3   OH275946   2.929   1.279   6.154  0.3521 -0.2780  0.3653
18152TIP3    H175947   2.964   1.270   6.065  2.6745 -0.3979  1.2563
18152TIP3    H275948   2.908   1.372   6.163  1.2517 -0.0454  0.0903
18153TIP3   OH275949   0.984   2.214   5.613  0.0789 -0.3053 -0.0109
18153TIP3    H175950   0.950   2.130   5.644  2.0687 -1.0366  0.2540
18153TIP3    H275951   0.921   2.243   5.548  0.4568 -3.0265 -1.6468
18154TIP3   OH275952   0.251   2.305   6.019  0.0443 -0.1880 -0.4322
18154TIP3    H175953   0.274   2.213   6.007  1.9327  0.4687 -2.3514
18154TIP3    H275954   0.281   2.326   6.107 -0.7166 -1.4823  0.1515
18155TIP3   OH275955   5.538   4.199  15.023  0.5386 -0.3822  0.1866
18155TIP3    H175956   5.497   4.150  15.095 -0.6298 -0.1263 -0.3033
18155TIP3    H275957   5.631   4.178  15.031  0.3412 -0.8768  1.3795
18156TIP3   OH275958   6.421   0.730  12.830 -0.0712 -0.4821  0.7140
18156TIP3    H175959   6.382   0.813  12.804 -2.2383 -1.5192  0.5738
18156TIP3    H275960   6.499   0.722  12.775  0.6860  1.8717  1.3839
18157TIP3   OH275961   3.024   1.666   5.521  0.1505 -0.3064  0.1960
18157TIP3    H175962   3.069   1.639   5.601 -0.6009  0.0465  0.7534
18157TIP3    H275963   3.036   1.761   5.517 -2.3397  0.1279  1.5371
18158TIP3   OH275964   6.597   2.078  12.452 -0.3912  0.2798 -0.0453
18158TIP3    H175965   6.504   2.063  12.435 -0.2020  0.0921 -0.9215
18158TIP3    H275966   6.621   2.150  12.393 -0.9173  3.0904  3.0072
18159TIP3   OH275967   2.430   4.162  14.406 -0.3940 -0.1370  0.2220
18159TIP3    H175968   2.460   4.236  14.353 -0.4389 -0.1958  0.1139
18159TIP3    H275969   2.466   4.178  14.493  1.4628 -1.1576 -0.3421
18160TIP3   OH275970   5.997   6.161  15.256 -0.5977  0.0869  0.6739
18160TIP3    H175971   6.042   6.160  15.340  0.6707 -1.3217 -0.0064
18160TIP3    H275972   6.010   6.250  15.224  0.5120  0.0988  1.1270
18161TIP3   OH275973   0.978   5.378   3.807  0.0408  0.5057 -0.2276
18161TIP3    H175974   1.041   5.449   3.818 -0.6353  0.7032  2.6081
18161TIP3    H275975   0.977   5.333   3.891 -1.5930 -1.1991 -1.1131
18162TIP3   OH275976   0.317   3.194   3.796 -0.0097 -0.5444 -0.0320
18162TIP3    H175977   0.229   3.158   3.784 -0.1126 -0.3524  0.1380
18162TIP3    H275978   0.306   3.288   3.779  0.1310 -0.4962  0.1492
18163TIP3   OH275979   2.298   1.910  12.917 -0.2794 -0.0580  0.0754
18163TIP3    H175980   2.316   1.911  12.823 -2.5849  0.3459 -0.3954
18163TIP3    H275981   2.231   1.978  12.929  0.0533 -0.0494  2.0261
18164TIP3   OH275982   5.673   3.570   5.421 -0.2401  0.2012 -0.0055
18164TIP3    H175983   5.582   3.540   5.419 -0.1145 -0.1371 -0.5981
18164TIP3    H275984   5.711   3.527   5.497 -0.5393  0.2518  0.1743
18165TIP3   OH275985   0.615   5.198  14.314 -0.2434 -0.0917 -0.0134
18165TIP3    H175986   0.640   5.286  14.340  0.6533 -0.2001 -0.5024
18165TIP3    H275987   0.651   5.186  14.227  0.0720 -1.1214  0.2449
18166TIP3   OH275988   1.343   1.079  14.991  0.5112  0.6209  0.0082
18166TIP3    H175989   1.270   1.075  15.053 -0.6545  1.2198 -1.2931
18166TIP3    H275990   1.305   1.118  14.912  2.2515  0.9420 -0.6891
18167TIP3   OH275991   2.658   4.387   5.840 -0.0108  0.3292 -0.7320
18167TIP3    H175992   2.697   4.389   5.753  2.5249  2.1849  0.3743
18167TIP3    H275993   2.685   4.470   5.880  0.2065 -1.1727  2.3591
18168TIP3   OH275994   2.208   0.981  15.871  0.7518 -0.2030 -0.2720
18168TIP3    H175995   2.239   0.899  15.835  0.6487  0.1469 -1.1691
18168TIP3    H275996   2.112   0.973  15.871  0.6356  0.8968 -2.7362
18169TIP3   OH275997   4.234   1.782  14.157  0.3417 -0.8117 -0.3860
18169TIP3    H175998   4.282   1.864  14.167  0.1518 -0.6112 -1.0769
18169TIP3    H275999   4.225   1.771  14.062  0.3050 -1.5931 -0.2935
18170TIP3   OH276000   0.660   5.145  15.870 -0.1498  0.1764 -0.0479
18170TIP3    H176001   0.734   5.192  15.909  0.4193 -0.1776 -0.6937
18170TIP3    H276002   0.699   5.095  15.798 -1.2629  1.2211 -1.3914
18171TIP3   OH276003   0.740   6.142  13.571 -0.1647 -0.2960 -0.0878
18171TIP3    H176004   0.825   6.174  13.601 -0.4594  0.4953 -0.0928
18171TIP3    H276005   0.718   6.071  13.631  1.8251 -2.4573 -1.7828
18172TIP3   OH276006   4.976   1.000  10.837 -0.2623 -0.0271  0.0469
18172TIP3    H176007   4.892   1.045  10.848 -1.0263 -1.0493 -1.3651
18172TIP3    H276008   5.034   1.065  10.797 -0.5375  0.5204  0.5342
18173TIP3   OH276009   1.184   0.550  11.182  0.1158  0.1073 -0.0032
18173TIP3    H176010   1.233   0.498  11.245  0.4218  1.0659  0.5624
18173TIP3    H276011   1.155   0.627  11.231 -2.3926 -0.6727 -0.1941
18174TIP3   OH276012   1.534   3.589  13.306 -0.3991 -0.6747  0.3687
18174TIP3    H176013   1.618   3.629  13.284 -0.9423  0.2836 -0.0047
18174TIP3    H276014   1.553   3.532  13.381  0.6233 -0.6535  0.1326
18175TIP3   OH276015   5.066   1.990  14.696  0.1634 -0.3454 -0.2099
18175TIP3    H176016   5.031   1.903  14.678 -0.5621 -0.1879  0.4470
18175TIP3    H276017   5.151   1.974  14.736 -0.4918 -0.7752  1.0293
18176TIP3   OH276018   4.230   3.108  17.015 -0.6732  0.1024 -0.3809
18176TIP3    H176019   4.153   3.077  16.968 -0.6180  0.7424 -0.9062
18176TIP3    H276020   4.295   3.124  16.947 -0.8215  1.7115 -0.1820
18177TIP3   OH276021   0.616   4.136  13.758 -0.4856 -0.3203 -0.3542
18177TIP3    H176022   0.641   4.044  13.768  0.1484 -0.1608 -0.4443
18177TIP3    H276023   0.527   4.133  13.723 -0.6889 -0.8963  0.2037
18178TIP3   OH276024   5.064   5.547   4.336 -0.1360  0.4693 -0.1723
18178TIP3    H176025   5.021   5.487   4.397  0.5542  2.1150  1.9836
18178TIP3    H276026   5.023   5.632   4.351  0.5135  1.0486 -1.5333
18179TIP3   OH276027   2.926   3.511  13.271  0.6034  0.2055 -0.2636
18179TIP3    H176028   2.895   3.438  13.324 -0.4545  1.5103  0.9671
18179TIP3    H276029   2.847   3.548  13.232  1.2714 -0.0767 -1.8979
18180TIP3   OH276030   0.616   6.227   4.499 -0.5834 -0.1120 -0.0817
18180TIP3    H176031   0.689   6.200   4.556  1.1165 -0.2616 -2.2599
18180TIP3    H276032   0.610   6.321   4.512 -2.0721 -0.4993  2.4267
18181TIP3   OH276033   5.422   0.278   0.196  0.0280  0.5586 -0.0385
18181TIP3    H176034   5.360   0.233   0.139  0.2862  2.1700 -1.6453
18181TIP3    H276035   5.497   0.298   0.139  2.3796 -1.9474  2.0135
18182TIP3   OH276036   2.939   6.301  16.563  0.1760  0.1504  0.4694
18182TIP3    H176037   2.947   6.216  16.520  0.2688  0.1154  0.5551
18182TIP3    H276038   2.879   6.285  16.636 -1.3403  0.5951 -0.6652
18183TIP3   OH276039   4.041   1.953  12.105  0.1228 -0.1998 -0.7643
18183TIP3    H176040   3.976   1.887  12.129 -0.0566 -0.0031 -0.7047
18183TIP3    H276041   4.091   1.968  12.185 -1.3692  1.4725 -0.0983
18184TIP3   OH276042   5.204   4.639  16.119 -0.7170  0.6899  0.5146
18184TIP3    H176043   5.134   4.702  16.132 -1.3327  0.4260 -1.2823
18184TIP3    H276044   5.167   4.555  16.148 -0.6446  0.7846  0.8828
18185TIP3   OH276045   2.472   0.730   4.969  0.7098 -0.1464  0.2519
18185TIP3    H176046   2.410   0.780   5.022  1.1465 -0.0888  0.7043
18185TIP3    H276047   2.547   0.787   4.959  1.5604 -1.0182  1.4835
18186TIP3   OH276048   4.011   1.408  15.544 -0.1579 -0.4447 -0.3549
18186TIP3    H176049   3.929   1.452  15.521  1.0924  1.1671 -1.8817
18186TIP3    H276050   4.053   1.466  15.607  0.2050 -0.8364 -0.2378
18187TIP3   OH276051   2.872   1.899   2.893  0.2655  0.7019  0.3028
18187TIP3    H176052   2.948   1.846   2.871  0.9097  2.3203 -1.4687
18187TIP3    H276053   2.825   1.847   2.959  2.9950 -0.2214  1.5953
18188TIP3   OH276054   5.336   6.076  13.382 -0.3483  0.1064 -0.3920
18188TIP3    H176055   5.405   6.047  13.442 -0.2088  0.7214 -0.2458
18188TIP3    H276056   5.325   6.004  13.321 -1.7768 -1.3164  1.4635
18189TIP3   OH276057   6.405   0.762  11.140 -0.7793  0.1925 -0.6440
18189TIP3    H176058   6.413   0.844  11.190 -0.0579  1.2800 -2.4779
18189TIP3    H276059   6.343   0.783  11.070 -0.7277 -0.8900 -1.0149
18190TIP3   OH276060   3.849   4.229  13.366  0.3562  0.4980  0.2094
18190TIP3    H176061   3.818   4.312  13.403  1.0511  0.9902 -0.3196
18190TIP3    H276062   3.871   4.176  13.443 -0.7762  0.5344  0.5675
18191TIP3   OH276063   2.521   4.501  13.108  0.3249  0.2474 -0.0155
18191TIP3    H176064   2.603   4.523  13.064 -0.0760  0.9920 -0.3948
18191TIP3    H276065   2.471   4.582  13.108 -0.2351 -0.0913  0.6174
18192TIP3   OH276066   0.576   6.403   0.642  0.4023  0.5382 -0.4387
18192TIP3    H176067   0.582   6.483   0.694  0.2264  1.3253 -1.5892
18192TIP3    H276068   0.586   6.434   0.551  0.1805 -0.7292 -0.9002
18193TIP3   OH276069   3.974   3.136  12.404  0.1048 -0.0162  0.2638
18193TIP3    H176070   3.905   3.086  12.359  1.3334  0.5454 -2.3294
18193TIP3    H276071   4.028   3.070  12.446 -0.7103 -0.6035  0.3934
18194TIP3   OH276072   6.037   0.068   2.162  0.2938 -1.2227  0.2940
18194TIP3    H176073   5.973   0.139   2.171  0.5943 -0.9702  0.4246
18194TIP3    H276074   6.037   0.025   2.247 -1.8113 -3.0194 -0.5453
18195TIP3   OH276075   5.356   2.719   3.946  0.3430 -0.3049 -0.4548
18195TIP3    H176076   5.311   2.758   4.022  0.3410  0.6871 -0.9587
18195TIP3    H276077   5.354   2.625   3.963 -0.5524 -0.1610  0.2901
18196TIP3   OH276078   2.514   3.789  12.316  0.1123  0.7399  1.0352
18196TIP3    H176079   2.573   3.733  12.366  1.8182  0.7022 -0.9698
18196TIP3    H276080   2.433   3.738  12.309  1.0315 -0.7250  0.8146
18197TIP3   OH276081   2.584   0.388  13.568 -0.5866  0.6345  0.4655
18197TIP3    H176082   2.550   0.404  13.656 -1.8437  1.3791 -0.1339
18197TIP3    H276083   2.537   0.450  13.513 -0.6242 -0.5749 -0.9022
18198TIP3   OH276084   3.622   3.447  11.439 -0.1532 -0.4108 -0.1222
18198TIP3    H176085   3.624   3.472  11.347 -0.6826 -2.9020 -0.8442
18198TIP3    H276086   3.655   3.524  11.485 -0.2440  1.0116 -2.3477
18199TIP3   OH276087   4.812   1.006  15.545  0.1693  0.4604 -0.3480
18199TIP3    H176088   4.880   1.073  15.542  0.9411 -0.3190 -0.4571
18199TIP3    H276089   4.849   0.933  15.496  0.3566 -0.9726  1.8869
18200TIP3   OH276090   4.638   6.392   1.746  0.0524  0.4600  0.3390
18200TIP3    H176091   4.615   6.483   1.726  0.8495  0.6147  0.1053
18200TIP3    H276092   4.652   6.351   1.660  1.2004  0.5188  0.4922
18201TIP3   OH276093   2.067   4.241  12.763  0.7932 -0.2566  0.3480
18201TIP3    H176094   2.114   4.216  12.684 -0.2770  0.4002 -0.5146
18201TIP3    H276095   2.110   4.321  12.793  0.1465  0.4191 -0.5175
18202TIP3   OH276096   3.433   3.693   0.337 -0.2283 -0.7738  0.2484
18202TIP3    H176097   3.514   3.735   0.308 -0.3408  0.2280  1.3667
18202TIP3    H276098   3.457   3.600   0.347  0.5400 -0.6362 -0.3048
18203TIP3   OH276099   2.448   6.697   4.760  0.1839  0.2916 -0.3618
18203TIP3    H176100   2.369   6.743   4.731 -0.3633 -0.7254 -0.5278
18203TIP3    H276101   2.486   6.753   4.827  0.0765  1.4541 -1.2699
18204TIP3   OH276102   2.254   5.127   3.050 -0.2370  0.1283 -0.1615
18204TIP3    H176103   2.263   5.038   3.083  0.7313  0.0867 -0.5282
18204TIP3    H276104   2.309   5.130   2.972 -2.1614  0.3639 -1.5402
18205TIP3   OH276105   0.378   1.880   3.923 -0.1441 -0.4467  0.0135
18205TIP3    H176106   0.450   1.938   3.900 -0.7090 -0.1948 -1.1977
18205TIP3    H276107   0.351   1.908   4.010  0.3840  0.3004 -0.0592
18206TIP3   OH276108   4.306   4.187  14.598  0.2395 -0.0826 -0.2515
18206TIP3    H176109   4.220   4.228  14.615 -0.4182 -0.7772 -1.8652
18206TIP3    H276110   4.351   4.250  14.542 -0.2505 -0.9328 -1.6128
18207TIP3   OH276111   2.383   4.773   1.178 -0.1898 -0.3381 -0.5143
18207TIP3    H176112   2.334   4.796   1.099 -0.1952  0.2784 -0.3335
18207TIP3    H276113   2.356   4.838   1.243  1.3958  0.4818 -0.6174
18208TIP3   OH276114   4.608   2.356  13.868 -0.0923 -0.5686  0.6215
18208TIP3    H176115   4.611   2.387  13.777 -0.1627  0.1847  0.8721
18208TIP3    H276116   4.678   2.405  13.911 -0.0788 -0.9071  0.9785
18209TIP3   OH276117   5.356   5.395   5.059  0.1262 -0.1397 -0.0528
18209TIP3    H176118   5.442   5.417   5.022  0.1393  1.2366  0.7686
18209TIP3    H276119   5.367   5.406   5.153 -0.3980 -1.9329  0.2331
18210TIP3   OH276120   5.909   5.388  11.550  0.3852 -0.0102  0.2337
18210TIP3    H176121   5.887   5.358  11.462 -0.2582  0.0511  0.3697
18210TIP3    H276122   5.883   5.316  11.607 -0.9583  0.6943  0.5374
18211TIP3   OH276123   2.459   2.475  15.967  0.0510  0.1541 -0.3793
18211TIP3    H176124   2.366   2.451  15.964  0.2655 -1.2417  2.2064
18211TIP3    H276125   2.505   2.396  15.939  0.4975  0.4641 -0.5298
18212TIP3   OH276126   4.623   1.083  15.329 -0.1921  0.1386 -0.5921
18212TIP3    H176127   4.548   1.093  15.387  2.4268  1.8195  2.6384
18212TIP3    H276128   4.693   1.049  15.385  2.0742  0.6058 -3.0404
18213TIP3   OH276129   3.403   3.040  11.787  0.8946 -0.0396  0.2435
18213TIP3    H176130   3.406   3.123  11.738  0.5414 -0.8434 -1.1724
18213TIP3    H276131   3.463   2.982  11.740 -1.2438 -1.5683 -0.7044
18214TIP3   OH276132   4.535   1.151   5.457  0.2038 -0.3630 -0.1918
18214TIP3    H176133   4.454   1.169   5.411  0.3776  2.3796  0.4534
18214TIP3    H276134   4.579   1.084   5.405 -0.8276  0.7246 -2.5193
18215TIP3   OH276135   0.865   0.562  15.993  0.0604 -0.1538  0.0670
18215TIP3    H176136   0.937   0.523  16.042 -0.5144 -0.9597  0.2755
18215TIP3    H276137   0.788   0.512  16.018 -0.5403  0.5444 -0.3402
18216TIP3   OH276138   3.392   0.506   3.594  0.0440  0.0661 -0.1867
18216TIP3    H176139   3.306   0.544   3.611  0.3086  1.4833 -1.8856
18216TIP3    H276140   3.439   0.511   3.677 -1.7603 -1.4263  0.9627
18217TIP3   OH276141   0.426   1.224   2.493  0.5353 -0.6493  0.5997
18217TIP3    H176142   0.493   1.228   2.425  1.3063  0.2941  1.4040
18217TIP3    H276143   0.471   1.249   2.574 -0.4609 -1.3712  1.4028
18218TIP3   OH276144   4.009   1.626   2.044  0.2274 -0.4067  0.0773
18218TIP3    H176145   3.926   1.642   2.090  0.4419  2.0052 -0.2853
18218TIP3    H276146   4.076   1.640   2.111  0.4020 -0.4234 -0.0930
18219TIP3   OH276147   3.817   5.341   0.009 -0.4980  0.2363  0.4518
18219TIP3    H176148   3.838   5.434   0.003 -2.2740  0.6087 -0.3398
18219TIP3    H276149   3.764   5.323  -0.069 -1.0471 -1.1916  1.1339
18220TIP3   OH276150   6.724   1.139   2.820 -0.3406 -1.1466  0.0085
18220TIP3    H176151   6.737   1.105   2.731 -0.9429 -0.2727 -0.4215
18220TIP3    H276152   6.631   1.126   2.837 -0.4257 -0.4036  0.1278
18221TIP3   OH276153   1.714   6.053   3.252  0.1888  0.6883 -0.5076
18221TIP3    H176154   1.700   5.993   3.324  0.6865 -0.0458 -1.0203
18221TIP3    H276155   1.668   6.014   3.178 -0.3634  1.4623 -0.5847
18222TIP3   OH276156   6.266   5.569  10.550  0.0263  0.0017  0.0649
18222TIP3    H176157   6.349   5.616  10.565  0.4987 -0.7766 -0.0576
18222TIP3    H276158   6.291   5.494  10.496 -0.0570 -2.5466  3.4182
18223TIP3   OH276159   2.069   1.068   5.356  0.3787 -0.0785  0.0412
18223TIP3    H176160   1.987   1.029   5.386  1.0646 -0.7176  1.0947
18223TIP3    H276161   2.134   0.999   5.366  1.2645  0.7812  0.2533
18224TIP3   OH276162   3.059   0.571  12.108  0.1190  0.3545 -0.3142
18224TIP3    H176163   2.975   0.543  12.144  0.2558 -0.6775 -0.7886
18224TIP3    H276164   3.108   0.490  12.095  0.3341  0.7377 -2.1307
18225TIP3   OH276165   0.244   6.437   5.712  0.8101  0.0130  0.4044
18225TIP3    H176166   0.261   6.457   5.620 -0.9599  1.6045  0.4030
18225TIP3    H276167   0.316   6.480   5.759  1.1160  0.1078 -0.1384
18226TIP3   OH276168   2.664   1.126  13.200 -0.3500 -0.0085 -0.0612
18226TIP3    H176169   2.750   1.084  13.197 -0.9240 -1.1095 -1.8442
18226TIP3    H276170   2.628   1.102  13.285  2.2514  2.8273  1.9231
18227TIP3   OH276171   2.060   3.916   3.379 -0.0866 -0.1569  0.0127
18227TIP3    H176172   2.019   3.959   3.454 -1.0995 -0.2360 -0.4824
18227TIP3    H276173   2.101   3.987   3.330 -0.1443  0.0033  0.1954
18228TIP3   OH276174   2.072   2.485  14.393 -0.6433 -0.0912 -0.6143
18228TIP3    H176175   2.034   2.573  14.393  3.0951  1.6338 -1.1541
18228TIP3    H276176   2.107   2.474  14.482  0.2543 -0.3889 -0.9958
18229TIP3   OH276177   1.088   5.845   3.824 -0.2399 -0.6300 -0.4689
18229TIP3    H176178   1.040   5.893   3.891 -1.2592 -0.8317 -1.0460
18229TIP3    H276179   1.111   5.912   3.759 -0.1459 -0.6186 -0.4242
18230TIP3   OH276180   6.223   4.858  13.005 -0.6269  0.2308 -0.6498
18230TIP3    H176181   6.207   4.940  13.053  1.1655  1.5398 -2.1872
18230TIP3    H276182   6.314   4.837  13.025 -0.8491 -0.9776 -0.9009
18231TIP3   OH276183   1.209   4.310   1.896 -0.4092  0.4363  0.3661
18231TIP3    H176184   1.231   4.231   1.947  0.3213  0.6675  0.4189
18231TIP3    H276185   1.113   4.315   1.901 -0.3603  0.3998  1.6490
18232TIP3   OH276186   3.558   3.740  13.573 -0.8016 -0.2306  0.2858
18232TIP3    H176187   3.496   3.797  13.618 -0.9056 -0.5269  0.5121
18232TIP3    H276188   3.628   3.725  13.636 -1.2268 -1.1107  0.5546
18233TIP3   OH276189   6.039   4.304   2.626  0.0982 -0.6075 -0.1051
18233TIP3    H176190   5.944   4.290   2.635 -0.2967  1.0110 -1.3979
18233TIP3    H276191   6.065   4.245   2.556  0.2860 -1.9400  1.0708
18234TIP3   OH276192   5.058   1.755  12.638  0.2190 -0.0359  0.3946
18234TIP3    H176193   5.015   1.738  12.555  0.2210  0.5353  0.2714
18234TIP3    H276194   5.014   1.697  12.700 -0.0081 -0.2224  0.0615
18235TIP3   OH276195   2.517   2.172  15.003  0.2595  1.0695 -0.3175
18235TIP3    H176196   2.519   2.175  15.099  0.9494 -1.6686 -0.1921
18235TIP3    H276197   2.425   2.179  14.981 -0.4456 -3.2152  0.8491
18236TIP3   OH276198   1.722   1.210   0.833  0.2887  0.5691  0.1453
18236TIP3    H176199   1.682   1.176   0.753  0.6207 -1.6785  0.8819
18236TIP3    H276200   1.647   1.237   0.887  0.0647  2.0125 -0.8885
18237TIP3   OH276201   6.801   1.032  13.929  0.1326 -0.2392 -0.2851
18237TIP3    H176202   6.783   0.938  13.935  0.0686 -0.3264 -1.8040
18237TIP3    H276203   6.744   1.063  13.859  0.2452  0.9138  0.1292
18238TIP3   OH276204   0.921   2.543  16.322 -0.1374  0.7384  0.2327
18238TIP3    H176205   0.873   2.625  16.318  0.1037  0.9472  1.4666
18238TIP3    H276206   0.858   2.477  16.294 -1.3341  0.9391  2.3685
18239TIP3   OH276207   1.823   6.743   1.310  0.0138  0.6142  0.2476
18239TIP3    H176208   1.887   6.685   1.353 -1.1643 -0.6023  0.3677
18239TIP3    H276209   1.804   6.810   1.377 -0.4478 -0.2390  0.9764
18240TIP3   OH276210   5.948   3.830   5.132 -0.3109 -0.3196  0.2365
18240TIP3    H176211   5.868   3.879   5.151  0.7094  1.6466 -0.3953
18240TIP3    H276212   5.917   3.749   5.093 -2.0166  0.2823  0.2649
18241TIP3   OH276213   2.192   6.480  15.231  0.6430 -0.0173 -0.1632
18241TIP3    H176214   2.255   6.418  15.268  1.1373  0.9304  0.6054
18241TIP3    H276215   2.160   6.529  15.307 -1.1463 -0.5953 -0.5188
18242TIP3   OH276216   6.659   3.474   5.212  0.0293  0.3906 -0.2176
18242TIP3    H176217   6.654   3.520   5.296  0.9314  0.7393 -0.3499
18242TIP3    H276218   6.645   3.543   5.146 -3.0311 -0.2444 -0.3291
18243TIP3   OH276219   0.540   6.663   0.785 -0.4403 -0.1552  0.1136
18243TIP3    H176220   0.484   6.728   0.828  0.0728 -0.8871  1.9242
18243TIP3    H276221   0.610   6.715   0.745  0.1053  0.4498  1.7640
18244TIP3   OH276222   4.461   5.375  16.436  0.0851 -0.0365  0.2697
18244TIP3    H176223   4.378   5.328  16.442 -0.2554  0.5099 -0.1538
18244TIP3    H276224   4.445   5.444  16.372  1.0556 -0.3309 -0.2965
18245TIP3   OH276225   6.381   0.331   5.666 -0.2742 -0.2283  0.5650
18245TIP3    H176226   6.389   0.242   5.631  0.5263  0.4952 -1.1651
18245TIP3    H276227   6.457   0.342   5.723  0.3678 -0.2033 -0.2814
18246TIP3   OH276228   3.716   1.374   5.050 -0.0917 -0.2210 -0.0661
18246TIP3    H176229   3.739   1.353   4.959 -0.7893  1.6069 -0.6900
18246TIP3    H276230   3.629   1.414   5.044  0.2974  0.8502  1.2983
18247TIP3   OH276231   6.370   4.768   0.306 -0.0037  0.3708 -0.0400
18247TIP3    H176232   6.288   4.809   0.334 -0.3841 -0.6523  0.3873
18247TIP3    H276233   6.394   4.711   0.379  1.3028  0.9545  0.0060
18248TIP3   OH276234   4.292   6.340  13.912 -0.1639  0.2120  0.6703
18248TIP3    H176235   4.263   6.419  13.957  1.8246  1.1954  0.2517
18248TIP3    H276236   4.353   6.370  13.846 -0.4976 -1.5539 -0.4749
18249TIP3   OH276237   2.585   1.909  14.563 -0.0647 -0.0093 -0.8028
18249TIP3    H176238   2.601   1.817  14.540 -0.3952 -0.2869  0.0518
18249TIP3    H276239   2.589   1.911  14.658 -0.1729  0.8457 -0.8135
18250TIP3   OH276240   0.950   6.108   0.558  0.3835 -1.0301  0.1217
18250TIP3    H176241   1.011   6.043   0.523  3.2131  1.2644  0.5642
18250TIP3    H276242   0.955   6.097   0.653  2.6164  1.1955  0.3358
18251TIP3   OH276243   4.553   4.306   0.146  0.0106  0.2040 -0.0221
18251TIP3    H176244   4.502   4.359   0.208  1.0461  0.0771  0.9655
18251TIP3    H276245   4.590   4.236   0.200  0.9983  0.1385 -0.7626
18252TIP3   OH276246   0.788   5.712   4.835 -0.2009  0.0022 -0.3681
18252TIP3    H176247   0.719   5.779   4.835 -1.4875 -1.2815  0.5051
18252TIP3    H276248   0.868   5.760   4.813 -1.5681  1.2998 -2.7337
18253TIP3   OH276249   2.313   0.273  11.806 -0.2161  0.3555  0.3488
18253TIP3    H176250   2.345   0.333  11.739  1.6002 -2.1320 -1.0964
18253TIP3    H276251   2.231   0.239  11.771  0.6365 -0.7998 -0.5424
18254TIP3   OH276252   1.914   1.829   5.707 -0.3879  0.3016  0.2632
18254TIP3    H176253   2.007   1.824   5.725 -0.1936  1.1362 -0.4667
18254TIP3    H276254   1.872   1.825   5.793  0.3264  0.2510  0.6096
18255TIP3   OH276255   0.177   5.407  15.612 -0.5299  0.2472 -0.3259
18255TIP3    H176256   0.196   5.429  15.521 -0.3965  1.1883 -0.0704
18255TIP3    H276257   0.259   5.424  15.658 -0.6767  0.0236  0.0183
18256TIP3   OH276258   3.581   2.534   2.966  0.4177 -0.2615 -0.3724
18256TIP3    H176259   3.629   2.536   2.883  0.6867 -1.4326 -0.2533
18256TIP3    H276260   3.592   2.444   2.997  1.3150  0.4761  1.5175
18257TIP3   OH276261   4.021   5.158   3.892  0.1288 -1.1301 -0.1396
18257TIP3    H176262   3.950   5.142   3.954 -2.3109  1.9109 -1.9740
18257TIP3    H276263   3.996   5.109   3.814 -0.0879  0.0985 -0.8568
18258TIP3   OH276264   5.651   0.791   5.090 -0.2577  0.0791 -0.3634
18258TIP3    H176265   5.620   0.860   5.030  0.7397  0.2973 -0.6415
18258TIP3    H276266   5.746   0.793   5.080  0.1633  2.0286  3.3035
18259TIP3   OH276267   6.454   2.968  13.308 -0.2946 -0.1506 -0.2286
18259TIP3    H176268   6.456   2.913  13.230  1.7276  0.1064 -0.3824
18259TIP3    H276269   6.489   3.052  13.278  0.3282 -0.0020  0.9218
18260TIP3   OH276270   3.843   4.961  12.953 -0.2942 -0.3511  0.1799
18260TIP3    H176271   3.864   4.884  13.006 -2.6508 -2.5896 -1.9793
18260TIP3    H276272   3.917   4.969  12.893 -0.2326 -1.1903  0.1383
18261TIP3   OH276273   5.290   5.088  15.887  0.3548  0.6283  0.1798
18261TIP3    H176274   5.314   5.128  15.804  0.2316  1.9382  0.7575
18261TIP3    H276275   5.335   5.141  15.953  0.3075 -0.2867  0.9529
18262TIP3   OH276276   6.574   6.006  14.393 -0.2646 -0.4998  0.5633
18262TIP3    H176277   6.488   6.049  14.396  0.4776  0.9035  3.3198
18262TIP3    H276278   6.561   5.924  14.442  0.1818  0.1751  1.8357
18263TIP3   OH276279   0.582   3.409   1.278 -0.3567 -0.6655  0.2188
18263TIP3    H176280   0.570   3.399   1.372 -0.1708 -0.7437  0.2366
18263TIP3    H276281   0.522   3.478   1.252 -0.8513 -1.0697  0.2928
18264TIP3   OH276282   0.864   5.641   1.926  0.4860  0.6086 -0.5592
18264TIP3    H176283   0.827   5.554   1.908 -0.5519  0.6929  1.1282
18264TIP3    H276284   0.949   5.622   1.966  0.4739  0.3802 -0.6387
18265TIP3   OH276285   3.826   5.346   5.368  0.8657 -0.9376  0.3369
18265TIP3    H176286   3.868   5.286   5.306  0.4209  0.7530 -1.6693
18265TIP3    H276287   3.871   5.429   5.356  0.4655 -0.4620  1.9902
18266TIP3   OH276288   3.793   0.733   3.159  0.0121 -0.6738  0.1380
18266TIP3    H176289   3.727   0.800   3.178 -2.1454 -1.5610 -3.6125
18266TIP3    H276290   3.743   0.652   3.149  1.5727 -1.3772 -2.7270
18267TIP3   OH276291   5.151   2.959  15.619 -0.3074  0.3335  0.1868
18267TIP3    H176292   5.234   2.997  15.592 -1.1810  1.6997 -0.6540
18267TIP3    H276293   5.174   2.877  15.662  1.4359  0.5225 -0.3776
18268TIP3   OH276294   0.761   2.740  13.055 -0.0915  0.4392  0.1688
18268TIP3    H176295   0.849   2.773  13.040 -0.9183  2.8696  0.5428
18268TIP3    H276296   0.741   2.765  13.145 -0.8085 -0.9521  0.4178
18269TIP3   OH276297   1.835   1.949  17.254 -0.1054  0.4509  0.1760
18269TIP3    H176298   1.875   2.036  17.262  0.6478  0.2948 -1.6628
18269TIP3    H276299   1.753   1.957  17.302  0.4179  1.8933  0.8766
18270TIP3   OH276300   1.896   0.837   0.808 -0.4019 -0.3860  0.1431
18270TIP3    H176301   1.983   0.852   0.770  0.0960 -1.0805  0.9802
18270TIP3    H276302   1.874   0.921   0.850  0.2832 -0.4938  0.7359
18271TIP3   OH276303   1.176   6.550  13.974  0.5691  0.2188  0.3194
18271TIP3    H176304   1.154   6.610  13.903  0.1469 -0.3757 -0.0603
18271TIP3    H276305   1.231   6.601  14.033 -2.5556  1.9937  1.7831
18272TIP3   OH276306   5.941   2.658  12.208  0.1372  0.4935  0.4878
18272TIP3    H176307   6.017   2.645  12.266  1.4543  1.5744 -0.9662
18272TIP3    H276308   5.937   2.579  12.156 -0.0799  0.1993  0.9461
18273TIP3   OH276309   1.243   1.384   1.299  0.4302 -0.5256  0.0525
18273TIP3    H176310   1.283   1.356   1.381 -0.7815 -0.5582  0.6292
18273TIP3    H276311   1.149   1.386   1.316  0.2947  1.2635 -0.7855
18274TIP3   OH276312   4.083   1.588  14.699 -0.2626  0.0808  0.0243
18274TIP3    H176313   4.172   1.590  14.734  0.3704 -0.6109 -1.5205
18274TIP3    H276314   4.057   1.680  14.691  0.4829  0.2908  0.0412
18275TIP3   OH276315   2.951   1.014  14.105 -0.4081 -0.3636 -0.1217
18275TIP3    H176316   3.012   0.984  14.173  0.6030  0.6767 -0.5534
18275TIP3    H276317   2.865   0.987  14.136  0.0352  0.1583  1.6102
18276TIP3   OH276318   3.325   5.255  11.877  0.0163 -0.6015 -0.0925
18276TIP3    H176319   3.393   5.304  11.923 -2.4031  1.0419  1.9647
18276TIP3    H276320   3.344   5.163  11.894  1.9881 -0.1902 -0.0144
18277TIP3   OH276321   4.180   1.597   3.759  0.1968 -0.0494  0.3317
18277TIP3    H176322   4.167   1.507   3.788  0.4877 -0.1198  0.2497
18277TIP3    H276323   4.200   1.646   3.839  0.3511 -0.1194  0.3370
18278TIP3   OH276324   0.195   5.778  12.727  0.7067 -0.0734 -0.3321
18278TIP3    H176325   0.262   5.727  12.681  1.5365  2.1965 -1.7729
18278TIP3    H276326   0.244   5.847  12.772 -0.5902  1.2315 -0.8606
18279TIP3   OH276327   6.540   2.797   6.245 -0.5001  0.0317  0.0941
18279TIP3    H176328   6.497   2.753   6.319  0.2366 -2.6378 -1.0058
18279TIP3    H276329   6.468   2.829   6.191 -1.0488  1.1376  1.4644
18280TIP3   OH276330   1.333   1.065  16.200 -0.5372  0.2343  0.0901
18280TIP3    H176331   1.359   0.982  16.160  1.2815  1.4139 -1.2489
18280TIP3    H276332   1.341   1.050  16.294 -1.9232 -1.6350 -0.0619
18281TIP3   OH276333   1.365   0.463  12.274  0.3309 -0.3434  0.3865
18281TIP3    H176334   1.341   0.437  12.363 -1.9638 -1.3971 -0.5069
18281TIP3    H276335   1.303   0.532  12.251 -0.3215 -1.3749 -1.0570
18282TIP3   OH276336   2.530   1.763   4.814  0.1793 -0.2284  0.0878
18282TIP3    H176337   2.440   1.791   4.830 -0.1789 -0.9761 -0.5959
18282TIP3    H276338   2.556   1.718   4.895  1.4505  3.7322  2.0019
18283TIP3   OH276339   3.208   0.763   6.469 -0.5246  0.1684  0.0606
18283TIP3    H176340   3.147   0.701   6.510 -2.1843  1.8261  0.1595
18283TIP3    H276341   3.241   0.816   6.542 -1.6777  1.5788 -0.4336
18284TIP3   OH276342   0.395   4.972   1.742  0.3758  0.4502 -0.6399
18284TIP3    H176343   0.486   5.002   1.746  0.0656  1.4087 -0.6733
18284TIP3    H276344   0.400   4.877   1.752  1.3406  0.5537 -0.1624
18285TIP3   OH276345   4.335   3.530  10.485 -0.1234  0.6897 -0.2201
18285TIP3    H176346   4.298   3.442  10.474  1.4971 -0.0305  0.0254
18285TIP3    H276347   4.274   3.587  10.438 -1.4380 -0.5028  0.0089
18286TIP3   OH276348   0.472   4.207  10.647  0.4755  0.1732 -0.0591
18286TIP3    H176349   0.446   4.152  10.573 -0.9587  0.0468  0.5258
18286TIP3    H276350   0.392   4.217  10.699  1.4788  0.1635  1.5341
18287TIP3   OH276351   4.442   0.960   3.697 -0.3030 -0.8510 -0.0015
18287TIP3    H176352   4.405   0.978   3.611  1.2625  0.3905 -0.4348
18287TIP3    H276353   4.437   1.043   3.743  1.9474 -0.6646 -0.0718
18288TIP3   OH276354   6.461   6.292  15.306  0.4766 -0.2299  0.1150
18288TIP3    H176355   6.442   6.257  15.219  1.4981 -3.0263  0.9796
18288TIP3    H276356   6.393   6.358  15.320  1.1623  1.3678 -3.3959
18289TIP3   OH276357   0.134   1.726  16.866 -0.8605  0.1639  0.4942
18289TIP3    H176358   0.039   1.740  16.867 -0.5970  1.9490  1.4625
18289TIP3    H276359   0.146   1.655  16.802 -2.9227 -0.7928  1.1087
18290TIP3   OH276360   1.998   2.578  11.280  0.1873  0.8039  0.1841
18290TIP3    H176361   1.988   2.578  11.375  0.2945  1.7719  0.2019
18290TIP3    H276362   2.088   2.548  11.265  0.8851  2.6778  0.4875
18291TIP3   OH276363   3.246   5.372  13.448 -0.5942 -0.7040  0.4272
18291TIP3    H176364   3.292   5.405  13.525  0.1474 -0.7631  0.0164
18291TIP3    H276365   3.210   5.451  13.406  1.8618 -0.2751 -1.0017
18292TIP3   OH276366   1.789   4.802   1.591 -0.0146  0.0502  0.2726
18292TIP3    H176367   1.819   4.797   1.500  2.2374 -0.2270  0.9889
18292TIP3    H276368   1.787   4.711   1.621  4.0663  0.3636  1.9169
18293TIP3   OH276369   3.442   2.583   4.006  0.0701  0.2917 -0.0203
18293TIP3    H176370   3.499   2.563   4.080 -1.0238  1.3934  1.1412
18293TIP3    H276371   3.361   2.614   4.046 -0.9994 -0.3252 -1.6654
18294TIP3   OH276372   5.560   5.862   2.734 -0.6088 -0.1003 -0.0652
18294TIP3    H176373   5.559   5.919   2.811  0.4343  1.3181 -1.0698
18294TIP3    H276374   5.468   5.852   2.711 -0.7751  2.0546 -0.4688
18295TIP3   OH276375   5.203   1.580  13.034  0.2016 -0.1480 -0.0036
18295TIP3    H176376   5.132   1.586  13.097 -0.8394  0.5318 -1.2048
18295TIP3    H276377   5.259   1.510  13.066 -2.6953 -2.8750 -0.6838
18296TIP3   OH276378   3.184   3.911  11.702 -0.5246  0.0166  0.3189
18296TIP3    H176379   3.132   3.859  11.640  3.4498 -0.6793 -2.5939
18296TIP3    H276380   3.151   4.000  11.691 -0.2163 -0.1807 -2.4679
18297TIP3   OH276381   2.167   2.924  12.738  0.1992 -0.2006  0.5940
18297TIP3    H176382   2.254   2.891  12.715 -0.6092 -1.5888 -0.5359
18297TIP3    H276383   2.118   2.848  12.769 -0.5852  0.5898  1.3577
18298TIP3   OH276384   3.214   2.012   4.283  0.1665  0.3526 -0.1949
18298TIP3    H176385   3.283   1.949   4.306  0.3029  1.2646  2.0092
18298TIP3    H276386   3.142   1.990   4.343  0.1325  2.1245  0.4287
18299TIP3   OH276387   3.119   1.665  17.112 -0.3020  0.0135 -0.0532
18299TIP3    H176388   3.181   1.711  17.056 -1.6378  1.8900 -0.0104
18299TIP3    H276389   3.046   1.642  17.054 -1.1834  0.9827  0.6634
18300TIP3   OH276390   1.968   0.676  15.521  0.9467  0.8560 -0.0677
18300TIP3    H176391   2.049   0.652  15.476 -1.3321  0.7123 -4.2348
18300TIP3    H276392   1.960   0.770  15.508  0.1323  0.7735 -0.1650
18301TIP3   OH276393   3.870   6.678   1.793  0.4297 -0.6773 -0.2992
18301TIP3    H176394   3.799   6.726   1.836  2.5414  0.6134  1.8445
18301TIP3    H276395   3.940   6.741   1.784  1.8650 -2.3357 -1.0755
18302TIP3   OH276396   0.255   2.075   1.374 -0.2353 -0.2901  0.2946
18302TIP3    H176397   0.277   2.167   1.386 -0.4219  0.0042 -1.4401
18302TIP3    H276398   0.191   2.056   1.443 -0.1984  0.8786  0.6596
18303TIP3   OH276399   1.147   1.078  13.649  0.9821 -0.3944  0.2619
18303TIP3    H176400   1.230   1.116  13.677  1.0414 -1.3835  1.4656
18303TIP3    H276401   1.089   1.153  13.637  2.7401  0.5681 -3.1550
18304TIP3   OH276402   4.602   5.472   4.798  0.6168  0.2731  0.4085
18304TIP3    H176403   4.544   5.548   4.796 -0.5751 -0.6148  1.0935
18304TIP3    H276404   4.573   5.417   4.726 -0.1054 -0.6904  1.4247
18305TIP3   OH276405   1.934   6.703   4.454 -0.1030  0.2981 -0.0645
18305TIP3    H176406   1.856   6.759   4.445 -0.5959 -0.6298 -1.7737
18305TIP3    H276407   1.938   6.683   4.547 -2.7217 -0.7468 -0.1123
18306TIP3   OH276408   4.222   4.948   1.110 -0.0108  0.0332  0.4251
18306TIP3    H176409   4.221   5.042   1.128  0.6510 -0.0747  1.0586
18306TIP3    H276410   4.307   4.932   1.069  0.3410 -0.4711  1.3392
18307TIP3   OH276411   4.455   3.910  15.490  0.2934 -0.2960 -0.1892
18307TIP3    H176412   4.417   3.951  15.568 -1.3741 -1.3614 -0.4049
18307TIP3    H276413   4.428   3.966  15.417 -0.7249 -0.9321 -0.3169
18308TIP3   OH276414   3.808   6.269  16.975 -0.4305 -0.0405  0.1230
18308TIP3    H176415   3.811   6.208  17.049  1.7796  0.5675  0.5657
18308TIP3    H276416   3.870   6.231  16.911 -0.0186  1.0451 -0.1289
18309TIP3   OH276417   0.858   4.834  14.273 -0.1885  0.3362  0.1210
18309TIP3    H176418   0.831   4.890  14.201 -1.0811  0.7106  0.7345
18309TIP3    H276419   0.776   4.800  14.309  0.1677  1.1747  1.7732
18310TIP3   OH276420   5.022   0.860   4.591  0.3110  0.4818 -0.4231
18310TIP3    H176421   4.978   0.860   4.506  0.5304  1.3326 -0.5363
18310TIP3    H276422   5.115   0.846   4.571  0.4317  1.1692 -0.3623
18311TIP3   OH276423   1.859   6.587  12.179 -0.0566  0.2972 -0.1652
18311TIP3    H176424   1.879   6.523  12.110  0.1530 -0.5892  0.7182
18311TIP3    H276425   1.945   6.620  12.206 -0.0573 -0.2403  0.5071
18312TIP3   OH276426   3.093   5.088  15.242 -0.6353 -0.1104  0.1016
18312TIP3    H176427   3.147   5.153  15.287 -2.6237  0.0432  2.4003
18312TIP3    H276428   3.038   5.139  15.183 -0.9378  0.1194  0.5806
18313TIP3   OH276429   2.098   4.109  16.938 -0.9233 -0.5903  0.3641
18313TIP3    H176430   2.138   4.031  16.900  2.4184 -0.2531  2.9616
18313TIP3    H276431   2.026   4.075  16.992 -0.2636 -1.7959  0.5141
18314TIP3   OH276432   2.546   3.673   3.287 -0.2146  0.3560 -0.3625
18314TIP3    H176433   2.565   3.667   3.380  2.5418 -1.7187 -1.0057
18314TIP3    H276434   2.463   3.720   3.283 -0.7949 -0.2163  3.1683
18315TIP3   OH276435   2.869   1.057  14.855 -0.0997 -0.1619 -0.8027
18315TIP3    H176436   2.784   1.014  14.855 -0.3725  0.3516  0.0831
18315TIP3    H276437   2.927   0.997  14.809 -0.5755 -1.2788  0.0327
18316TIP3   OH276438   0.104   2.831  14.904 -0.0321 -0.1079 -0.8755
18316TIP3    H176439   0.084   2.831  14.811 -3.4497  0.4713 -0.2425
18316TIP3    H276440   0.063   2.911  14.937  0.2574 -0.7986  1.2632
18317TIP3   OH276441   0.940   0.041  13.436  0.1646  0.2668  0.4273
18317TIP3    H176442   0.859   0.092  13.445  0.3056  0.5229  0.2402
18317TIP3    H276443   1.010   0.107  13.431  0.1959  0.1276 -1.4796
18318TIP3   OH276444   1.175   1.612  10.869 -0.2585  0.3635  0.0392
18318TIP3    H176445   1.258   1.649  10.841  1.6508 -3.4820  0.2243
18318TIP3    H276446   1.179   1.613  10.965  0.6601 -1.9580  0.0571
18319TIP3   OH276447   5.631   5.835   1.908  0.3558  0.8446 -0.2176
18319TIP3    H176448   5.697   5.802   1.847 -1.3770  0.8154 -2.1304
18319TIP3    H276449   5.547   5.810   1.869 -0.8035  0.8260  2.2041
18320TIP3   OH276450   5.948   0.462   5.660 -0.2070  0.9896  0.2671
18320TIP3    H176451   5.959   0.444   5.753 -0.3554 -2.2838 -0.2814
18320TIP3    H276452   6.034   0.443   5.621 -0.8588 -0.2730 -0.5966
18321TIP3   OH276453   5.843   2.754   2.678  0.0592  0.2373 -0.7321
18321TIP3    H176454   5.793   2.813   2.736  0.4101  0.1044 -0.2895
18321TIP3    H276455   5.831   2.667   2.716 -2.5508 -0.3686 -2.8248
18322TIP3   OH276456   6.322   0.635  16.521  0.2855  0.5832 -0.1249
18322TIP3    H176457   6.302   0.643  16.428 -3.6691 -0.7707  0.4971
18322TIP3    H276458   6.314   0.724  16.555 -1.0537  0.6670 -0.6214
18323TIP3   OH276459   0.370   4.434  11.521  0.1430 -0.1145  0.2058
18323TIP3    H176460   0.460   4.414  11.546  0.2958  0.5749  0.2287
18323TIP3    H276461   0.359   4.393  11.435  1.5251  2.4819 -1.2774
18324TIP3   OH276462   1.800   0.593   5.445 -0.2147 -0.1698 -0.5131
18324TIP3    H176463   1.850   0.520   5.480  1.0869  1.1746  0.5086
18324TIP3    H276464   1.787   0.651   5.520 -1.7679  0.3386 -1.1691
18325TIP3   OH276465   6.342   5.278  16.962  0.9195 -0.1004  0.0407
18325TIP3    H176466   6.281   5.304  17.031 -1.3708 -1.4796 -1.3897
18325TIP3    H276467   6.388   5.359  16.940  0.1492  0.8191  1.6757
18326TIP3   OH276468   1.213   4.324  13.918  0.7668  0.2989  0.4974
18326TIP3    H176469   1.279   4.373  13.869  1.1321 -1.8293 -1.2433
18326TIP3    H276470   1.244   4.233  13.915 -0.8912 -0.3432  1.9115
18327TIP3   OH276471   5.350   3.242  11.288  0.0010  0.1564  0.1997
18327TIP3    H176472   5.399   3.279  11.360  0.3520  0.6505 -0.2906
18327TIP3    H276473   5.416   3.199  11.233 -0.2579 -0.1977  0.1649
18328TIP3   OH276474   5.209   4.715   4.948  0.6592  0.6091 -0.2278
18328TIP3    H176475   5.224   4.793   4.895  0.4664  0.5836 -0.3195
18328TIP3    H276476   5.118   4.723   4.977  0.8279  0.7336  0.2812
18329TIP3   OH276477   5.999   5.759   0.252  0.2511  0.2543  0.4578
18329TIP3    H176478   6.080   5.810   0.247 -0.6281  1.5885 -0.3828
18329TIP3    H276479   5.991   5.718   0.166  1.2106 -1.7488  1.2888
18330TIP3   OH276480   2.623   0.673  12.752  0.3434  0.4974 -0.1705
18330TIP3    H176481   2.560   0.601  12.748  1.8797 -0.7903 -2.9911
18330TIP3    H276482   2.618   0.715  12.666  3.3889  0.2300 -0.5609
18331TIP3   OH276483   6.266   2.827  11.803  0.0704  0.1227 -0.1931
18331TIP3    H176484   6.322   2.905  11.801  1.3686 -0.8023 -1.6828
18331TIP3    H276485   6.280   2.785  11.718 -3.1705  0.0189 -0.7494
18332TIP3   OH276486   5.529   3.411   3.943  0.0921  0.2725 -0.1148
18332TIP3    H176487   5.583   3.421   3.865  0.4294  2.5868  0.3789
18332TIP3    H276488   5.526   3.499   3.982  0.5753 -0.9633  2.8857
18333TIP3   OH276489   4.227   0.871   7.057  0.5881  0.7679  0.1270
18333TIP3    H176490   4.169   0.944   7.081  0.8295  0.5126  1.5833
18333TIP3    H276491   4.184   0.829   6.983 -1.4352  0.2115  1.5563
18334TIP3   OH276492   6.485   1.938   3.550  0.2549 -0.5207  0.8594
18334TIP3    H176493   6.558   1.933   3.612  0.0323 -3.0392  0.9366
18334TIP3    H276494   6.443   1.853   3.555 -0.9173 -0.1040 -1.3845
18335TIP3   OH276495   5.008   5.315  13.511 -0.0903 -0.3353  0.1698
18335TIP3    H176496   5.002   5.223  13.537  0.4821 -0.8343 -1.3902
18335TIP3    H276497   5.068   5.315  13.436  0.4386  1.4019  0.5724
18336TIP3   OH276498   6.234   4.711  15.604  0.0070  0.2392 -0.7016
18336TIP3    H176499   6.218   4.699  15.698 -1.6612  1.0095 -0.8762
18336TIP3    H276500   6.208   4.628  15.565 -1.3849  0.6755 -0.7187
18337TIP3   OH276501   3.152   3.709  15.375  0.5024 -0.2263  0.2559
18337TIP3    H176502   3.136   3.616  15.364 -0.6324 -0.1759  1.3563
18337TIP3    H276503   3.144   3.725  15.469  0.6625  0.9765  0.0834
18338TIP3   OH276504   2.411   5.304   4.288 -0.0663 -0.2594  0.0916
18338TIP3    H176505   2.334   5.273   4.335 -1.5966 -0.6029 -2.5288
18338TIP3    H276506   2.459   5.224   4.266 -0.1433 -0.2324 -0.1886
18339TIP3   OH276507   2.979   3.572   0.911 -0.6650 -0.7024  0.2799
18339TIP3    H176508   3.009   3.576   0.820 -1.9090 -0.5288 -0.1315
18339TIP3    H276509   2.914   3.502   0.911  0.1455 -1.4716  1.2865
18340TIP3   OH276510   3.409   0.544  13.421 -0.3764  0.1485 -0.2505
18340TIP3    H176511   3.380   0.463  13.463 -1.1328 -0.2270 -1.4863
18340TIP3    H276512   3.442   0.516  13.336  2.0284  0.7902  0.4322
18341TIP3   OH276513   1.825   3.234   5.519 -0.0375 -0.4479 -0.1872
18341TIP3    H176514   1.897   3.295   5.535 -0.5975  0.0458  0.5052
18341TIP3    H276515   1.795   3.210   5.607 -0.9386 -0.3889 -0.4777
18342TIP3   OH276516   3.189   2.380  16.093 -0.2292 -0.3914  0.3904
18342TIP3    H176517   3.163   2.468  16.117 -0.2962 -0.8852  2.1371
18342TIP3    H276518   3.285   2.385  16.086 -0.2459 -0.1543  0.3110
18343TIP3   OH276519   2.979   6.602  13.597  0.5474  0.5206 -0.1823
18343TIP3    H176520   2.897   6.634  13.635  0.7149  2.8913 -1.7186
18343TIP3    H276521   2.959   6.592  13.504  0.9734 -2.4638 -0.0057
18344TIP3   OH276522   1.272   3.876  15.968  0.2295 -0.4358  0.2548
18344TIP3    H176523   1.211   3.859  16.040  0.7548 -2.8681  0.1722
18344TIP3    H276524   1.216   3.901  15.895 -0.4161  0.6224  1.1008
18345TIP3   OH276525   4.777   1.586   1.829 -0.3846  0.1987  0.2848
18345TIP3    H176526   4.823   1.507   1.803 -0.7099 -0.6841  2.2466
18345TIP3    H276527   4.825   1.658   1.787 -1.2114 -1.1334 -3.0536
18346TIP3   OH276528   2.733   1.941   4.717  0.6720 -0.8145 -0.0681
18346TIP3    H176529   2.674   1.883   4.766  0.7460 -2.2180 -1.6011
18346TIP3    H276530   2.771   1.998   4.784 -1.7271 -0.4842  1.0812
18347TIP3   OH276531   3.769   0.099   0.016 -0.3007  0.5241  0.2416
18347TIP3    H176532   3.723   0.051   0.085 -1.9470  1.2600 -0.3107
18347TIP3    H276533   3.839   0.041  -0.012 -0.5206 -0.3764  1.5312
18348TIP3   OH276534   0.647   2.216   2.732 -0.1809 -0.1104 -0.1431
18348TIP3    H176535   0.582   2.185   2.795  0.7322 -0.3136  0.7081
18348TIP3    H276536   0.682   2.296   2.771  1.8776 -1.3550  0.6409
18349TIP3   OH276537   5.352   3.155   3.206  0.5739 -0.0956 -0.2090
18349TIP3    H176538   5.341   3.090   3.275  0.4790  0.0430 -0.0913
18349TIP3    H276539   5.443   3.146   3.179  1.5537  1.9558  2.1146
18350TIP3   OH276540   5.892   2.016  11.950  1.2519 -0.1534 -0.1694
18350TIP3    H176541   5.861   2.082  11.888  1.5293  0.3054  0.1760
18350TIP3    H276542   5.927   1.946  11.896  0.0250 -0.4805 -0.5663
18351TIP3   OH276543   4.154   1.389   1.496 -0.1459 -0.6975  0.0791
18351TIP3    H176544   4.130   1.360   1.584 -1.7196 -0.5566 -0.2825
18351TIP3    H276545   4.094   1.343   1.438  1.3195 -1.3043 -0.9973
18352TIP3   OH276546   3.028   1.545   0.252 -0.1831 -0.0596  0.9368
18352TIP3    H176547   3.042   1.472   0.192  1.7593  0.3049  0.9081
18352TIP3    H276548   3.000   1.504   0.334  0.0580 -0.7806  0.6629
18353TIP3   OH276549   1.842   4.813  12.144  0.0209  0.1289  0.2672
18353TIP3    H176550   1.786   4.850  12.075 -0.0302 -0.6168 -0.0937
18353TIP3    H276551   1.786   4.749  12.187  0.1725  0.3383  0.7763
18354TIP3   OH276552   0.336   4.259  14.112  0.3823  0.5787 -0.4743
18354TIP3    H176553   0.253   4.259  14.159  1.0110  0.0084  0.6496
18354TIP3    H276554   0.385   4.332  14.150 -0.1581  1.8980 -2.1825
18355TIP3   OH276555   6.442   0.544  14.105 -0.4458 -0.5110  0.2393
18355TIP3    H176556   6.468   0.453  14.092  2.2493  0.2235  0.0174
18355TIP3    H276557   6.524   0.589  14.126 -1.4349  2.1794 -1.3958
18356TIP3   OH276558   6.660   5.455   4.342  0.2763 -0.4698 -0.3829
18356TIP3    H176559   6.756   5.453   4.334  0.5429 -0.5583  2.3102
18356TIP3    H276560   6.642   5.538   4.386 -0.7843 -1.0287  0.2482
18357TIP3   OH276561   2.424   3.073   0.572  0.4982  0.4881 -0.5650
18357TIP3    H176562   2.407   3.001   0.632  1.3975 -0.6921 -1.6920
18357TIP3    H276563   2.431   3.150   0.629 -2.0055 -0.0366  0.4917
18358TIP3   OH276564   4.780   3.693   4.958  0.7963  0.0870  0.5028
18358TIP3    H176565   4.762   3.679   4.865  0.3137  1.2182  0.4257
18358TIP3    H276566   4.863   3.741   4.959  0.0411  1.4240  0.5871
18359TIP3   OH276567   1.491   2.071   2.115 -0.0021  0.2666 -0.2701
18359TIP3    H176568   1.434   2.069   2.038 -1.1442 -0.8043  0.5763
18359TIP3    H276569   1.473   2.156   2.155 -2.3295 -0.7545  0.9391
18360TIP3   OH276570   0.848   3.644  15.995 -0.2526  0.7287 -0.6170
18360TIP3    H176571   0.860   3.631  15.901  0.2391  0.6442 -0.5475
18360TIP3    H276572   0.863   3.738  16.008  1.6302  0.4244 -0.3563
18361TIP3   OH276573   0.629   4.348  11.544 -0.3557 -0.2012  0.1541
18361TIP3    H176574   0.659   4.274  11.492  0.9559  0.5987 -0.2569
18361TIP3    H276575   0.696   4.416  11.530 -1.5568  1.0719  0.4733
18362TIP3   OH276576   5.255   3.830   0.505 -0.0933 -0.8551  0.0913
18362TIP3    H176577   5.199   3.893   0.551 -0.6855  2.6757 -4.9410
18362TIP3    H276578   5.343   3.846   0.540 -0.6452  1.0094  0.6798
18363TIP3   OH276579   2.246   0.269  14.038  0.1943 -0.1778 -0.4807
18363TIP3    H176580   2.182   0.334  14.064  0.8876  0.7249 -0.9708
18363TIP3    H276581   2.203   0.219  13.968  0.1034  0.5829 -0.9799
18364TIP3   OH276582   5.793   1.829   1.461  0.0635 -0.1199  0.0076
18364TIP3    H176583   5.858   1.759   1.454 -0.2456 -0.5668  1.5005
18364TIP3    H276584   5.832   1.892   1.522 -0.4563  0.1110  0.1032
18365TIP3   OH276585   6.816   1.583   3.485 -0.3799  0.0965 -0.4281
18365TIP3    H176586   6.896   1.574   3.538  0.0577  1.3210 -0.8495
18365TIP3    H276587   6.844   1.562   3.396 -0.4314  0.8996 -0.6376
18366TIP3   OH276588   2.923   4.884   4.984  0.0185 -0.1144  0.3893
18366TIP3    H176589   2.997   4.945   4.984 -0.0618 -0.0206  0.6446
18366TIP3    H276590   2.945   4.818   5.050  0.4749 -0.8028 -0.4321
18367TIP3   OH276591   5.215   1.444  16.538  0.8684 -0.2993 -0.6611
18367TIP3    H176592   5.226   1.382  16.466 -0.5942 -0.7002 -0.5578
18367TIP3    H276593   5.292   1.500  16.534  2.1921 -2.0895 -0.8007
18368TIP3   OH276594   6.708   5.038  12.179  0.2438 -0.1357  0.3091
18368TIP3    H176595   6.791   5.040  12.131 -0.0464 -0.4292 -0.2122
18368TIP3    H276596   6.733   5.051  12.271  0.8505 -0.0655  0.1372
18369TIP3   OH276597   3.928   1.601  12.653  0.1119  0.1193 -0.1694
18369TIP3    H176598   4.002   1.648  12.691  1.9811 -0.5522 -2.8933
18369TIP3    H276599   3.895   1.658  12.584 -0.4602 -0.6017 -0.4998
18370TIP3   OH276600   2.300   2.638   5.286  0.0468 -0.0341  0.4336
18370TIP3    H176601   2.248   2.600   5.215 -0.2834  1.1736  0.0293
18370TIP3    H276602   2.277   2.585   5.363  0.8041 -1.6860 -0.4501
18371TIP3   OH276603   4.377   6.809  16.836  0.0702 -0.3829  0.5984
18371TIP3    H176604   4.357   6.883  16.779  0.6047  0.0718  0.9957
18371TIP3    H276605   4.319   6.739  16.806 -1.0465  0.4574  0.7696
18372TIP3   OH276606   1.896   0.378  15.238 -0.4325 -0.1736  0.0056
18372TIP3    H176607   1.889   0.388  15.333  1.9084  1.4504  0.0494
18372TIP3    H276608   1.982   0.338  15.225 -0.5423  0.0520 -1.4720
18373TIP3   OH276609   0.724   4.101  13.251  0.4151  0.1331 -0.3277
18373TIP3    H176610   0.778   4.065  13.321  0.3084  1.3066  0.3649
18373TIP3    H276611   0.680   4.177  13.290  0.2787  0.7406 -1.6258
18374TIP3   OH276612   2.972   5.689  11.064  0.1677  0.8512  0.0024
18374TIP3    H176613   3.061   5.654  11.074  0.3943  1.7138  1.0261
18374TIP3    H276614   2.977   5.746  10.987  0.0564 -0.4747 -1.0196
18375TIP3   OH276615   6.032   0.126   3.515  0.3304 -0.7424  0.2190
18375TIP3    H176616   6.053   0.033   3.503 -0.3901 -0.9761  0.7336
18375TIP3    H276617   6.071   0.149   3.599  1.0569 -0.4048 -0.2009
18376TIP3   OH276618   2.911   1.889   3.838 -0.1261 -0.1406  0.0813
18376TIP3    H176619   2.959   1.817   3.880  0.0634  0.5296  1.0363
18376TIP3    H276620   2.824   1.884   3.876  0.1374  0.6678  0.8098
18377TIP3   OH276621   4.526   5.046   5.914  0.0557 -0.4953 -0.5530
18377TIP3    H176622   4.559   5.134   5.932  0.2512 -0.5608 -0.5943
18377TIP3    H276623   4.584   4.987   5.963  0.9284 -0.7097 -1.8140
18378TIP3   OH276624   5.462   4.165   5.210 -0.6729  0.1269 -0.5806
18378TIP3    H176625   5.446   4.235   5.274 -0.3025  0.7310 -1.1491
18378TIP3    H276626   5.446   4.206   5.125  2.5246  0.3849 -1.1079
18379TIP3   OH276627   1.420   3.145   4.455  0.6770  0.0674 -0.4042
18379TIP3    H176628   1.350   3.207   4.435 -1.2035 -1.4451  1.2395
18379TIP3    H276629   1.447   3.167   4.544  2.2884  0.6072 -1.0079
18380TIP3   OH276630   5.312   4.675  14.437 -0.1026  0.1038 -0.3182
18380TIP3    H176631   5.288   4.686  14.345  2.2372 -2.7685 -1.3347
18380TIP3    H276632   5.400   4.712  14.443  0.5602 -1.5517  0.3000
18381TIP3   OH276633   3.410   1.379   0.366  0.3136  0.8734  0.9614
18381TIP3    H176634   3.481   1.366   0.304  0.4543  2.7229  0.7139
18381TIP3    H276635   3.330   1.362   0.316  0.4140  2.6122  0.1877
18382TIP3   OH276636   0.289   3.336   2.672  0.8444  0.1104 -0.3095
18382TIP3    H176637   0.266   3.377   2.589 -1.0529  1.5138  0.8778
18382TIP3    H276638   0.228   3.372   2.735  1.5225 -1.7841  1.5117
18383TIP3   OH276639   2.639   4.153  12.081 -0.3968  0.4095 -0.5475
18383TIP3    H176640   2.623   4.063  12.054  0.4806  0.5172 -1.4702
18383TIP3    H276641   2.564   4.176  12.135 -0.3559 -1.0579  0.1514
18384TIP3   OH276642   3.879   2.390   5.191 -0.1927  0.2569  0.2351
18384TIP3    H176643   3.840   2.347   5.268 -0.8925  0.2460 -0.1168
18384TIP3    H276644   3.808   2.445   5.157 -0.5511 -1.2691 -1.5821
18385TIP3   OH276645   3.171   4.375   5.603  0.3366 -0.1913  0.0968
18385TIP3    H176646   3.143   4.289   5.635 -0.1022 -0.2816 -0.5243
18385TIP3    H276647   3.149   4.435   5.674 -1.4051 -0.2671 -0.3486
18386TIP3   OH276648   4.955   2.145   5.880  0.1049  0.3134  0.4236
18386TIP3    H176649   4.995   2.104   5.957  1.0311  0.5578  0.0707
18386TIP3    H276650   4.924   2.071   5.827  1.3629  0.0838  0.0061
18387TIP3   OH276651   6.162   5.650   5.906 -0.2562  0.3035  0.0292
18387TIP3    H176652   6.217   5.593   5.961 -1.4588 -1.7620 -0.8211
18387TIP3    H276653   6.217   5.673   5.832 -0.1582 -0.8394 -0.2656
18388TIP3   OH276654   4.898   2.595   2.984  0.1066  0.2696  0.1718
18388TIP3    H176655   4.915   2.644   2.904 -0.4431  1.4659  0.7699
18388TIP3    H276656   4.803   2.597   2.994  0.0926 -0.7721  0.2991
18389TIP3   OH276657   2.147   0.106   4.090 -0.5286 -0.0351 -0.3280
18389TIP3    H176658   2.133   0.017   4.123 -1.0583 -0.0998 -0.7185
18389TIP3    H276659   2.089   0.113   4.014  0.5984  0.1522 -1.1766
18390TIP3   OH276660   6.373   3.984   1.714  0.2425  0.7405  0.1933
18390TIP3    H176661   6.368   4.076   1.742  1.3655  0.5407  1.0910
18390TIP3    H276662   6.451   3.950   1.758 -0.6647 -0.8888  0.5849
18391TIP3   OH276663   4.596   0.478   0.636  0.6764  0.4213  1.0145
18391TIP3    H176664   4.638   0.555   0.597 -1.0995  1.6484  1.5014
18391TIP3    H276665   4.657   0.449   0.704  1.7814  0.8392  0.2083
18392TIP3   OH276666   0.274   4.592  14.984 -0.5497 -0.1116 -0.1451
18392TIP3    H176667   0.339   4.522  14.992  1.0656  1.5455  1.5584
18392TIP3    H276668   0.239   4.582  14.895  3.1964 -0.0680 -1.7236
18393TIP3   OH276669   6.450   3.123  15.226 -0.0305 -0.0086 -0.2126
18393TIP3    H176670   6.459   3.066  15.149  0.1662  1.1338 -1.0425
18393TIP3    H276671   6.494   3.074  15.296 -2.6279 -2.3172 -0.1168
18394TIP3   OH276672   0.634   2.881   4.571 -0.2792  0.2403 -0.1062
18394TIP3    H176673   0.638   2.829   4.651 -1.7981  0.0050 -0.1723
18394TIP3    H276674   0.651   2.971   4.600 -1.2413  0.2156  0.5506
18395TIP3   OH276675   2.206   3.190  14.334 -0.0417 -0.5275  0.6781
18395TIP3    H176676   2.256   3.109  14.332 -1.8107 -1.7100  2.3499
18395TIP3    H276677   2.140   3.178  14.265  0.9560  0.3571 -0.4442
18396TIP3   OH276678   1.900   3.351   0.812 -0.0003 -0.6298 -0.6387
18396TIP3    H176679   1.916   3.256   0.805 -0.8319 -0.7646 -0.6888
18396TIP3    H276680   1.864   3.375   0.727  0.4956 -0.2027 -0.7322
18397TIP3   OH276681   6.198   4.973   5.491  0.2257  0.5975  0.1036
18397TIP3    H176682   6.251   4.893   5.496  0.7963  0.9763  0.1377
18397TIP3    H276683   6.108   4.941   5.483  0.4905 -0.0473 -0.3413
18398TIP3   OH276684   2.722   0.019   0.213 -0.0927 -0.6731 -0.1787
18398TIP3    H176685   2.651   0.064   0.168 -0.0685 -1.8743 -1.4592
18398TIP3    H276686   2.702   0.030   0.306 -0.6228  1.0882 -0.4773
18399TIP3   OH276687   4.067   4.676   2.100  0.1223 -0.2951  0.3019
18399TIP3    H176688   3.985   4.713   2.067  0.1351  0.9953  1.6756
18399TIP3    H276689   4.040   4.620   2.173  0.2578 -1.7196 -0.7326
18400TIP3   OH276690   6.325   5.031  12.562  0.1315 -0.0411 -0.2702
18400TIP3    H176691   6.318   4.946  12.518  1.8328  1.2518 -3.1918
18400TIP3    H276692   6.236   5.051  12.590 -0.8828 -1.3253 -2.4586
18401TIP3   OH276693   4.229   6.219  11.001  0.2347 -0.4343 -0.0901
18401TIP3    H176694   4.174   6.152  11.042  2.9048 -1.3971  2.1050
18401TIP3    H276695   4.317   6.199  11.033  1.5007  2.4565 -1.6612
18402TIP3   OH276696   6.568   4.020   3.570 -0.3197 -0.0357 -0.1993
18402TIP3    H176697   6.558   3.940   3.622  1.3336 -0.6472 -0.7852
18402TIP3    H276698   6.623   3.993   3.496  1.3679  1.9637  0.2970
18403TIP3   OH276699   5.031   3.190   6.768  0.1339  0.7101  0.5928
18403TIP3    H176700   5.118   3.227   6.752  0.5109  0.4161  1.9308
18403TIP3    H276701   5.015   3.205   6.861 -0.2907 -1.2424  0.8535
18404TIP3   OH276702   3.231   1.611  11.490  0.2435 -0.4804 -0.3353
18404TIP3    H176703   3.244   1.565  11.407  0.5060  0.4851 -0.8392
18404TIP3    H276704   3.282   1.691  11.481  0.3276 -0.4024  0.7907
18405TIP3   OH276705   5.529   1.613  13.088 -0.1659 -0.3926 -0.5010
18405TIP3    H176706   5.557   1.527  13.057 -1.1431 -0.5611 -0.9351
18405TIP3    H276707   5.480   1.594  13.168 -0.2879 -0.2200 -0.5371
18406TIP3   OH276708   1.644   0.902  16.845  0.3990 -0.0794 -0.0302
18406TIP3    H176709   1.709   0.833  16.857  0.6374  0.7158  3.8683
18406TIP3    H276710   1.564   0.866  16.884 -0.0798  0.9631 -0.0392
18407TIP3   OH276711   1.973   3.878  13.293  0.0491 -0.5696 -0.1531
18407TIP3    H176712   2.052   3.917  13.329 -0.6576  1.7121 -0.9348
18407TIP3    H276713   1.991   3.868  13.199 -0.4697 -0.2923 -0.2883
18408TIP3   OH276714   3.491   3.031   5.891  0.2225  0.2841  0.3585
18408TIP3    H176715   3.546   3.109   5.904 -1.1659  1.3165  0.0616
18408TIP3    H276716   3.469   3.002   5.980  0.5885  0.3149  0.4635
18409TIP3   OH276717   0.489   6.004  14.636 -0.0954  0.2535  0.8200
18409TIP3    H176718   0.574   5.964  14.618  0.9750  2.4898  0.8430
18409TIP3    H276719   0.460   5.963  14.717  0.6460 -0.9856  0.4729
18410TIP3   OH276720   5.243   2.120  12.659  0.2719 -0.0415 -0.2175
18410TIP3    H176721   5.163   2.167  12.683  0.4117 -0.1162  0.4029
18410TIP3    H276722   5.251   2.051  12.725  0.5522 -0.3746 -0.6015
18411TIP3   OH276723   0.798   3.573  12.565  0.4613 -0.0586  0.7046
18411TIP3    H176724   0.770   3.663  12.543 -0.9454 -0.1691  1.9553
18411TIP3    H276725   0.796   3.527  12.481  0.4164  0.8859  0.1732
18412TIP3   OH276726   6.683   5.092   1.439  0.3944  0.2173 -0.6943
18412TIP3    H176727   6.702   5.010   1.394  0.1950  0.0976 -0.5574
18412TIP3    H276728   6.592   5.111   1.417  0.7309  0.9088 -1.5321
18413TIP3   OH276729   4.822   2.103  12.235  0.1210 -0.0180 -0.0698
18413TIP3    H176730   4.810   2.078  12.143  0.4183  0.2041 -0.1690
18413TIP3    H276731   4.894   2.050  12.266  0.6709  0.6168 -0.2468
18414TIP3   OH276732   6.624   2.974   4.061  0.0683 -0.1893 -0.1909
18414TIP3    H176733   6.717   2.986   4.081 -0.0259 -0.2950  0.3084
18414TIP3    H276734   6.613   3.013   3.975 -0.1475  3.1690  1.2691
18415TIP3   OH276735   2.311   6.778   2.157  0.3476  0.2715 -0.3343
18415TIP3    H176736   2.288   6.847   2.219 -0.8625  0.2423 -0.7356
18415TIP3    H276737   2.399   6.751   2.183  0.7904  1.8689 -0.0949
18416TIP3   OH276738   1.282   4.683   4.487 -0.6283  0.4515 -0.2815
18416TIP3    H176739   1.197   4.717   4.459 -1.2692  0.2262  1.3215
18416TIP3    H276740   1.296   4.723   4.573  0.1200 -0.7895  0.1894
18417TIP3   OH276741   1.397   6.093   2.673  0.3317 -0.2604 -0.3337
18417TIP3    H176742   1.481   6.139   2.662  0.3221  0.2270  1.4106
18417TIP3    H276743   1.402   6.057   2.762 -2.0592  1.3353  0.4859
18418TIP3   OH276744   5.295   2.149  15.431 -0.2399  0.0038 -0.3028
18418TIP3    H176745   5.256   2.197  15.504  0.0550  0.9946 -0.7958
18418TIP3    H276746   5.222   2.134  15.371 -0.3357 -0.1845 -0.1406
18419TIP3   OH276747   0.131   3.164  12.414  0.5130  0.3090 -0.0079
18419TIP3    H176748   0.039   3.179  12.392  0.6544  0.3599 -0.5825
18419TIP3    H276749   0.175   3.160  12.329  1.0025  0.0367  0.2602
18420TIP3   OH276750   0.289   1.346   5.568 -0.9167  0.3538  0.3478
18420TIP3    H176751   0.335   1.288   5.627  0.0789  0.7286 -0.0433
18420TIP3    H276752   0.284   1.298   5.485  1.1427  1.3445 -0.3854
18421TIP3   OH276753   0.998   2.071  16.958  0.0871 -0.2836  0.1450
18421TIP3    H176754   1.056   1.998  16.939  1.6656  0.9813 -0.0362
18421TIP3    H276755   0.940   2.076  16.881 -0.5030 -1.7543  0.4795
18422TIP3   OH276756   0.121   3.386  15.020 -0.3449 -0.4230  0.1131
18422TIP3    H176757   0.173   3.321  14.975  0.8216  1.3922 -1.2385
18422TIP3    H276758   0.184   3.453  15.048 -1.7049  1.0316 -0.1723
18423TIP3   OH276759   5.776   0.403  17.012  0.3920 -0.2251  0.2700
18423TIP3    H176760   5.812   0.315  17.020  1.1607  0.1678  1.1328
18423TIP3    H276761   5.840   0.460  17.053  0.4873  0.8980 -1.3925
18424TIP3   OH276762   0.674   2.591   3.695 -0.0831 -0.2539  0.0212
18424TIP3    H176763   0.671   2.686   3.683  0.3087 -0.2606 -0.1472
18424TIP3    H276764   0.629   2.576   3.778  0.3089  0.1275  0.3027
18425TIP3   OH276765   2.485   1.440   0.372 -0.2351  0.1624  0.2251
18425TIP3    H176766   2.409   1.458   0.317 -0.3746  1.3564  0.7949
18425TIP3    H276767   2.556   1.493   0.335 -0.0657  0.2007  0.5980
18426TIP3   OH276768   6.056   6.260  10.173  0.5185 -0.0712 -0.1109
18426TIP3    H176769   6.009   6.343  10.171  0.7016  0.0310 -0.1854
18426TIP3    H276770   6.004   6.205  10.232  0.8582  0.3722  0.6078
18427TIP3   OH276771   2.246   1.251  16.595  0.3857 -0.3819  0.1624
18427TIP3    H176772   2.252   1.340  16.631 -2.7482  0.3179 -0.8842
18427TIP3    H276773   2.228   1.196  16.671 -0.4685  0.2808  0.4543
18428TIP3   OH276774   6.407   4.327   2.850 -0.4446  0.2751  0.4357
18428TIP3    H176775   6.346   4.394   2.821  0.1962  0.6632 -0.0274
18428TIP3    H276776   6.463   4.371   2.914 -0.0035  0.2037  0.1069
18429TIP3   OH276777   2.119   1.477  15.912  0.0050 -0.4555 -0.5369
18429TIP3    H176778   2.037   1.520  15.889 -0.9547 -1.7716  0.3622
18429TIP3    H276779   2.177   1.494  15.837 -1.0768  0.4917 -1.1714
18430TIP3   OH276780   2.518   4.148  14.881 -0.2948  0.1056  0.1068
18430TIP3    H176781   2.565   4.064  14.878 -2.6263 -1.3576  2.1491
18430TIP3    H276782   2.567   4.201  14.944  0.7899  0.0395 -0.6611
18431TIP3   OH276783   2.490   3.434   2.374 -1.0217  0.0031  0.6325
18431TIP3    H176784   2.450   3.404   2.456 -1.9053  0.4090  0.3534
18431TIP3    H276785   2.484   3.358   2.316  2.3876 -1.3453  1.8691
18432TIP3   OH276786   3.771   2.336   3.325  0.1932 -0.6064  0.1754
18432TIP3    H176787   3.723   2.268   3.278  1.1860 -0.5896 -0.8920
18432TIP3    H276788   3.825   2.377   3.257  0.9917 -0.0049  1.1788
18433TIP3   OH276789   1.795   0.783   4.569  0.1066  0.4828 -0.1217
18433TIP3    H176790   1.821   0.777   4.477  0.8618  2.6132 -0.0864
18433TIP3    H276791   1.878   0.781   4.618 -0.4163 -3.0611  0.6987
18434TIP3   OH276792   3.472   3.824   4.986  0.0002 -0.0451  0.0570
18434TIP3    H176793   3.546   3.780   5.029 -0.4112  1.7767  2.7921
18434TIP3    H276794   3.395   3.773   5.011  0.1048 -0.8981 -1.3072
18435TIP3   OH276795   0.098   2.911  11.420  0.3166  0.0672  0.6128
18435TIP3    H176796   0.185   2.874  11.432  1.0519  1.4045 -0.4570
18435TIP3    H276797   0.075   2.892  11.329 -0.3392  0.0727  0.7707
18436TIP3   OH276798   1.051   5.399  15.336  0.9970 -0.4917 -0.0925
18436TIP3    H176799   1.092   5.340  15.273  1.2734 -0.7983  0.3718
18436TIP3    H276800   1.010   5.467  15.282 -0.3702 -1.7577 -0.6869
18437TIP3   OH276801   4.240   5.342   4.702 -0.2877 -0.7513  0.5525
18437TIP3    H176802   4.221   5.284   4.628  0.7403 -1.0086  0.4806
18437TIP3    H276803   4.305   5.403   4.669  1.4190 -1.9056  1.7156
18438TIP3   OH276804   4.807   5.292   3.427  0.0985 -0.0776  0.6756
18438TIP3    H176805   4.805   5.212   3.480  1.2789 -0.0507  0.7701
18438TIP3    H276806   4.739   5.348   3.465 -1.9324 -1.6936 -0.4548
18439TIP3   OH276807   1.543   1.778   4.981 -0.5081  0.0121  0.5294
18439TIP3    H176808   1.482   1.794   5.053 -0.6785  3.3983 -0.3083
18439TIP3    H276809   1.618   1.834   5.001  0.8124 -1.3992 -0.3435
18440TIP3   OH276810   5.070   5.869  13.372  0.5685  0.3810  0.0643
18440TIP3    H176811   5.048   5.961  13.383 -1.7996 -0.5270  4.2844
18440TIP3    H276812   5.002   5.834  13.315 -0.8521  0.5064  1.6303
18441TIP3   OH276813   2.513   4.913  15.805 -0.5257  0.1858  0.0181
18441TIP3    H176814   2.575   4.919  15.878 -0.6396  3.0962 -0.0707
18441TIP3    H276815   2.498   4.819  15.794  0.8731 -0.3778  2.5631
18442TIP3   OH276816   6.360   3.658   4.114 -0.0508 -0.4601  0.4778
18442TIP3    H176817   6.303   3.734   4.130 -1.2221 -1.4080  0.8288
18442TIP3    H276818   6.358   3.608   4.195 -1.0841 -2.0573 -0.5152
18443TIP3   OH276819   5.689   4.693   4.301  0.0051 -0.5317 -0.4331
18443TIP3    H176820   5.676   4.786   4.281  0.7300 -0.5388 -0.9737
18443TIP3    H276821   5.606   4.665   4.339  0.0283  0.5144  0.4141
18444TIP3   OH276822   5.564   4.599   6.403  0.0718  0.1984  0.0737
18444TIP3    H176823   5.541   4.572   6.314 -1.2093 -1.5605  0.9300
18444TIP3    H276824   5.482   4.631   6.441 -0.7377 -4.2711  2.4638
18445TIP3   OH276825   1.943   4.001   1.865 -0.6391 -0.3002  0.1221
18445TIP3    H176826   1.901   3.961   1.941 -2.7898  1.6420  0.0011
18445TIP3    H276827   2.005   4.063   1.902 -0.5651 -0.4796  0.2994
18446TIP3   OH276828   1.911   4.397   4.125 -0.8975 -0.0211 -0.0869
18446TIP3    H176829   1.898   4.311   4.163 -2.8342  1.0323  1.6933
18446TIP3    H276830   1.977   4.438   4.180 -0.3477 -0.1593 -0.6326
18447TIP3   OH276831   5.231   1.573   3.465  0.8188  0.7625 -0.2049
18447TIP3    H176832   5.262   1.606   3.381 -1.0216  2.3140 -0.3212
18447TIP3    H276833   5.255   1.640   3.528 -2.1665  2.0068 -0.3047
18448TIP3   OH276834   0.617   0.434  13.758  0.1513 -0.0391  0.3280
18448TIP3    H176835   0.608   0.466  13.848 -0.9109 -0.2655  0.3130
18448TIP3    H276836   0.527   0.425  13.727  0.5235  1.4536 -1.2594
18449TIP3   OH276837   3.695   4.222   5.608 -0.3239 -0.0469  0.0225
18449TIP3    H176838   3.755   4.296   5.616 -0.2932 -0.1765  1.0331
18449TIP3    H276839   3.725   4.175   5.530 -0.1792  0.8493 -0.4785
18450TIP3   OH276840   0.930   1.060   6.153  0.0695  0.7275 -0.0153
18450TIP3    H176841   0.893   0.972   6.150  1.5755  0.1236 -1.5360
18450TIP3    H276842   1.007   1.051   6.209 -0.0880  1.2156  0.2828
18451TIP3   OH276843   5.860   1.057  12.361 -0.2584 -0.2849 -0.8107
18451TIP3    H176844   5.871   0.966  12.389  4.0753  0.3931 -0.0091
18451TIP3    H276845   5.819   1.100  12.436 -1.0796 -1.2670 -0.6838
18452TIP3   OH276846   1.878   4.079   5.906  0.3300 -0.3124  0.5356
18452TIP3    H176847   1.956   4.057   5.855 -0.5683  0.3242 -1.1659
18452TIP3    H276848   1.870   4.008   5.969  1.2745 -1.3258 -0.4481
18453TIP3   OH276849   4.398   5.672  13.946  0.1702  0.5467  0.6286
18453TIP3    H176850   4.357   5.716  14.021 -0.1583 -0.0877  0.8297
18453TIP3    H276851   4.324   5.637  13.896  0.4846 -3.7223  2.8987
18454TIP3   OH276852   3.892   0.062  13.475 -0.3184  0.0596  0.0285
18454TIP3    H176853   3.855   0.151  13.475  0.0577  0.2339  1.2910
18454TIP3    H276854   3.829   0.010  13.426  0.0656  1.2706 -1.7952
18455TIP3   OH276855   1.103   1.906  12.409 -0.5093  0.1492 -0.3098
18455TIP3    H176856   1.097   1.916  12.504  1.8170  1.4149 -0.2566
18455TIP3    H276857   1.079   1.992  12.375  1.8188  0.6710 -0.6968
18456TIP3   OH276858   1.099   5.090   4.955 -0.7711 -0.5776  0.0143
18456TIP3    H176859   1.023   5.138   4.921 -1.8783 -1.9181  0.5904
18456TIP3    H276860   1.170   5.113   4.895 -1.3177  1.6565  0.1822
18457TIP3   OH276861   5.956   3.845  12.383  0.0045 -0.0617 -0.8322
18457TIP3    H176862   6.037   3.796  12.388  1.4023  1.8778 -3.1628
18457TIP3    H276863   5.958   3.904  12.459  0.1622 -0.8779 -0.1975
18458TIP3   OH276864   4.512   4.803  12.829 -0.4634  0.9986  0.1895
18458TIP3    H176865   4.607   4.818  12.822 -0.4023  0.9497  0.8141
18458TIP3    H276866   4.505   4.734  12.895 -0.9346  0.9599  0.0971
18459TIP3   OH276867   6.046   6.613  17.043 -0.2324 -0.3145 -0.5787
18459TIP3    H176868   6.105   6.545  17.077  0.8044  1.2763  0.8856
18459TIP3    H276869   5.984   6.630  17.114  0.9563  1.8912 -0.0173
18460TIP3   OH276870   6.809   2.158  13.358 -0.2396  0.4449  0.1553
18460TIP3    H176871   6.784   2.067  13.373 -0.6694  0.3671 -0.9653
18460TIP3    H276872   6.790   2.173  13.265  2.3189  0.8971 -0.3417
18461TIP3   OH276873   0.193   0.977  15.332 -0.1434 -0.4444 -0.0110
18461TIP3    H176874   0.265   0.920  15.359 -0.7003 -1.2409 -0.1965
18461TIP3    H276875   0.172   1.028  15.410  1.6329  0.8966 -0.3695
18462TIP3   OH276876   1.768   6.805  14.031  0.0132 -0.4138  0.6190
18462TIP3    H176877   1.802   6.723  13.994  0.9300  0.0438  0.4262
18462TIP3    H276878   1.837   6.835  14.090  0.6329  1.3161 -0.9403
18463TIP3   OH276879   0.953   4.476  13.548  0.5226 -0.5483 -0.3860
18463TIP3    H176880   0.944   4.569  13.569 -0.4115 -0.0791 -2.7268
18463TIP3    H276881   1.043   4.455  13.572  1.5764  1.6374 -2.2627
18464TIP3   OH276882   3.248   2.860  14.030  0.4268 -0.3973 -0.3830
18464TIP3    H176883   3.334   2.864  13.988  0.8889 -0.3674  0.5598
18464TIP3    H276884   3.204   2.941  14.003  0.3946 -0.7675 -1.4815
18465TIP3   OH276885   5.054   2.126  15.277  0.0164 -0.6700  0.1357
18465TIP3    H176886   5.044   2.069  15.353 -1.6079  0.8426  1.0966
18465TIP3    H276887   4.964   2.142  15.247  0.6452 -1.7347 -2.4944
18466TIP3   OH276888   5.235   5.575  15.900 -0.3754  0.5450 -0.0973
18466TIP3    H176889   5.159   5.518  15.914  0.6529 -0.5547  1.1433
18466TIP3    H276890   5.284   5.534  15.829 -1.2130  1.5631 -1.2870
18467TIP3   OH276891   0.488   4.746   0.920 -0.8919 -0.3796 -0.3364
18467TIP3    H176892   0.398   4.775   0.901 -0.8158 -0.5236 -0.9491
18467TIP3    H276893   0.477   4.658   0.956 -1.0734  0.0943  0.7730
18468TIP3   OH276894   3.481   3.874   3.396 -0.3858  0.3574 -0.2140
18468TIP3    H176895   3.422   3.798   3.393 -0.1227  0.2198 -2.3813
18468TIP3    H276896   3.426   3.946   3.428 -1.1373 -0.2776 -0.0635
18469TIP3   OH276897   5.234   6.727   2.519 -0.0047 -0.4271 -0.0025
18469TIP3    H176898   5.280   6.793   2.466  0.0205 -0.4908 -0.0602
18469TIP3    H276899   5.196   6.667   2.455 -0.1971 -0.3566  0.0461
18470TIP3   OH276900   0.769   4.634  16.157  0.2566  0.2436  0.5497
18470TIP3    H176901   0.689   4.680  16.132 -0.3070  0.2640  2.3678
18470TIP3    H276902   0.839   4.696  16.137 -0.2990  0.8903  0.5782
18471TIP3   OH276903   4.680   2.669   2.394  0.1081 -0.7237 -0.4422
18471TIP3    H176904   4.644   2.581   2.401 -0.1666 -0.6616 -0.9895
18471TIP3    H276905   4.607   2.727   2.418  1.2440 -0.7267  3.2321
18472TIP3   OH276906   4.491   2.840   2.474 -0.1526  0.6654 -0.6301
18472TIP3    H176907   4.484   2.935   2.470 -0.5048  0.6050 -1.6307
18472TIP3    H276908   4.406   2.808   2.442 -0.4995  0.0218  0.8953
18473TIP3   OH276909   3.485   6.676  12.765 -0.0010  0.2648  0.1108
18473TIP3    H176910   3.557   6.698  12.825 -0.3942  0.5967  0.4664
18473TIP3    H276911   3.420   6.744  12.781 -0.4747 -0.1479 -0.0707
18474TIP3   OH276912   0.039   1.324  13.214 -0.3739  0.3080 -0.1182
18474TIP3    H176913   0.079   1.321  13.301 -0.2500  0.4165 -0.1711
18474TIP3    H276914   0.070   1.244  13.171 -3.1561 -1.4920  1.1204
18475TIP3   OH276915   5.406   2.926   1.787 -0.2073 -0.0189  0.3696
18475TIP3    H176916   5.396   2.980   1.865 -1.7464  0.3609 -0.0537
18475TIP3    H276917   5.448   2.984   1.723  0.5390 -0.1548  0.7332
18476TIP3   OH276918   2.822   4.069   6.632 -0.1674 -0.7858  0.2367
18476TIP3    H176919   2.746   4.042   6.580 -0.0454  0.7326 -0.7317
18476TIP3    H276920   2.834   4.162   6.612  0.9381 -0.6015  1.6526
18477TIP3   OH276921   5.030   6.527  10.789 -0.5582  0.2106 -0.0625
18477TIP3    H176922   4.972   6.467  10.836 -0.9087  0.1177 -0.6116
18477TIP3    H276923   4.972   6.596  10.757 -0.7563 -1.0845 -2.6069
18478TIP3   OH276924   0.704   6.281  16.595 -0.3867  0.6934  0.4131
18478TIP3    H176925   0.669   6.370  16.585  0.4881  1.1170  1.0290
18478TIP3    H276926   0.736   6.278  16.685 -0.7246 -0.3650  0.5072
18479TIP3   OH276927   5.894   1.473  11.522 -0.0809  0.3531 -0.0458
18479TIP3    H176928   5.873   1.483  11.614  0.2751  0.8354 -0.0174
18479TIP3    H276929   5.964   1.535  11.506  0.7032 -0.6015 -0.3555
18480TIP3   OH276930   0.058   0.263  12.595 -0.1392  0.5143 -0.3785
18480TIP3    H176931   0.140   0.301  12.564 -0.5162  1.6984  0.0503
18480TIP3    H276932   0.084   0.192  12.652  0.5842  0.5692 -0.6417
18481TIP3   OH276933   4.013   2.117  14.648  0.2657 -0.0026 -0.1057
18481TIP3    H176934   4.005   2.023  14.631  1.5058 -0.1909  0.3092
18481TIP3    H276935   4.105   2.129  14.671  0.7057  1.6921 -2.5860
18482TIP3   OH276936   2.960   6.075  11.697 -0.1260 -0.6263  0.2845
18482TIP3    H176937   2.977   6.154  11.747  0.3941  0.3759 -1.4484
18482TIP3    H276938   3.045   6.050  11.661 -0.9514  0.1986 -2.3017
18483TIP3   OH276939   0.599   0.847   3.940  0.1696 -0.4836 -0.3624
18483TIP3    H176940   0.670   0.907   3.961 -1.2198  0.9943  0.2725
18483TIP3    H276941   0.632   0.793   3.868  2.6139 -1.1599  1.2390
18484TIP3   OH276942   3.316   6.285  11.964  0.1295 -0.3659 -0.1982
18484TIP3    H176943   3.341   6.272  12.056 -1.8091 -0.1230  0.3831
18484TIP3    H276944   3.367   6.362  11.937  1.5221 -1.0741  0.3363
18485TIP3   OH276945   5.850   3.599  17.161 -0.1275 -0.4603  0.3528
18485TIP3    H176946   5.927   3.564  17.204  0.0847 -0.1104  0.2575
18485TIP3    H276947   5.880   3.623  17.073 -0.2408  0.0975  0.4663
18486TIP3   OH276948   4.392   5.910  14.551 -0.0893  0.2983  0.3204
18486TIP3    H176949   4.476   5.893  14.507  0.1807 -1.4213  1.4209
18486TIP3    H276950   4.339   5.953  14.484  1.4386  0.8174 -0.6122
18487TIP3   OH276951   5.424   3.320  14.471  0.0151 -0.0257 -0.6467
18487TIP3    H176952   5.467   3.247  14.427  0.7383 -0.3495  0.5608
18487TIP3    H276953   5.486   3.345  14.540 -0.6482  1.1171 -0.4636
18488TIP3   OH276954   3.429   1.687  12.169  0.2409  0.0001  0.0686
18488TIP3    H176955   3.352   1.715  12.120 -0.1482 -1.0938  0.0532
18488TIP3    H276956   3.458   1.607  12.125 -0.0311 -0.9281  1.5472
18489TIP3   OH276957   5.446   4.259   0.792  0.0862 -0.3751 -0.4971
18489TIP3    H176958   5.447   4.202   0.868 -0.3948  1.2736  0.7814
18489TIP3    H276959   5.357   4.295   0.790  0.2186 -0.0802 -1.5882
18490TIP3   OH276960   2.435   0.289  14.609  0.0117  0.0372 -0.7497
18490TIP3    H176961   2.421   0.370  14.658  0.0576 -0.5858  0.3204
18490TIP3    H276962   2.446   0.222  14.677 -0.7322 -0.9831 -1.6138
18491TIP3   OH276963   4.943   2.272   5.498  0.0303 -0.0885 -0.1433
18491TIP3    H176964   4.870   2.296   5.555  0.8012 -1.5922  1.5414
18491TIP3    H276965   4.906   2.208   5.437 -0.2446 -0.2510  0.1921
18492TIP3   OH276966   1.173   5.473  14.475  0.3175 -0.3425 -0.1239
18492TIP3    H176967   1.238   5.494  14.408  1.7212 -0.7012  1.0982
18492TIP3    H276968   1.167   5.552  14.529 -0.8163 -0.0493 -0.6732
18493TIP3   OH276969   0.944   1.011  11.171 -0.2777  0.1984  0.0680
18493TIP3    H176970   0.966   1.104  11.167  0.8137  0.0532  1.9941
18493TIP3    H276971   0.910   0.999  11.260 -0.7488 -1.1684 -0.2902
18494TIP3   OH276972   5.136   5.669  11.460  0.1001 -0.0412 -0.5518
18494TIP3    H176973   5.089   5.693  11.540  0.0671  1.0448 -0.8899
18494TIP3    H276974   5.214   5.624  11.491 -1.4500 -2.4646  0.0049
18495TIP3   OH276975   5.545   2.919   3.916  0.3793  0.6631  0.6594
18495TIP3    H176976   5.483   2.858   3.955  1.1219  0.3586  1.3871
18495TIP3    H276977   5.524   3.003   3.958  0.9840  0.3954  1.5208
18496TIP3   OH276978   1.362   2.394  15.290 -0.0229  0.8982  0.3610
18496TIP3    H176979   1.327   2.483  15.301 -2.8282 -0.3316  1.9122
18496TIP3    H276980   1.430   2.387  15.358  0.9870  2.2077 -0.4912
18497TIP3   OH276981   1.965   2.946   2.486 -0.0333 -0.3598  0.4546
18497TIP3    H176982   1.981   2.859   2.449  1.2157  0.7253 -1.6897
18497TIP3    H276983   1.881   2.938   2.531 -0.7358 -2.2493 -1.1047
18498TIP3   OH276984   1.888   5.086  16.649  0.0480 -0.2247  0.3520
18498TIP3    H176985   1.868   5.002  16.608  2.1640 -0.5303 -0.1476
18498TIP3    H276986   1.862   5.152  16.584 -0.4141 -0.5421  0.2149
18499TIP3   OH276987   1.858   4.751   0.745  0.1352 -0.0048 -0.3587
18499TIP3    H176988   1.949   4.741   0.774 -0.3256 -0.5993  0.9361
18499TIP3    H276989   1.852   4.843   0.720  1.4406 -0.2655 -1.7310
18500TIP3   OH276990   3.965   5.878  16.160 -0.4403 -0.0517  0.1210
18500TIP3    H176991   3.941   5.787  16.140 -1.5848  0.3200 -0.1697
18500TIP3    H276992   3.904   5.905  16.229 -0.2347  0.5697  0.0603
18501TIP3   OH276993   0.870   1.581   0.079  0.2896 -0.0117  0.0748
18501TIP3    H176994   0.913   1.666   0.087  1.0228 -0.3512 -0.2880
18501TIP3    H276995   0.860   1.552   0.170  3.1720 -1.1003  0.0963
18502TIP3   OH276996   2.724   1.872   0.185 -0.1843 -0.6753 -0.6677
18502TIP3    H176997   2.737   1.961   0.218 -0.4418 -1.5077  1.8410
18502TIP3    H276998   2.635   1.872   0.151 -0.1490  0.0638 -0.7670
18503TIP3   OH276999   3.254   2.602   4.686 -0.5454  0.3197  0.4744
18503TIP3    H177000   3.263   2.694   4.710  0.0732  0.7185 -1.1958
18503TIP3    H277001   3.336   2.562   4.714 -0.6752  0.3518  0.8978
18504TIP3   OH277002   0.487   5.612   4.750  0.8193  0.0304  0.5451
18504TIP3    H177003   0.536   5.663   4.685 -0.0110 -0.4728 -0.5043
18504TIP3    H277004   0.419   5.568   4.699 -0.9538  0.9871  2.0180
18505TIP3   OH277005   0.905   3.399  16.132  0.3223  0.0786  0.0920
18505TIP3    H177006   0.862   3.403  16.217  2.1439 -1.7557  1.1460
18505TIP3    H277007   0.892   3.486  16.094  2.0596  1.9423  3.5277
18506TIP3   OH277008   0.013   5.975   3.177  0.4100 -0.4439  0.2708
18506TIP3    H177009   0.066   6.013   3.108  3.1853 -2.7033  1.0569
18506TIP3    H277010   0.044   6.017   3.258 -0.4691 -0.2327  0.5007
18507TIP3   OH277011   5.753   0.802  11.869  0.1304  0.2684 -0.3170
18507TIP3    H177012   5.720   0.820  11.781 -2.2107  1.5482  0.7699
18507TIP3    H277013   5.778   0.888  11.903 -2.0944  0.2855  1.4299
18508TIP3   OH277014   3.031   1.324  16.637 -0.2696 -0.0318 -0.0600
18508TIP3    H177015   3.035   1.361  16.549  1.4939  1.1244  0.4751
18508TIP3    H277016   3.114   1.349  16.677 -1.6205  0.7096  2.3975
18509TIP3   OH277017   1.233   6.154   0.461 -0.0194 -0.2219  0.6940
18509TIP3    H177018   1.289   6.230   0.478 -2.4035  1.1612  2.6569
18509TIP3    H277019   1.180   6.179   0.386  1.3904 -1.2366 -0.6781
18510TIP3   OH277020   1.990   2.588   0.162  0.5385 -0.4300 -0.3306
18510TIP3    H177021   2.023   2.533   0.233  1.8822 -2.4212 -2.4261
18510TIP3    H277022   2.069   2.612   0.112 -0.4135  0.6824 -1.3452
18511TIP3   OH277023   6.661   2.128   0.485  0.6518  0.3387 -0.5948
18511TIP3    H177024   6.657   2.223   0.485  0.4457  0.3339  0.0477
18511TIP3    H277025   6.571   2.100   0.468  0.4524  0.2638  0.5038
18512TIP3   OH277026   2.932   4.946  16.644 -0.4184 -0.0040 -0.4887
18512TIP3    H177027   2.953   4.990  16.726  0.8300 -2.1287  0.3761
18512TIP3    H277028   2.864   5.000  16.604 -0.4174  1.5273  1.5144
18513TIP3   OH277029   0.064   1.831   5.827  0.3314 -0.2433  0.4136
18513TIP3    H177030   0.103   1.746   5.806  1.3113  0.0766  0.9054
18513TIP3    H277031   0.005   1.812   5.901  0.3174 -0.5520  0.3230
18514TIP3   OH277032   2.122   4.749  15.760  0.3439 -0.1467 -0.5999
18514TIP3    H177033   2.131   4.832  15.807  0.1988 -0.6204  0.2789
18514TIP3    H277034   2.127   4.773  15.667  0.9969  0.7535 -0.3333
18515TIP3   OH277035   2.973   3.726  12.797 -0.0738  0.0199  0.4398
18515TIP3    H177036   3.021   3.745  12.716  0.1206 -0.8528  0.3453
18515TIP3    H277037   2.886   3.763  12.782 -0.9891 -2.6260 -1.3617
18516TIP3   OH277038   0.428   4.302   4.992  0.3155 -0.7386  0.4270
18516TIP3    H177039   0.454   4.359   4.920  1.7248  0.5419  1.8934
18516TIP3    H277040   0.341   4.334   5.018  0.2980 -0.4726  0.0343
18517TIP3   OH277041   5.887   6.336  12.286  0.0362 -0.0090 -0.7594
18517TIP3    H177042   5.874   6.247  12.320  0.8067 -0.3544 -1.3611
18517TIP3    H277043   5.956   6.327  12.220  1.2786  1.3007  0.3330
18518TIP3   OH277044   2.698   6.810  16.750 -0.9501 -0.4317  0.2416
18518TIP3    H177045   2.777   6.771  16.713  0.6697  0.5385  2.5681
18518TIP3    H277046   2.670   6.874  16.684 -0.2630 -1.3362 -0.9487
18519TIP3   OH277047   4.294   1.372  15.483  0.3601  0.0687 -0.3980
18519TIP3    H177048   4.332   1.430  15.549 -0.1418  0.0952 -0.1343
18519TIP3    H277049   4.200   1.371  15.502  0.3302 -0.6260 -0.5581
18520TIP3   OH277050   3.238   1.007   3.230  1.1434 -0.0777  0.2398
18520TIP3    H177051   3.281   0.923   3.247  0.4334 -0.0793  2.1241
18520TIP3    H277052   3.173   1.015   3.299  0.1716  1.3397 -0.8078
18521TIP3   OH277053   3.395   4.262   1.840  0.3355 -0.1978  0.2915
18521TIP3    H177054   3.382   4.167   1.840  4.1569 -0.8088  0.2505
18521TIP3    H277055   3.448   4.279   1.918  1.2465  1.6636 -0.6973
18522TIP3   OH277056   6.655   3.540   3.459  0.4892 -0.4955  0.2963
18522TIP3    H177057   6.707   3.554   3.538 -2.4054 -1.3541  2.4676
18522TIP3    H277058   6.586   3.606   3.464  1.4930  0.8688 -2.7077
18523TIP3   OH277059   2.939   1.520   4.941  0.7625  0.3909 -0.6578
18523TIP3    H177060   2.882   1.481   4.874  2.2513 -0.1967 -1.6196
18523TIP3    H277061   3.007   1.454   4.955 -0.2981 -0.1220  2.5234
18524TIP3   OH277062   4.774   6.237   6.063  1.3946  0.4978 -0.1947
18524TIP3    H177063   4.841   6.291   6.105  1.3788  0.8787 -0.6443
18524TIP3    H277064   4.695   6.291   6.066  1.0186 -0.1030  0.6636
18525TIP3   OH277065   3.512   6.718  11.453 -0.3368  0.2861 -0.1243
18525TIP3    H177066   3.481   6.645  11.507 -0.3575  0.7764  0.5391
18525TIP3    H277067   3.434   6.772  11.441 -0.3914  0.0495 -0.8694
18526TIP3   OH277068   0.454   5.016   4.026 -0.6236  0.5475 -0.2700
18526TIP3    H177069   0.523   4.949   4.030 -1.1733  0.0665  1.5796
18526TIP3    H277070   0.375   4.970   4.056 -1.2789  1.7101 -0.2103
18527TIP3   OH277071   5.437   1.973  15.800 -0.2126 -0.8901 -0.1905
18527TIP3    H177072   5.380   2.049  15.811 -0.0212 -0.5265 -1.7015
18527TIP3    H277073   5.388   1.913  15.745  0.3938 -1.0517 -0.5659
18528TIP3   OH277074   3.176   0.635  13.598 -0.3907  0.1071 -0.2591
18528TIP3    H177075   3.242   0.575  13.563 -0.6295 -1.2272  1.5164
18528TIP3    H277076   3.092   0.595  13.575 -0.5676  0.7525 -0.7427
18529TIP3   OH277077   0.102   5.038  11.991  0.3900  0.8081  0.0924
18529TIP3    H177078   0.189   5.027  12.030  0.8036 -0.4186 -1.1294
18529TIP3    H277079   0.119   5.076  11.904 -0.2429  0.1239 -0.3425
18530TIP3   OH277080   0.915   4.492   2.391 -0.1683  0.0064  0.4350
18530TIP3    H177081   0.972   4.560   2.427 -0.0513 -0.2202  0.6799
18530TIP3    H277082   0.895   4.436   2.466  0.8186 -0.9961 -0.0303
18531TIP3   OH277083   0.737   5.880  11.599 -0.3487  0.7522  0.4434
18531TIP3    H177084   0.643   5.865  11.587 -0.5292  1.6340  0.7278
18531TIP3    H277085   0.748   5.888  11.694  0.3121 -1.2145  0.5625
18532TIP3   OH277086   3.137   3.389   0.184  0.0554 -0.3613  0.0514
18532TIP3    H177087   3.171   3.331   0.253 -0.1343  0.9510  1.2651
18532TIP3    H277088   3.053   3.419   0.217  0.0395  0.4057 -0.6810
18533TIP3   OH277089   0.302   2.625  15.610  0.2128 -0.4997 -0.0793
18533TIP3    H177090   0.272   2.617  15.701  1.6130 -2.0911  0.2583
18533TIP3    H277091   0.242   2.569  15.560 -0.6579  0.5011 -0.1825
18534TIP3   OH277092   6.352   2.834   6.030 -0.6483  0.3525 -0.4611
18534TIP3    H177093   6.275   2.889   6.047 -0.8218 -0.4117  1.2547
18534TIP3    H277094   6.394   2.875   5.954 -1.8246  1.7475 -0.3763
18535TIP3   OH277095   2.079   6.673   2.054 -0.7278  0.0176 -0.3414
18535TIP3    H177096   2.039   6.612   2.117 -1.9396  0.1178 -0.9968
18535TIP3    H277097   2.164   6.696   2.093  0.3373 -3.0837 -0.6863
18536TIP3   OH277098   2.212   1.896   4.114 -0.1055  0.7070 -0.2722
18536TIP3    H177099   2.179   1.870   4.200  2.1368  1.6379  0.9162
18536TIP3    H277100   2.173   1.983   4.099  0.6761  1.1845  0.4705
18537TIP3   OH277101   0.910   3.955   4.872 -0.1473 -0.0783  0.3025
18537TIP3    H177102   0.936   4.040   4.906  2.0013  0.1838 -1.8728
18537TIP3    H277103   0.952   3.891   4.929 -0.4405  0.3143  0.9619
18538TIP3   OH277104   0.277   1.825   4.674 -0.1555  0.2427  0.8145
18538TIP3    H177105   0.187   1.804   4.698 -0.3303  0.9083  0.7605
18538TIP3    H277106   0.271   1.855   4.583  0.2695 -0.6740  0.4719
18539TIP3   OH277107   2.470   3.523   1.165 -0.2600  0.3499  0.2742
18539TIP3    H177108   2.460   3.428   1.161 -0.6005  0.3479  1.1312
18539TIP3    H277109   2.470   3.550   1.073  1.3135 -0.6184 -0.0229
18540TIP3   OH277110   5.593   6.204  12.179 -0.5835 -0.3647  0.0957
18540TIP3    H177111   5.578   6.286  12.131 -3.1294 -0.8806 -0.0574
18540TIP3    H277112   5.647   6.152  12.120 -0.1645  0.6351 -0.4231
18541TIP3   OH277113   6.791   1.476  13.000 -0.6304 -0.2428 -0.1159
18541TIP3    H177114   6.766   1.426  12.922  0.8370 -0.9943 -0.1040
18541TIP3    H277115   6.824   1.411  13.061  2.6797  0.8514 -0.6376
18542TIP3   OH277116   3.040   3.520   1.532 -0.0598  0.0768 -0.0426
18542TIP3    H177117   2.991   3.518   1.615 -0.4982 -3.7102 -0.3263
18542TIP3    H277118   3.125   3.483   1.554  0.2496  0.1858 -1.0453
18543TIP3   OH277119   5.945   0.738  16.854 -0.0479 -0.3154  0.1029
18543TIP3    H177120   6.011   0.668  16.852 -1.2289 -1.3964 -0.8867
18543TIP3    H277121   5.939   0.760  16.947  1.5491 -0.3519  0.2397
18544TIP3   OH277122   1.285   3.136  16.010  0.0848  0.5512 -0.2386
18544TIP3    H177123   1.191   3.138  16.027  0.0875  0.5579 -0.2234
18544TIP3    H277124   1.325   3.170  16.090  0.0442  1.6076 -0.6617
18545TIP3   OH277125   0.875   0.943   4.060 -0.6171 -0.1831  0.1937
18545TIP3    H177126   0.940   1.006   4.093 -0.1585 -0.3194 -0.4400
18545TIP3    H277127   0.871   0.876   4.129  0.3982 -0.5086 -0.0461
18546TIP3   OH277128   3.417   2.581  12.300 -0.3432  0.7237 -0.2163
18546TIP3    H177129   3.497   2.628  12.323 -0.9066  1.5895 -0.0123
18546TIP3    H277130   3.423   2.570  12.205 -0.4634  1.7004 -0.3456
18547TIP3   OH277131   4.965   6.449   0.025  0.0742 -0.7736 -0.0138
18547TIP3    H177132   4.895   6.511   0.005 -0.7758 -2.1758 -1.4779
18547TIP3    H277133   4.942   6.413   0.111 -0.7766 -0.9397 -0.3151
18548TIP3   OH277134   1.846   3.213   2.380  0.2580  0.0516 -0.0632
18548TIP3    H177135   1.754   3.200   2.404 -0.0573  1.4346 -0.5101
18548TIP3    H277136   1.890   3.135   2.414 -0.9584 -0.2962  0.7675
18549TIP3   OH277137   5.481   0.926   3.072 -0.1867 -0.0535  0.0192
18549TIP3    H177138   5.450   0.962   3.156  0.5198 -2.2407  1.2697
18549TIP3    H277139   5.573   0.954   3.067 -0.4918  0.8830 -0.5089
18550TIP3   OH277140   2.137   4.507  12.883  0.0652 -0.8231  0.4406
18550TIP3    H177141   2.058   4.486  12.932 -0.9826 -0.7903 -1.2086
18550TIP3    H277142   2.206   4.453  12.923 -0.5911 -0.2051  2.4397
18551TIP3   OH277143   5.101   2.567  15.961  0.2306  0.0596 -0.2164
18551TIP3    H177144   5.172   2.604  16.015  0.3455  1.6661 -1.4151
18551TIP3    H277145   5.076   2.487  16.006  2.8101 -0.5402  0.2684
18552TIP3   OH277146   3.710   4.928  15.849 -0.7573  0.0514 -0.1478
18552TIP3    H177147   3.652   4.960  15.918  1.2169  0.2657  1.4287
18552TIP3    H277148   3.652   4.918  15.773 -3.5426 -2.8063  2.2071
18553TIP3   OH277149   5.797   4.118   6.422 -0.3851 -0.8549  0.7803
18553TIP3    H177150   5.764   4.207   6.438  1.2841 -0.0746 -0.0115
18553TIP3    H277151   5.869   4.108   6.484  0.9604 -0.7632 -0.7283
18554TIP3   OH277152   0.891   2.142  16.379 -0.2737 -0.2886  0.1186
18554TIP3    H177153   0.798   2.161  16.364 -0.9029 -1.6556  1.9798
18554TIP3    H277154   0.925   2.121  16.292 -0.8020  3.6816 -1.1565
18555TIP3   OH277155   0.311   3.758   5.422  0.0791 -0.1030 -0.0300
18555TIP3    H177156   0.386   3.773   5.479 -0.9271 -0.6815  1.4881
18555TIP3    H277157   0.298   3.840   5.376  0.4851  0.6170  1.1203
18556TIP3   OH277158   4.989   2.169  15.643  0.2326 -0.1897 -0.0125
18556TIP3    H177159   4.923   2.153  15.576 -0.9559 -0.4002  1.1774
18556TIP3    H277160   5.020   2.081  15.667 -0.2434 -0.1980  0.5857
18557TIP3   OH277161   1.991   2.999   5.519  0.2238 -0.4149 -0.1541
18557TIP3    H177162   1.946   3.081   5.499 -0.1922 -0.3994  0.8209
18557TIP3    H277163   2.041   2.979   5.440 -0.0578  0.5231 -0.5741
18558TIP3   OH277164   1.006   3.571  10.480  0.8503 -0.0719  0.1556
18558TIP3    H177165   0.986   3.663  10.461  1.2661  0.6032  2.7272
18558TIP3    H277166   1.101   3.569  10.491  1.0029 -1.1041 -1.2156
18559TIP3   OH277167   1.899   6.403   5.263  0.3289  0.2870 -0.3148
18559TIP3    H177168   1.894   6.431   5.171  0.7718 -0.1785 -0.4840
18559TIP3    H277169   1.824   6.345   5.273 -0.8052  1.8000  0.1390
18560TIP3   OH277170   4.302   0.025   4.045  0.1574 -0.7144 -0.7089
18560TIP3    H177171   4.278   0.093   3.982 -0.9826 -0.3446  0.1040
18560TIP3    H277172   4.260   0.053   4.127  0.3429 -1.9840 -0.1705
18561TIP3   OH277173   6.422   3.346   1.469 -0.0199  0.6168  0.3549
18561TIP3    H177174   6.487   3.416   1.473 -0.3763  0.9099  1.1922
18561TIP3    H277175   6.363   3.364   1.543  0.1548 -0.8353  0.8616
18562TIP3   OH277176   6.589   4.376  14.084  0.5853  0.0324  0.1860
18562TIP3    H177177   6.611   4.366  13.991  2.8237  0.8734  0.5869
18562TIP3    H277178   6.579   4.286  14.115 -2.1108 -0.2169 -1.2737
18563TIP3   OH277179   3.456   4.730  15.763 -0.3943 -0.1461  0.1711
18563TIP3    H177180   3.361   4.727  15.755 -0.4307 -1.0870  0.7973
18563TIP3    H277181   3.472   4.741  15.857  0.0961  2.0506 -0.1470
18564TIP3   OH277182   5.231   0.628   2.150 -0.2185 -0.3454 -0.3201
18564TIP3    H177183   5.201   0.552   2.200  2.8046  0.2051  2.4590
18564TIP3    H277184   5.242   0.595   2.061 -1.6519 -2.4231  0.2371
18565TIP3   OH277185   6.148   3.987   2.672 -0.3464  0.0337  0.3344
18565TIP3    H177186   6.201   3.909   2.688 -0.2247  0.1928  0.7093
18565TIP3    H277187   6.165   4.044   2.748 -1.7414 -0.2988  0.9007
18566TIP3   OH277188   6.647   5.250  14.216 -0.2295 -0.0726  0.2829
18566TIP3    H177189   6.660   5.180  14.152  1.3768 -0.4745  1.0263
18566TIP3    H277190   6.701   5.322  14.184 -0.8497  0.3792  0.2283
18567TIP3   OH277191   5.432   2.456  15.655 -0.1790 -0.1589  0.5134
18567TIP3    H177192   5.398   2.482  15.569  0.1605  1.3504  0.8293
18567TIP3    H277193   5.359   2.411  15.697 -0.7780  0.2931 -0.0377
18568TIP3   OH277194   4.253   6.572  17.036  0.1072  0.4151 -0.7627
18568TIP3    H177195   4.176   6.521  17.060  1.0949  0.1988  2.1124
18568TIP3    H277196   4.218   6.656  17.005 -1.2915  0.2364  0.3075
18569TIP3   OH277197   4.684   1.790   5.163  0.5352  0.3505 -0.5107
18569TIP3    H177198   4.620   1.737   5.210  0.3243  1.4627  0.4720
18569TIP3    H277199   4.716   1.732   5.094 -1.0976 -0.4026 -0.6595
18570TIP3   OH277200   3.161   0.374   4.845  0.0927 -0.1477  0.6704
18570TIP3    H177201   3.114   0.331   4.917 -0.0687 -2.1506 -0.5959
18570TIP3    H277202   3.159   0.311   4.774 -0.3270  2.0696 -1.3580
18571TIP3   OH277203   2.698   4.097  15.997 -0.4488 -0.5725 -0.1296
18571TIP3    H177204   2.641   4.160  16.041  1.1391  0.3820  0.6583
18571TIP3    H277205   2.707   4.130  15.908  0.1720  0.2232  0.2091
18572TIP3   OH277206   4.190   5.728  15.105  0.4489 -0.3393  0.2600
18572TIP3    H177207   4.262   5.791  15.114  0.7188 -0.7627  1.1687
18572TIP3    H277208   4.111   5.783  15.102  0.7721  0.1039 -0.1948
18573TIP3   OH277209   1.208   6.705   3.832 -0.0502 -0.3403  0.9606
18573TIP3    H177210   1.140   6.742   3.774  1.1431 -0.8840 -0.8410
18573TIP3    H277211   1.161   6.677   3.910 -1.9602 -1.0014 -0.3915
18574TIP3   OH277212   0.929   0.758  12.103 -0.3069 -0.0652  0.0311
18574TIP3    H177213   0.897   0.809  12.177  0.9457 -0.9351  1.1830
18574TIP3    H277214   0.924   0.819  12.029 -2.4514  0.5169  0.6024
18575TIP3   OH277215   2.198   2.167   4.472 -0.1640  0.5577  0.7005
18575TIP3    H177216   2.238   2.144   4.556 -0.5704 -2.6519  0.0767
18575TIP3    H277217   2.265   2.145   4.407 -0.1776  2.2181  0.1156
18576TIP3   OH277218   3.039   1.798   2.056 -0.7970  0.4227 -0.6089
18576TIP3    H177219   2.957   1.789   2.008 -1.6358  1.3146  0.6125
18576TIP3    H277220   3.028   1.744   2.134  0.3380 -0.5694 -1.1114
18577TIP3   OH277221   3.517   4.977   1.386 -0.0139 -0.4284  0.6227
18577TIP3    H177222   3.607   5.009   1.382 -0.4162  0.6679 -0.2894
18577TIP3    H277223   3.518   4.894   1.339  0.4044 -0.1230  0.0928
18578TIP3   OH277224   6.054   5.896  11.019  0.3100  0.0345  0.1027
18578TIP3    H177225   5.999   5.851  10.955  2.2157 -1.2329 -0.6912
18578TIP3    H277226   6.026   5.987  11.015  0.3790 -0.0274 -2.5340
18579TIP3   OH277227   2.710   0.700  14.137 -0.2332 -0.4672  0.2524
18579TIP3    H177228   2.799   0.666  14.146 -0.8292 -2.5138 -1.1319
18579TIP3    H277229   2.654   0.626  14.161 -1.5613  0.4281 -0.0348
18580TIP3   OH277230   6.760   6.509   0.654 -0.0569  0.4056  0.4103
18580TIP3    H177231   6.813   6.447   0.704 -1.4123 -0.2611  1.0677
18580TIP3    H277232   6.707   6.554   0.720  0.5388  1.8918 -0.1240
18581TIP3   OH277233   1.992   3.485  15.487  0.0110  0.0811 -0.1834
18581TIP3    H177234   2.079   3.479  15.447 -0.2185 -0.1950 -0.6391
18581TIP3    H277235   1.987   3.409  15.545  0.5344  0.7503  0.7557
18582TIP3   OH277236   1.630   6.406  12.577 -0.4005  0.0687 -0.0600
18582TIP3    H177237   1.548   6.400  12.529  0.0659  0.0463 -0.8747
18582TIP3    H277238   1.627   6.335  12.641  0.2819 -1.8685 -2.1118
18583TIP3   OH277239   2.326   1.673  16.273  1.1151 -0.1090 -0.2184
18583TIP3    H177240   2.374   1.618  16.211  2.0404 -0.5427  0.8640
18583TIP3    H277241   2.234   1.659  16.252  1.3977 -0.9601 -0.8954
18584TIP3   OH277242   3.200   5.207  14.158  0.2504  0.1255 -0.8493
18584TIP3    H177243   3.243   5.233  14.077 -0.7160 -0.9527 -1.7290
18584TIP3    H277244   3.110   5.239  14.150  0.1021 -0.1349 -0.2830
18585TIP3   OH277245   0.372   6.462   3.921  0.2650 -0.1803 -0.0957
18585TIP3    H177246   0.341   6.538   3.872  1.0293  2.1336  2.8730
18585TIP3    H277247   0.375   6.492   4.012  0.0915 -3.9450  1.2145
18586TIP3   OH277248   1.148   3.925  15.712 -0.2380 -0.5238 -0.4919
18586TIP3    H177249   1.160   3.917  15.617 -0.2528 -0.4668 -0.4985
18586TIP3    H277250   1.082   3.992  15.722  0.6026  0.3007 -0.4007
18587TIP3   OH277251   4.092   0.657   4.368  0.2538 -1.0660  0.1631
18587TIP3    H177252   4.185   0.655   4.391  0.2206 -0.9448  0.3097
18587TIP3    H277253   4.067   0.749   4.375  0.0559 -1.1354  0.3981
18588TIP3   OH277254   1.065   2.227  11.038  0.1430 -0.4083 -0.3091
18588TIP3    H177255   1.047   2.144  10.994  0.0601 -0.1949 -0.6775
18588TIP3    H277256   0.982   2.251  11.080  0.0379 -0.2801 -0.5876
18589TIP3   OH277257   4.878   6.554   3.256 -0.5944  0.4475 -0.6068
18589TIP3    H177258   4.787   6.533   3.231 -0.1645 -1.5568 -0.5309
18589TIP3    H277259   4.881   6.650   3.254 -2.3180  0.5114 -2.0641
18590TIP3   OH277260   3.040   4.115  16.646 -0.3032 -0.4143  0.0748
18590TIP3    H177261   2.988   4.185  16.606  0.0688  1.3805  2.5934
18590TIP3    H277262   2.981   4.073  16.709  0.7167  0.5345  1.7290
18591TIP3   OH277263   5.964   5.792  14.511  0.2355 -0.2737  0.0352
18591TIP3    H177264   6.037   5.750  14.555  0.9756  0.7852 -0.1658
18591TIP3    H277265   5.906   5.820  14.582  0.3780 -0.4831  0.2328
18592TIP3   OH277266   0.630   5.787  17.123  0.0700  0.2356  0.0895
18592TIP3    H177267   0.723   5.767  17.110 -0.0124 -0.7953  1.0021
18592TIP3    H277268   0.585   5.738  17.054 -0.0235 -1.7136  1.4942
18593TIP3   OH277269   6.293   6.278  16.057  0.0859  0.4762  0.4502
18593TIP3    H177270   6.342   6.342  16.005  1.7158 -2.7185 -2.1663
18593TIP3    H277271   6.326   6.288  16.146  1.5597  2.0694 -0.2488
18594TIP3   OH277272   0.363   1.042  14.372  0.1914  0.2060  0.1645
18594TIP3    H177273   0.273   1.020  14.345  0.3340  0.9863 -1.0325
18594TIP3    H277274   0.351   1.108  14.441 -0.1685 -0.2771  0.5665
18595TIP3   OH277275   3.153   3.535   2.724 -0.5821  0.1189  0.3312
18595TIP3    H177276   3.233   3.560   2.771  0.5881 -1.0954 -0.9452
18595TIP3    H277277   3.095   3.610   2.734  0.3340  0.6127  2.1535
18596TIP3   OH277278   6.553   1.410  11.701  0.2443  0.0565  0.1821
18596TIP3    H177279   6.512   1.496  11.706  1.5063  0.6357  0.7885
18596TIP3    H277280   6.550   1.376  11.790  1.1525  0.1481  0.2539
18597TIP3   OH277281   3.224   5.642  14.612  0.5777  0.3585 -0.4704
18597TIP3    H177282   3.193   5.732  14.620 -0.0273  0.1750 -0.7230
18597TIP3    H277283   3.273   5.641  14.530  0.8272  0.5254 -0.3253
18598TIP3   OH277284   1.676   6.022  15.924 -0.2713 -0.1025 -0.0431
18598TIP3    H177285   1.678   5.947  15.864  0.4806 -0.3109  0.2443
18598TIP3    H277286   1.600   6.073  15.895 -1.1302 -1.2736  0.1114
18599TIP3   OH277287   3.768   1.107  11.621  0.3270  0.2603 -0.0548
18599TIP3    H177288   3.753   1.119  11.527  0.0986  1.6497  0.1426
18599TIP3    H277289   3.800   1.017  11.629 -1.6336 -0.5660 -1.2206
18600TIP3   OH277290   1.054   5.546   1.127  0.3678 -0.2522  0.0483
18600TIP3    H177291   1.050   5.467   1.074  0.0424  0.3668 -0.8646
18600TIP3    H277292   1.037   5.617   1.065 -1.4768  0.3777  1.2380
18601TIP3   OH277293   4.931   6.384   0.522 -0.2733 -0.8442  0.0767
18601TIP3    H177294   4.938   6.480   0.525 -1.4660 -0.7393 -0.3947
18601TIP3    H277295   4.880   6.362   0.600 -0.5385 -1.0416 -0.1520
18602TIP3   OH277296   3.582   1.917  13.908  0.2250 -0.5822  0.5715
18602TIP3    H177297   3.631   1.996  13.933  0.1689 -0.1727 -0.5894
18602TIP3    H277298   3.627   1.885  13.830 -1.1905 -0.3414 -0.3645
18603TIP3   OH277299   2.729   5.199   1.334  0.4263 -0.0675  0.2527
18603TIP3    H177300   2.677   5.253   1.394 -0.3361 -0.7762  0.2332
18603TIP3    H277301   2.690   5.215   1.248  0.6625 -0.0975  0.1392
18604TIP3   OH277302   6.401   4.142  13.493 -0.4264 -0.5276 -0.0343
18604TIP3    H177303   6.473   4.095  13.451 -0.5564 -0.8550  0.1018
18604TIP3    H277304   6.324   4.087  13.477 -1.2086  1.2423 -2.6884
18605TIP3   OH277305   6.350   4.129  16.278  0.1549 -0.4197 -0.7915
18605TIP3    H177306   6.335   4.082  16.360  0.5340  1.5781  0.4596
18605TIP3    H277307   6.427   4.183  16.295 -0.9918  1.5749 -1.7875
18606TIP3   OH277308   1.142   5.004  16.695  0.6429  0.4858 -0.8791
18606TIP3    H177309   1.067   5.047  16.735  0.6725  1.1768 -1.5499
18606TIP3    H277310   1.204   5.075  16.677  0.6327  0.2006 -2.1428
18607TIP3   OH277311   6.135   2.697   5.152 -0.1740 -0.4056  0.5020
18607TIP3    H177312   6.209   2.642   5.126 -0.2576 -0.8164  1.1193
18607TIP3    H277313   6.166   2.787   5.142  0.7176 -0.5809  1.6522
18608TIP3   OH277314   6.062   4.944   5.147  0.3017 -0.1503 -0.6956
18608TIP3    H177315   5.998   5.003   5.188 -0.5803 -0.4059 -1.6871
18608TIP3    H277316   6.139   4.950   5.203 -0.7360 -0.1407  0.7581
18609TIP3   OH277317   3.501   1.049   5.483 -0.5074 -0.4867 -0.2391
18609TIP3    H177318   3.541   0.971   5.444 -0.5997 -0.6172 -0.0682
18609TIP3    H277319   3.422   1.064   5.431 -0.4643 -0.4789 -0.3028
18610TIP3   OH277320   2.115   0.041  16.706 -0.3726  0.4770  0.0160
18610TIP3    H177321   2.206   0.017  16.687  0.1049  2.5969 -0.4604
18610TIP3    H277322   2.075   0.052  16.621 -0.3923  1.9940  0.2037
18611TIP3   OH277323   4.857   2.766   4.019 -0.5643  0.3336  0.4755
18611TIP3    H177324   4.783   2.811   3.979 -0.6293  0.9637  1.2842
18611TIP3    H277325   4.934   2.809   3.984 -0.5936 -0.0534 -0.0588
18612TIP3   OH277326   6.812   2.700  11.547 -0.4296 -0.0962  0.2225
18612TIP3    H177327   6.890   2.651  11.521 -0.8329 -1.0966  0.9064
18612TIP3    H277328   6.826   2.788  11.510 -0.5162 -1.1994 -2.5225
18613TIP3   OH277329   4.486   2.784  14.481  0.3699 -0.1946 -0.2887
18613TIP3    H177330   4.477   2.690  14.495  1.7517  0.2270  3.9786
18613TIP3    H277331   4.579   2.796  14.460  0.8271  0.4987  2.0308
18614TIP3   OH277332   6.064   6.090  16.701  0.0664  0.0025 -0.0291
18614TIP3    H177333   5.989   6.114  16.645 -0.7626 -2.5192 -0.0364
18614TIP3    H277334   6.140   6.099  16.644 -0.3955  0.9355 -0.5169
18615TIP3   OH277335   6.623   2.030   0.108  0.5631  0.2420  0.2255
18615TIP3    H177336   6.565   2.055   0.037  1.3408  0.6982 -0.2538
18615TIP3    H277337   6.703   2.079   0.092  2.1046 -2.4919 -0.6841
18616TIP3   OH277338   2.394   3.101  16.193  0.1170 -0.1896  0.6711
18616TIP3    H177339   2.347   3.182  16.209 -1.1755 -0.4247 -1.7236
18616TIP3    H277340   2.392   3.055  16.277 -0.7368  1.4236  1.5535
18617TIP3   OH277341   2.181   2.318   3.592  0.3671 -0.3011 -0.3754
18617TIP3    H177342   2.214   2.228   3.590  1.9760  0.2315  1.1907
18617TIP3    H277343   2.146   2.332   3.504  1.5791 -1.9231 -1.1510
18618TIP3   OH277344   0.955   0.869   3.809  0.4471 -0.2817  0.4442
18618TIP3    H177345   0.931   0.879   3.901 -0.9857  0.7951 -0.0464
18618TIP3    H277346   1.014   0.943   3.792 -0.8909  0.6917 -0.0343
18619TIP3   OH277347   1.154   0.578   0.850 -0.0981 -0.0949 -0.4943
18619TIP3    H177348   1.086   0.511   0.841 -0.8459  0.5759  0.1652
18619TIP3    H277349   1.111   0.652   0.893  1.1301  0.2194  0.2372
18620TIP3   OH277350   1.035   1.035   1.567 -0.2773  0.1196 -0.1961
18620TIP3    H177351   1.115   1.055   1.519 -0.6291 -0.4417 -1.0307
18620TIP3    H277352   0.968   1.091   1.528 -0.5465 -0.2798 -0.3222
18621TIP3   OH277353   0.865   3.260   3.368  0.5701  0.4585  0.1891
18621TIP3    H177354   0.815   3.179   3.378 -0.5149  0.9192 -1.3995
18621TIP3    H277355   0.841   3.312   3.445  0.7580 -0.4413  0.8692
18622TIP3   OH277356   4.596   5.757   5.515 -0.3429 -0.1480  0.0503
18622TIP3    H177357   4.624   5.713   5.596  2.3486  3.5034  1.1975
18622TIP3    H277358   4.517   5.804   5.540  0.8315  1.4776  0.7657
18623TIP3   OH277359   4.968   0.948  13.598 -0.0347 -0.6798  0.2274
18623TIP3    H177360   4.898   0.893  13.563 -0.4742  0.4060 -0.6100
18623TIP3    H277361   4.924   1.005  13.661  0.3172 -0.8660  0.6431
18624TIP3   OH277362   4.972   1.442  11.805 -0.3153  0.0719 -0.2905
18624TIP3    H177363   5.036   1.449  11.875  1.5359  1.2229 -2.0347
18624TIP3    H277364   4.925   1.526  11.808  0.4870  0.5601 -1.0777
18625TIP3   OH277365   6.500   0.865  16.845 -0.2689 -0.0330 -0.3307
18625TIP3    H177366   6.457   0.947  16.870 -1.6688 -1.0164  0.5891
18625TIP3    H277367   6.432   0.814  16.801 -0.0852 -1.6039  1.1046
18626TIP3   OH277368   0.566   1.871   5.259 -0.4769 -0.0199 -0.5599
18626TIP3    H177369   0.504   1.805   5.291 -1.3767  1.1868  0.2109
18626TIP3    H277370   0.629   1.880   5.331 -0.4509  0.0729 -0.5948
18627TIP3   OH277371   2.939   2.561  12.970 -0.2644 -0.2118 -0.2869
18627TIP3    H177372   3.013   2.621  12.965  0.7824 -1.5630 -1.3223
18627TIP3    H277373   2.921   2.554  13.064  1.3987 -0.4322  0.0385
18628TIP3   OH277374   4.928   2.783   2.764 -0.0190 -0.1321 -0.1277
18628TIP3    H177375   4.870   2.852   2.733  1.1539  0.4515 -1.0090
18628TIP3    H277376   5.016   2.811   2.740  0.4378 -2.1458 -0.9413
18629TIP3   OH277377   2.254   4.267  16.465  0.4575 -0.5850 -0.2333
18629TIP3    H177378   2.305   4.204  16.515  1.3434  0.2800 -0.0123
18629TIP3    H277379   2.259   4.236  16.374  3.1761  0.5930 -0.5532
18630TIP3   OH277380   5.656   4.042  15.690  0.5595  0.3705  0.5937
18630TIP3    H177381   5.625   4.116  15.741  0.5355 -1.0343  2.6734
18630TIP3    H277382   5.651   3.968  15.749  3.9986 -0.6543 -0.2538
18631TIP3   OH277383   0.750   2.740  16.328 -0.2812  0.4211 -0.1313
18631TIP3    H177384   0.698   2.774  16.401 -1.0392  0.7728 -0.8217
18631TIP3    H277385   0.727   2.796  16.254  0.2604 -0.1084 -0.7049
18632TIP3   OH277386   6.549   3.342  14.505  0.7003 -1.2022  0.4070
18632TIP3    H177387   6.529   3.301  14.421  0.9644  1.8936 -1.2388
18632TIP3    H277388   6.463   3.368  14.539  0.8479  1.0170 -0.8053
18633TIP3   OH277389   5.818   1.373   1.376  0.5386  0.4184 -0.3528
18633TIP3    H177390   5.774   1.433   1.437  0.1899 -0.3931  0.2077
18633TIP3    H277391   5.753   1.305   1.360  0.9873  0.1145 -0.8732
18634TIP3   OH277392   0.823   6.576   5.329 -0.8067 -0.2332 -0.1395
18634TIP3    H177393   0.731   6.585   5.305 -0.8613 -1.3590 -0.3602
18634TIP3    H277394   0.871   6.587   5.247 -0.7350  0.2769 -0.0363
18635TIP3   OH277395   5.758   2.703   1.986  0.2746  0.3419  0.0639
18635TIP3    H177396   5.738   2.789   1.949  1.7791 -0.6967 -3.2800
18635TIP3    H277397   5.760   2.644   1.911 -0.6133 -2.6413  2.2895
18636TIP3   OH277398   2.369   1.990  11.447 -0.4663  0.6176  0.4060
18636TIP3    H177399   2.413   2.009  11.364 -0.4599  1.5790  0.6314
18636TIP3    H277400   2.417   1.915  11.483  0.3581  1.0368  0.1794
18637TIP3   OH277401   0.491   0.827  14.451  0.1117  0.0902 -0.7297
18637TIP3    H177402   0.451   0.896  14.399  0.1252  0.1611 -0.6447
18637TIP3    H277403   0.557   0.872  14.504 -0.4045  0.1249 -0.1176
18638TIP3   OH277404   2.097   4.021  11.559  0.4128 -0.4060  0.1845
18638TIP3    H177405   2.022   4.003  11.615  0.9770  2.9502  2.1705
18638TIP3    H277406   2.166   3.963  11.592  0.2383  0.3218  1.8693
18639TIP3   OH277407   2.660   5.939   4.733 -0.0290  0.3193  0.0846
18639TIP3    H177408   2.669   5.852   4.692  0.3038  1.0332 -1.3985
18639TIP3    H277409   2.591   5.982   4.683  0.8302  1.4453 -0.1617
18640TIP3   OH277410   1.770   0.234   5.591  0.2166  0.6151  0.1971
18640TIP3    H177411   1.723   0.284   5.657  0.7326 -0.0225  1.0651
18640TIP3    H277412   1.855   0.278   5.582  0.5559  0.0785  0.7428
18641TIP3   OH277413   5.326   4.495   1.617  0.2364 -0.5830  0.9241
18641TIP3    H177414   5.261   4.566   1.616  1.5724  0.6483 -1.2029
18641TIP3    H277415   5.279   4.420   1.655 -2.4576  0.2624 -0.6272
18642TIP3   OH277416   0.658   0.892  12.095  0.1591  0.2797  0.2950
18642TIP3    H177417   0.706   0.917  12.173  1.7464 -2.0584  0.1461
18642TIP3    H277418   0.566   0.897  12.120  0.6158  0.6472  1.9631
18643TIP3   OH277419   5.542   2.263   0.438 -0.4892  0.2477 -0.3464
18643TIP3    H177420   5.464   2.235   0.486 -0.8220  2.0628  0.2214
18643TIP3    H277421   5.609   2.274   0.506  0.3289 -1.5052 -0.8590
18644TIP3   OH277422   2.893   2.615  16.992  0.1986 -0.5095  0.1850
18644TIP3    H177423   2.884   2.589  16.900  0.6180  0.5056 -0.1503
18644TIP3    H277424   2.933   2.539  17.034  2.0429 -0.1625 -0.9101
18645TIP3   OH277425   5.110   5.296   0.398  0.3470  0.1948  0.6211
18645TIP3    H177426   5.037   5.248   0.438  0.2766 -1.0453 -0.9614
18645TIP3    H277427   5.151   5.233   0.339  0.3185  2.0566 -1.4475
18646TIP3   OH277428   2.939   4.042   5.363  0.0777 -0.1794  0.2309
18646TIP3    H177429   2.934   4.138   5.366  0.9292  0.0921 -3.5844
18646TIP3    H277430   3.033   4.023   5.357 -0.1376 -1.1836 -0.0109
18647TIP3   OH277431   6.330   6.397  16.443 -0.3864  0.4054 -0.1707
18647TIP3    H177432   6.301   6.423  16.531 -2.2232 -1.8013 -0.0695
18647TIP3    H277433   6.253   6.408  16.388  0.1514 -0.2637 -1.0734
18648TIP3   OH277434   3.162   6.631   1.735 -0.2516 -0.6044 -0.0437
18648TIP3    H177435   3.132   6.540   1.733  0.4684 -0.8487  0.1372
18648TIP3    H277436   3.195   6.647   1.646 -1.7602 -0.0416 -0.5172
18649TIP3   OH277437   6.425   0.242   1.711  0.5132  0.0191  0.3833
18649TIP3    H177438   6.418   0.166   1.769 -0.2924 -0.2013  0.0001
18649TIP3    H277439   6.376   0.311   1.757 -0.7562 -0.3632 -0.3657
18650TIP3   OH277440   5.068   3.678   2.031 -0.4580 -0.7754 -0.6418
18650TIP3    H177441   5.155   3.717   2.039 -1.0330  0.4660 -0.3140
18650TIP3    H277442   5.079   3.608   1.966  0.7586 -0.5574 -0.6807
18651TIP3   OH277443   5.407   3.808  15.606  0.0893 -0.5212  0.2064
18651TIP3    H177444   5.334   3.835  15.551 -1.3196 -0.7580  1.9237
18651TIP3    H277445   5.402   3.712  15.606 -0.6105 -0.4926  1.6461
18652TIP3   OH277446   2.515   5.561   2.570 -0.1522  0.5934 -0.7691
18652TIP3    H177447   2.485   5.522   2.488  0.8833 -0.0238 -0.8561
18652TIP3    H277448   2.529   5.486   2.628 -1.8891  1.0853  0.3238
18653TIP3   OH277449   1.745   0.148  13.336 -0.1260 -0.5782  0.1678
18653TIP3    H177450   1.726   0.055  13.350  1.5150 -0.6409  2.2969
18653TIP3    H277451   1.700   0.193  13.408  2.0014 -0.1083  1.2468
18654TIP3   OH277452   6.161   1.932  13.274  0.1678  0.2267  0.5487
18654TIP3    H177453   6.151   1.844  13.311 -2.2813  0.1992 -0.1056
18654TIP3    H277454   6.212   1.919  13.194  0.0305 -0.5592  0.5845
18655TIP3   OH277455   2.150   5.407   2.020  0.3212  0.0562 -0.0178
18655TIP3    H177456   2.209   5.371   2.086 -1.7267 -2.3967  0.5586
18655TIP3    H277457   2.206   5.463   1.966  3.0423 -1.6934  0.8556
18656TIP3   OH277458   3.765   4.255   2.265  0.2505  0.2651  0.1187
18656TIP3    H177459   3.761   4.212   2.351  0.0074  1.0687  0.5121
18656TIP3    H277460   3.859   4.266   2.248  0.3467 -1.2325 -0.3997
18657TIP3   OH277461   1.409   5.364   6.718  0.2667 -0.0752 -0.2913
18657TIP3    H177462   1.486   5.308   6.710  0.4664  0.0435  0.6803
18657TIP3    H277463   1.437   5.436   6.775 -0.6260 -0.1542  0.2670
18658TIP3   OH277464   2.815   0.695   4.289  0.0258 -0.6540 -0.5642
18658TIP3    H177465   2.902   0.685   4.328 -0.1079  0.1065 -0.0469
18658TIP3    H277466   2.788   0.606   4.266  1.0626 -0.8548 -0.9932
18659TIP3   OH277467   6.503   6.359   2.431 -0.4198  0.4850 -0.4799
18659TIP3    H177468   6.465   6.278   2.396  0.2925 -0.1750  0.2683
18659TIP3    H277469   6.462   6.428   2.379 -0.1148 -0.4213 -1.9563
18660TIP3   OH277470   5.419   1.669   3.005  0.2912 -0.7642  0.0591
18660TIP3    H177471   5.465   1.617   2.940 -0.6259 -0.2728 -1.0013
18660TIP3    H277472   5.418   1.758   2.968  1.0094 -0.1856  1.4000
18661TIP3   OH277473   3.069   5.122  14.746 -0.0482  0.4333 -0.5653
18661TIP3    H177474   3.005   5.065  14.704  0.3407  0.3926 -1.1090
18661TIP3    H277475   3.109   5.171  14.674 -0.5047  1.5289 -0.1012
18662TIP3   OH277476   2.783   1.616   1.552 -0.4015 -0.1760  0.1635
18662TIP3    H177477   2.856   1.650   1.603 -0.0463 -0.3578 -0.2250
18662TIP3    H277478   2.783   1.670   1.472 -1.6909  0.9160  0.8720
18663TIP3   OH277479   4.605   5.726   1.966  0.2805 -0.1810  0.1400
18663TIP3    H177480   4.656   5.802   1.991  1.5892 -1.3735  1.1993
18663TIP3    H277481   4.614   5.720   1.871  1.6370 -0.0479  0.2605
18664TIP3   OH277482   3.956   4.374  15.201  0.1864 -0.1274  0.2041
18664TIP3    H177483   3.923   4.297  15.246 -1.4878 -0.6064 -1.7423
18664TIP3    H277484   3.897   4.384  15.125  0.0020  3.3626  0.7172
18665TIP3   OH277485   0.897   1.032   1.197 -0.0863 -0.6162  0.2118
18665TIP3    H177486   0.978   1.036   1.147  0.2261 -0.2493  0.7485
18665TIP3    H277487   0.919   1.069   1.282 -1.5278  2.2147 -0.5785
18666TIP3   OH277488   5.292   4.373   3.312  0.1984  0.3228  0.2153
18666TIP3    H177489   5.319   4.290   3.273  2.1736  0.8637  0.3887
18666TIP3    H277490   5.294   4.435   3.240  0.4726  0.6020  0.4626
18667TIP3   OH277491   0.285   5.944   2.836  0.0698 -0.9615  0.4194
18667TIP3    H177492   0.257   5.998   2.762 -0.8723 -1.3705  0.4674
18667TIP3    H277493   0.380   5.954   2.839  0.0504 -0.4782 -0.4816
18668TIP3   OH277494   2.994   1.482  15.364  0.2146 -0.1289 -0.1972
18668TIP3    H177495   2.970   1.566  15.326  0.6336 -1.0287 -2.5808
18668TIP3    H277496   3.062   1.502  15.427 -0.8013  1.4849  0.4121
18669TIP3   OH277497   0.716   0.962   2.599  0.1578 -0.1047 -0.2224
18669TIP3    H177498   0.714   0.931   2.508  1.6472 -1.1439  0.0799
18669TIP3    H277499   0.803   1.000   2.610 -0.0805  0.1880  0.7075
18670TIP3   OH277500   1.908   5.137   0.486 -0.3286  0.3357 -0.1746
18670TIP3    H177501   1.932   5.161   0.397  0.1942 -0.7462 -0.3396
18670TIP3    H277502   1.827   5.086   0.477 -0.4575  0.5042  0.0062
18671TIP3   OH277503   1.228   0.984  14.223  0.4941 -0.1216  0.3985
18671TIP3    H177504   1.254   1.073  14.197 -2.1589  0.4805 -0.2926
18671TIP3    H277505   1.225   0.988  14.318 -0.2623  0.7443  0.3539
18672TIP3   OH277506   0.304   4.482   3.070 -0.0796  0.6395  0.1529
18672TIP3    H177507   0.393   4.474   3.106  0.1764  0.0537 -0.5956
18672TIP3    H277508   0.316   4.527   2.987 -0.2033 -1.4625 -1.0281
18673TIP3   OH277509   6.710   0.237   4.492  0.1274  0.1836 -0.7146
18673TIP3    H177510   6.634   0.290   4.514  0.5485  1.2790 -1.8759
18673TIP3    H277511   6.681   0.147   4.508 -0.4338  0.7519  1.7280
18674TIP3   OH277512   4.511   6.645   2.250  0.0447  0.4395 -0.0909
18674TIP3    H177513   4.595   6.600   2.260  0.2533  1.1353  1.6628
18674TIP3    H277514   4.448   6.576   2.236  0.7711 -0.1714 -0.3895
18675TIP3   OH277515   6.409   4.946   1.780  0.0489 -0.6538  0.2970
18675TIP3    H177516   6.459   5.028   1.783 -0.1418 -0.5041 -0.5827
18675TIP3    H277517   6.473   4.878   1.798  0.7688 -0.5467 -1.7714
18676TIP3   OH277518   1.897   5.183   0.182 -0.7663 -0.2216 -0.7611
18676TIP3    H177519   1.809   5.215   0.162 -0.1099  1.3184 -1.2304
18676TIP3    H277520   1.905   5.102   0.133 -1.5281  0.1915 -1.5731
18677TIP3   OH277521   4.035   4.370  13.645 -0.1383 -0.2640  0.6391
18677TIP3    H177522   3.998   4.323  13.570  0.4695  0.7352 -0.3079
18677TIP3    H277523   3.979   4.345  13.719 -2.0352  0.3408 -0.5510
18678TIP3   OH277524   3.459   3.993   6.167 -0.6635 -0.0239  0.1277
18678TIP3    H177525   3.544   3.970   6.204 -0.5158 -0.9106 -0.7543
18678TIP3    H277526   3.410   3.911   6.167 -1.3823  0.4002  0.2539
18679TIP3   OH277527   6.004   3.633  11.864 -0.0425  0.0672  0.1348
18679TIP3    H177528   6.070   3.688  11.906 -0.3055  0.1128  0.4988
18679TIP3    H277529   5.936   3.695  11.835  0.3151  0.0686 -0.6868
18680TIP3   OH277530   5.898   4.552  16.661 -0.1802  0.4079  0.2282
18680TIP3    H177531   5.976   4.607  16.661  0.5475 -0.6033 -0.0919
18680TIP3    H277532   5.926   4.471  16.704 -0.7265 -0.4183 -0.9372
18681TIP3   OH277533   3.790   0.900   1.429  0.5340 -0.4881 -0.0320
18681TIP3    H177534   3.804   0.807   1.449  0.9668 -0.2454  0.8119
18681TIP3    H277535   3.742   0.933   1.505  1.6905  0.3234  0.3538
18682TIP3   OH277536   3.137   0.764  10.726 -0.2649 -0.3616 -0.1280
18682TIP3    H177537   3.226   0.767  10.764 -0.1520 -2.4556 -0.1411
18682TIP3    H277538   3.086   0.717  10.792 -0.7045 -1.6129 -1.3320
18683TIP3   OH277539   4.077   4.510   3.114  0.3001 -0.6530 -0.4675
18683TIP3    H177540   4.041   4.542   3.032 -1.3678  1.9159  1.1991
18683TIP3    H277541   4.160   4.557   3.124  0.2034 -0.4909 -0.4161
18684TIP3   OH277542   5.955   4.177  11.738  0.2625 -0.2717 -0.3476
18684TIP3    H177543   5.980   4.250  11.681 -2.1452 -0.6742 -2.0034
18684TIP3    H277544   5.897   4.217  11.803 -1.1963 -0.6719 -1.3569
18685TIP3   OH277545   1.741   6.009  11.660 -0.1964  0.1424 -0.2381
18685TIP3    H177546   1.706   5.925  11.631  1.5880 -0.3463 -1.0183
18685TIP3    H277547   1.664   6.063  11.677 -1.4040 -2.0784  1.5832
18686TIP3   OH277548   5.888   5.603  14.300  0.6476  0.6447  0.1643
18686TIP3    H177549   5.908   5.688  14.261  1.7085  0.8802  1.1692
18686TIP3    H277550   5.972   5.558  14.305  0.0641 -0.5654 -0.5579
18687TIP3   OH277551   4.021   5.643   1.825  0.0086 -0.2645 -0.4481
18687TIP3    H177552   3.934   5.669   1.855 -0.6212 -1.5775 -1.1072
18687TIP3    H277553   4.015   5.646   1.730  0.2592 -1.6895 -0.5202
18688TIP3   OH277554   4.322   2.296   6.811 -0.3169  0.3970 -0.0608
18688TIP3    H177555   4.385   2.263   6.874 -0.3650  1.7308  0.7055
18688TIP3    H277556   4.237   2.282   6.853 -0.3764  0.9014 -0.0186
18689TIP3   OH277557   3.502   5.624  14.997 -0.4832 -0.5218 -0.4596
18689TIP3    H177558   3.479   5.598  14.908 -0.2463 -0.2649 -0.5972
18689TIP3    H277559   3.424   5.605  15.049 -1.2090  0.8142 -1.0190
18690TIP3   OH277560   0.802   5.193  15.356  0.1570  0.6597  0.3568
18690TIP3    H177561   0.745   5.179  15.280  0.9068 -0.2711 -0.0512
18690TIP3    H277562   0.857   5.267  15.331  1.0826 -0.2750 -0.4308
18691TIP3   OH277563   5.498   3.975  12.618 -0.1097  0.4270 -0.0258
18691TIP3    H177564   5.457   4.019  12.544  0.9720  1.8876  0.2091
18691TIP3    H277565   5.551   3.906  12.580 -0.5305  0.3787 -0.5240
18692TIP3   OH277566   4.828   5.767  15.697  0.1057 -0.3657 -0.1139
18692TIP3    H177567   4.817   5.677  15.729 -0.4601 -0.0707  0.5340
18692TIP3    H277568   4.834   5.757  15.602  0.4635 -1.1275 -0.0182
18693TIP3   OH277569   4.625   4.863   3.045 -0.5399 -0.0182  0.2924
18693TIP3    H177570   4.558   4.910   2.995  0.6083 -0.4497 -1.7089
18693TIP3    H277571   4.686   4.831   2.978 -0.0977 -2.4280  1.8268
18694TIP3   OH277572   0.280   0.979  11.784  1.0676  0.2812  0.3954
18694TIP3    H177573   0.286   0.964  11.690  1.7467  0.3228  0.4241
18694TIP3    H277574   0.300   1.072  11.795  0.9919  0.2767  0.5794
18695TIP3   OH277575   2.610   4.670   4.461  0.3586 -1.0379  0.2729
18695TIP3    H177576   2.533   4.629   4.502 -1.1217  0.4872 -0.9093
18695TIP3    H277577   2.661   4.703   4.535 -0.6734 -1.0938  1.0338
18696TIP3   OH277578   6.682   2.608   1.102  0.4636  0.5996 -0.0640
18696TIP3    H177579   6.702   2.515   1.103 -0.4761  0.4029  0.6845
18696TIP3    H277580   6.753   2.649   1.151  0.5256  0.2159  0.1626
18697TIP3   OH277581   6.516   6.357  10.876  0.1129  0.2945 -0.3802
18697TIP3    H177582   6.498   6.423  10.808 -0.1866 -0.7523 -1.3371
18697TIP3    H277583   6.606   6.331  10.861 -0.0037 -0.0563 -0.4819
18698TIP3   OH277584   4.008   5.363   0.248  0.3702  0.0285  0.1702
18698TIP3    H177585   3.931   5.333   0.199  0.8168 -0.7657 -0.0500
18698TIP3    H277586   4.042   5.436   0.197  0.5897 -0.5321 -0.4868
18699TIP3   OH277587   0.291   6.027  16.082  0.3381  0.2056 -0.2295
18699TIP3    H177588   0.382   5.999  16.073  0.1739  0.3832 -2.8102
18699TIP3    H277589   0.246   5.989  16.007 -1.8391 -0.2358  1.2388
18700TIP3   OH277590   0.902   0.647  10.937  0.5006 -0.0143  0.2590
18700TIP3    H177591   0.964   0.720  10.941  0.0942  0.3627 -0.4481
18700TIP3    H277592   0.940   0.586  10.874  1.0266 -0.5970  1.1194
18701TIP3   OH277593   2.086   1.983  11.555  0.0155 -0.5366 -0.2235
18701TIP3    H177594   2.046   1.935  11.627 -0.5666  0.4985  0.1574
18701TIP3    H277595   2.180   1.963  11.562 -0.1406 -1.0988  0.3142
18702TIP3   OH277596   6.510   0.923  14.414  0.2785  0.0000 -0.1820
18702TIP3    H177597   6.489   0.907  14.321 -1.8788  0.7481  0.1591
18702TIP3    H277598   6.516   1.018  14.421 -0.9429  0.0092  0.7385
18703TIP3   OH277599   5.804   2.112  16.223 -0.0538 -0.2065  0.2964
18703TIP3    H177600   5.786   2.041  16.161 -0.8141  0.8722 -0.7666
18703TIP3    H277601   5.749   2.185  16.192  0.4273  0.7277  1.5726
18704TIP3   OH277602   2.412   2.466   5.691  0.2873 -0.5555 -0.3723
18704TIP3    H177603   2.481   2.532   5.697 -2.2822  2.0817  1.8696
18704TIP3    H277604   2.419   2.416   5.772 -0.4236 -0.2558 -0.1197
18705TIP3   OH277605   4.083   2.487  15.529 -0.0572  0.1995  0.1427
18705TIP3    H177606   4.175   2.501  15.554 -0.2037  0.2726  0.6426
18705TIP3    H277607   4.036   2.481  15.612 -0.8086  2.1818 -0.0916
18706TIP3   OH277608   2.439   4.833   0.714  0.1426 -0.2941 -0.3306
18706TIP3    H177609   2.358   4.881   0.697 -0.6041 -1.4337  0.0193
18706TIP3    H277610   2.485   4.833   0.630 -0.4421 -0.0782 -0.6531
18707TIP3   OH277611   1.274   1.397   3.563  0.0519  0.1409 -0.5823
18707TIP3    H177612   1.187   1.426   3.590  0.1555 -0.0744 -0.0029
18707TIP3    H277613   1.258   1.316   3.514 -0.1747  0.7688 -1.5570
18708TIP3   OH277614   6.220   1.725  16.577 -0.1354 -0.5171  0.4902
18708TIP3    H177615   6.271   1.646  16.559  0.3661  0.2190 -1.4542
18708TIP3    H277616   6.282   1.783  16.622  0.2820 -0.2643 -0.3860
18709TIP3   OH277617   3.088   5.857   3.705 -0.3842  0.1424  0.0811
18709TIP3    H177618   3.121   5.847   3.616  0.3896 -1.1306  0.4825
18709TIP3    H277619   3.014   5.796   3.710  0.5421 -0.9693  0.7436
18710TIP3   OH277620   2.059   3.643  15.269  0.5386 -0.4051 -0.0588
18710TIP3    H177621   2.064   3.547  15.274  0.2335 -0.4244 -0.1273
18710TIP3    H277622   2.035   3.661  15.178  0.7070 -0.2583 -0.0754
18711TIP3   OH277623   0.647   6.064   0.384 -0.2767 -0.4393  0.0169
18711TIP3    H177624   0.615   6.005   0.452 -1.2805  1.1555  0.9680
18711TIP3    H277625   0.733   6.092   0.415  0.2688 -1.5012 -0.5118
18712TIP3   OH277626   2.426   3.947  14.049 -0.0245  0.1589  0.0274
18712TIP3    H177627   2.342   3.934  14.092 -0.0520  0.5410  0.0891
18712TIP3    H277628   2.476   3.868  14.069  0.1003  0.4918  1.0726
18713TIP3   OH277629   2.125   1.967   5.506 -0.0895 -0.1270  0.5110
18713TIP3    H177630   2.046   1.920   5.478  1.7807 -2.4144 -1.1768
18713TIP3    H277631   2.144   1.932   5.593 -1.0974  0.6680  1.0584
18714TIP3   OH277632   5.594   0.570  16.901 -0.1176 -0.3013  0.1171
18714TIP3    H177633   5.533   0.608  16.965  0.9947  1.6860  0.0162
18714TIP3    H277634   5.658   0.524  16.955 -0.3475 -0.3615  0.3414
18715TIP3   OH277635   0.635   2.698   4.168  0.2293 -0.4687 -0.1464
18715TIP3    H177636   0.648   2.603   4.174 -0.4668 -0.4601  1.7837
18715TIP3    H277637   0.713   2.735   4.209 -0.3163 -0.2355  0.6804
18716TIP3   OH277638   4.685   4.667   4.377  0.0583 -0.0955 -0.2815
18716TIP3    H177639   4.711   4.642   4.288 -0.1407 -0.1068 -0.3368
18716TIP3    H277640   4.604   4.618   4.393  0.6253 -0.8628  0.2792
18717TIP3   OH277641   1.360   1.565   2.484  0.2028  0.1490 -0.0852
18717TIP3    H177642   1.434   1.599   2.434 -0.4851  1.7074 -0.0600
18717TIP3    H277643   1.328   1.640   2.534 -0.2516 -0.9573  1.3094
18718TIP3   OH277644   1.773   4.207  13.438 -0.6708 -0.2448  0.6742
18718TIP3    H177645   1.801   4.159  13.516 -1.3221  1.8482  2.2752
18718TIP3    H277646   1.853   4.222  13.388 -0.5083 -3.2090 -0.0393
18719TIP3   OH277647   2.447   3.858  14.464 -0.0326 -0.0392 -0.2901
18719TIP3    H177648   2.430   3.922  14.533 -0.1693  0.0307 -0.3882
18719TIP3    H277649   2.377   3.871  14.401 -0.0336 -0.2548 -0.3349
18720TIP3   OH277650   0.827   0.528   4.982  0.3715 -0.0254 -0.0347
18720TIP3    H177651   0.817   0.618   4.951 -0.2206 -0.1349 -0.1757
18720TIP3    H277652   0.921   0.511   4.977  0.4745  0.5443 -0.1180
18721TIP3   OH277653   0.801   2.404   2.803  0.6415 -0.1178 -0.5478
18721TIP3    H177654   0.884   2.371   2.767  1.0412  1.3382 -1.0029
18721TIP3    H277655   0.805   2.382   2.896  0.1284 -2.8531 -1.1350
18722TIP3   OH277656   0.281   2.932  14.287 -0.5268  0.0904  0.0157
18722TIP3    H177657   0.278   2.938  14.192 -0.4978  0.6540  0.0481
18722TIP3    H277658   0.249   2.844  14.307  0.7418 -0.5152 -0.5798
18723TIP3   OH277659   6.469   5.925   0.153 -0.0956  0.5887  0.0945
18723TIP3    H177660   6.422   5.985   0.095  1.0129  2.0350  0.6783
18723TIP3    H277661   6.528   5.877   0.096 -1.1360 -0.1183 -0.4079
18724TIP3   OH277662   3.068   3.714  16.459  0.1497  0.1482  0.0006
18724TIP3    H177663   3.050   3.636  16.406  1.6658 -0.1774 -0.0374
18724TIP3    H277664   3.122   3.769  16.403  0.4393  0.5099  0.6355
18725TIP3   OH277665   4.838   2.710   0.827  0.5891 -0.1630 -0.0490
18725TIP3    H177666   4.779   2.696   0.753 -0.9115  0.0883  1.0879
18725TIP3    H277667   4.781   2.716   0.903  2.1672 -1.0874  1.2387
18726TIP3   OH277668   5.244   5.748   3.299 -0.0615 -0.4070  1.2123
18726TIP3    H177669   5.300   5.807   3.349 -0.6196  0.2728  1.0381
18726TIP3    H277670   5.299   5.671   3.283  0.9813  0.4284  0.6739
18727TIP3   OH277671   1.298   0.565   2.195  0.2891  0.5637  0.1587
18727TIP3    H177672   1.335   0.548   2.109  1.0443 -1.1599  0.7908
18727TIP3    H277673   1.371   0.597   2.247 -0.4393  2.8252 -0.1567
18728TIP3   OH277674   5.117   2.096  13.837  0.3685  0.1678 -0.1200
18728TIP3    H177675   5.095   2.060  13.751  0.9678  0.7284 -0.5134
18728TIP3    H277676   5.085   2.031  13.899 -0.8098  0.1446 -0.7351
18729TIP3   OH277677   2.886   0.866  17.001  0.5129  0.4972 -0.3632
18729TIP3    H177678   2.964   0.839  17.049  0.0552 -0.4261 -0.1332
18729TIP3    H277679   2.822   0.887  17.070 -0.0378 -0.5080 -0.5725
18730TIP3   OH277680   4.488   6.157   3.679 -0.7263 -0.7331  1.0265
18730TIP3    H177681   4.498   6.091   3.611  0.2682  0.0939  0.3385
18730TIP3    H277682   4.577   6.170   3.713 -0.6607  1.2297  0.1774
18731TIP3   OH277683   4.921   3.355   0.046 -0.2657  0.1849 -0.0784
18731TIP3    H177684   4.827   3.371   0.043 -0.0782  1.1748 -1.1331
18731TIP3    H277685   4.953   3.408   0.119 -0.8718 -2.0934  1.8714
18732TIP3   OH277686   2.104   1.832  13.395  0.4373 -0.0444 -0.3814
18732TIP3    H177687   2.171   1.830  13.463  1.3546  1.8037 -1.2157
18732TIP3    H277688   2.091   1.740  13.372  1.7819 -0.5061  0.6488
18733TIP3   OH277689   5.740   4.006   3.569 -0.6961  0.2444 -0.9174
18733TIP3    H177690   5.831   4.005   3.540 -0.1621  0.9645  0.7118
18733TIP3    H277691   5.709   3.917   3.552  1.3282 -1.0161  1.5791
18734TIP3   OH277692   0.308   5.670   4.167 -0.1410  0.3887 -0.1040
18734TIP3    H177693   0.283   5.738   4.231 -1.3462 -0.7112  0.6265
18734TIP3    H277694   0.298   5.588   4.215 -1.4012 -0.4765 -1.8205
18735TIP3   OH277695   2.399   2.598  15.694 -0.1341  0.3044 -0.1651
18735TIP3    H177696   2.446   2.590  15.777  0.9838  1.3507 -0.6788
18735TIP3    H277697   2.332   2.531  15.698  0.2678 -0.0285  1.3530
18736TIP3   OH277698   0.624   2.120  16.295 -0.0591 -0.1323  0.0386
18736TIP3    H177699   0.598   2.032  16.268  3.3191 -1.5851  1.2327
18736TIP3    H277700   0.600   2.124  16.388  1.9978 -0.7302  0.6153
18737TIP3   OH277701   6.607   4.918  16.116  0.0576  0.4846  0.1479
18737TIP3    H177702   6.588   5.007  16.086  0.5295  0.3943 -0.4248
18737TIP3    H277703   6.611   4.925  16.212 -2.5121  0.5638  0.2739
18738TIP3   OH277704   0.083   0.808   0.232 -0.1022  0.7801  0.1315
18738TIP3    H177705   0.154   0.744   0.225 -0.7169  0.2564 -1.5843
18738TIP3    H277706   0.094   0.847   0.318  0.6164 -1.2575  0.9875
18739TIP3   OH277707   1.188   0.625  15.136 -0.3653  0.5474  0.2451
18739TIP3    H177708   1.178   0.531  15.120 -0.1575  0.6294 -0.4044
18739TIP3    H277709   1.261   0.631  15.198  0.4216  0.3298 -0.6301
18740TIP3   OH277710   0.016   6.431  15.581 -0.7063  0.0578 -0.0800
18740TIP3    H177711   0.064   6.509  15.610 -1.2731  0.1546  0.6177
18740TIP3    H277712  -0.072   6.463  15.564 -0.6875 -0.2464 -0.7335
18741TIP3   OH277713   2.249   5.308   4.010 -0.1662 -0.1135  0.7151
18741TIP3    H177714   2.337   5.330   4.041 -0.2920  0.7096  0.4958
18741TIP3    H277715   2.190   5.358   4.066 -0.4882 -0.4215  0.6589
18742TIP3   OH277716   6.432   3.571   2.367  0.7291  0.0940 -0.2608
18742TIP3    H177717   6.396   3.509   2.303  0.6263 -0.0943 -0.0211
18742TIP3    H277718   6.523   3.581   2.341  0.3088  1.2001 -1.3680
18743TIP3   OH277719   0.626   4.920   1.233  0.4226  0.0655 -0.0677
18743TIP3    H177720   0.603   4.947   1.322 -1.1346  0.5745 -0.5975
18743TIP3    H277721   0.721   4.925   1.230  0.4358  0.9541  1.2998
18744TIP3   OH277722   1.187   5.714  13.698  0.9830  0.1878 -0.8131
18744TIP3    H177723   1.227   5.633  13.666  2.0572  0.8065 -1.0760
18744TIP3    H277724   1.195   5.709  13.793 -1.0301 -1.0558 -0.6916
18745TIP3   OH277725   3.216   0.804   5.211 -0.1788 -0.3775  0.2537
18745TIP3    H177726   3.152   0.849   5.265  0.0088 -0.6287  0.6870
18745TIP3    H277727   3.181   0.716   5.199 -0.2627 -0.2973 -0.1089
18746TIP3   OH277728   2.045   3.212   3.008  0.0311  0.0025  0.2413
18746TIP3    H177729   2.095   3.232   2.929 -0.4705  0.0315 -0.0743
18746TIP3    H277730   1.958   3.249   2.991  0.3329  1.3247  1.4058
18747TIP3   OH277731   0.291   5.011   5.755 -0.2436  0.0928  0.1682
18747TIP3    H177732   0.237   5.081   5.792  0.2143  0.2578  0.5327
18747TIP3    H277733   0.335   5.052   5.680 -0.6726 -0.0611 -0.1734
18748TIP3   OH277734   4.190   5.079   6.604 -0.7658  0.1804 -0.3680
18748TIP3    H177735   4.185   5.124   6.520  1.5006 -1.5165 -1.4618
18748TIP3    H277736   4.280   5.093   6.634 -0.3775 -2.5088 -0.1505
18749TIP3   OH277737   2.849   2.409  12.771  0.0386 -0.5368 -0.2318
18749TIP3    H177738   2.822   2.477  12.709  0.9979  0.5445  0.5260
18749TIP3    H277739   2.891   2.457  12.842 -0.1888 -1.8487  0.7989
18750TIP3   OH277740   2.904   6.410   3.825  0.7002  0.5056  0.4077
18750TIP3    H177741   2.930   6.371   3.742 -0.9788  0.1955  0.0066
18750TIP3    H277742   2.938   6.499   3.822  0.5899  0.5176 -0.6400
18751TIP3   OH277743   2.120   1.286  11.677  0.7353 -0.4684 -0.1163
18751TIP3    H177744   2.170   1.341  11.616  0.8133 -0.5642 -0.1400
18751TIP3    H277745   2.124   1.332  11.761  0.2405 -0.1033 -0.2897
18752TIP3   OH277746   3.427   3.376  17.039  0.2441  0.0058  0.4500
18752TIP3    H177747   3.516   3.372  17.075  0.9696 -0.8721 -1.3863
18752TIP3    H277748   3.400   3.284  17.032 -0.7756  0.2588  0.8568
18753TIP3   OH277749   0.516   6.212  12.832 -0.2287 -0.3036 -0.2439
18753TIP3    H177750   0.531   6.288  12.775 -0.5981 -0.8801 -1.1167
18753TIP3    H277751   0.439   6.235  12.884  0.5278  0.5164  0.5439
18754TIP3   OH277752   5.036   1.063  12.451 -0.0416 -0.6502  0.3249
18754TIP3    H177753   5.030   1.134  12.515 -2.5105 -1.7579  1.4265
18754TIP3    H277754   4.967   1.083  12.388  0.1646 -1.3389 -0.1148
18755TIP3   OH277755   4.438   3.149  15.971  0.2441 -0.5927  0.7938
18755TIP3    H177756   4.421   3.243  15.962 -1.2700 -0.8808  0.5531
18755TIP3    H277757   4.390   3.123  16.049  0.9437 -1.1077  1.0523
18756TIP3   OH277758   1.608   0.553   3.835 -0.4802  0.5698 -0.4989
18756TIP3    H177759   1.515   0.567   3.852  0.0835  3.3047  0.5520
18756TIP3    H277760   1.627   0.608   3.759  0.1099 -0.6785 -1.2785
18757TIP3   OH277761   3.351   0.657  14.239 -0.4907 -0.4784 -0.1933
18757TIP3    H177762   3.381   0.628  14.153 -2.4380 -1.7385 -0.4747
18757TIP3    H277763   3.384   0.590  14.299 -0.8298 -0.6624 -0.2131
18758TIP3   OH277764   1.237   4.187  11.094 -0.2575  0.0247  0.1618
18758TIP3    H177765   1.296   4.114  11.076 -0.9758 -0.2968 -0.8926
18758TIP3    H277766   1.259   4.254  11.029 -0.6518  0.1426  0.1461
18759TIP3   OH277767   5.329   1.630  11.662  0.1265  0.3368  0.4415
18759TIP3    H177768   5.373   1.610  11.744  2.1252 -0.1824 -0.7254
18759TIP3    H277769   5.351   1.557  11.604 -0.2388  1.2962 -0.9467
18760TIP3   OH277770   0.915   4.947   5.766 -0.6297 -0.2117  0.1848
18760TIP3    H177771   0.895   4.855   5.748 -0.3200 -0.6128  1.8133
18760TIP3    H277772   0.872   4.995   5.695  0.9006 -1.7304 -1.8496
18761TIP3   OH277773   4.910   4.079   4.183  0.3671 -0.2031  0.0508
18761TIP3    H177774   4.927   3.985   4.190 -0.8903 -0.4829 -0.3872
18761TIP3    H277775   4.960   4.108   4.107  0.6005 -0.5620  0.0670
18762TIP3   OH277776   3.004   4.763   1.383  0.0543  0.2158 -0.6784
18762TIP3    H177777   2.968   4.830   1.326 -0.5904  0.7694  0.3745
18762TIP3    H277778   3.068   4.809   1.437  0.2641 -0.2030 -0.5639
18763TIP3   OH277779   3.093   4.559  12.613 -0.0879  0.0867  0.5764
18763TIP3    H177780   3.189   4.563  12.619 -0.1680  2.9358  0.7482
18763TIP3    H277781   3.070   4.473  12.647  2.4030 -0.5971  0.6389
18764TIP3   OH277782   1.379   2.140  14.192 -0.0276 -0.1524  0.0336
18764TIP3    H177783   1.419   2.213  14.144 -0.9333  0.2631 -0.1125
18764TIP3    H277784   1.359   2.075  14.124 -2.2410  0.8650 -0.3178
18765TIP3   OH277785   4.346   2.461  16.192 -0.1886  0.3624 -0.0040
18765TIP3    H177786   4.371   2.540  16.240 -0.9582  0.3916  0.3602
18765TIP3    H277787   4.261   2.483  16.154 -0.2594 -0.1829 -0.1611
18766TIP3   OH277788   0.652   1.713   5.667 -0.2298 -0.1240  0.7464
18766TIP3    H177789   0.722   1.710   5.732  0.5103 -0.2992 -0.0587
18766TIP3    H277790   0.605   1.630   5.678 -0.8476  0.3613  1.8677
18767TIP3   OH277791   5.851   5.336  14.234  0.3896 -0.1146  0.5830
18767TIP3    H177792   5.839   5.323  14.140 -1.0998 -2.4997  1.0432
18767TIP3    H277793   5.875   5.428  14.243  0.2573  0.2257 -2.0967
18768TIP3   OH277794   5.318   1.761  12.206  0.4058  0.0463  0.3864
18768TIP3    H177795   5.296   1.832  12.267  0.2675  1.0990 -0.8598
18768TIP3    H277796   5.378   1.705  12.255 -0.7029  0.1731  1.9258
18769TIP3   OH277797   3.553   5.734  14.213  0.3110  0.0657 -0.2533
18769TIP3    H177798   3.621   5.723  14.280 -0.2190 -0.0050  0.2799
18769TIP3    H277799   3.565   5.823  14.181  1.9999 -0.6380 -1.6623
18770TIP3   OH277800   4.755   4.604  12.988 -0.6098  0.4274  0.4171
18770TIP3    H177801   4.848   4.593  13.004 -0.9056 -4.0872 -0.2337
18770TIP3    H277802   4.720   4.644  13.068  1.1610 -2.1844  2.5607
18771TIP3   OH277803   1.892   3.647  13.069  0.5135 -0.1681 -0.4168
18771TIP3    H177804   1.905   3.638  12.975 -0.3195 -1.1068 -0.4438
18771TIP3    H277805   1.819   3.709  13.078  3.4970  3.5195 -0.2925
18772TIP3   OH277806   2.206   2.803   1.374  1.0995  0.2723  0.0085
18772TIP3    H177807   2.271   2.762   1.318 -0.4219 -0.7264 -1.0522
18772TIP3    H277808   2.133   2.824   1.315  1.2038  3.1490  0.7862
18773TIP3   OH277809   3.354   2.720  14.675  0.3514 -0.2070  0.9831
18773TIP3    H177810   3.294   2.795  14.668  1.1843  0.5378  1.7676
18773TIP3    H277811   3.312   2.651  14.623 -0.1581  0.9752 -0.2036
18774TIP3   OH277812   6.807   4.053  13.565  0.2461  0.1011  0.5732
18774TIP3    H177813   6.833   4.011  13.647  0.3070  0.2200  0.6158
18774TIP3    H277814   6.834   4.144  13.576 -1.1059  0.4651  1.0416
18775TIP3   OH277815   1.246   2.266   4.204 -0.5234 -0.4293 -0.3006
18775TIP3    H177816   1.221   2.325   4.132  1.0088 -1.8240 -2.0436
18775TIP3    H277817   1.172   2.205   4.212 -1.5555  0.9317  0.6534
18776TIP3   OH277818   2.936   4.271   3.914  0.2355 -0.2612 -0.3417
18776TIP3    H177819   2.926   4.246   4.006  2.7921 -1.1999 -0.2824
18776TIP3    H277820   2.938   4.367   3.915  3.2634 -0.2721  0.9895
18777TIP3   OH277821   4.855   4.901   0.695  0.2196 -0.5611 -0.4003
18777TIP3    H177822   4.794   4.828   0.705 -0.2353  0.2142  2.9201
18777TIP3    H277823   4.942   4.860   0.704  0.0901 -1.1083 -1.5092
18778TIP3   OH277824   1.283   3.462  14.175  0.2632  0.0258  0.3205
18778TIP3    H177825   1.238   3.385  14.141 -3.7056  2.2752  0.0779
18778TIP3    H277826   1.249   3.472  14.264  2.1562  0.4601  1.0227
18779TIP3   OH277827   3.883   2.948  16.909 -0.0281 -0.0561 -0.1384
18779TIP3    H177828   3.871   2.882  16.841  0.2955 -0.1926 -0.0634
18779TIP3    H277829   3.874   2.900  16.991 -2.4043  0.4580 -0.0501
18780TIP3   OH277830   2.493   3.290   1.010  0.2910 -0.0633 -0.1168
18780TIP3    H177831   2.497   3.275   0.916  0.0187  2.4943 -0.5758
18780TIP3    H277832   2.580   3.264   1.042  0.0012 -2.0224 -0.8736
18781TIP3   OH277833   3.247   2.104   4.655 -0.0208  0.1542  0.2080
18781TIP3    H177834   3.160   2.137   4.679 -0.7842  0.2545 -2.5366
18781TIP3    H277835   3.235   2.010   4.643  0.0048  0.3180 -1.1561
18782TIP3   OH277836   5.697   5.408   3.200 -0.1796 -0.0681  0.0713
18782TIP3    H177837   5.704   5.328   3.252  0.0475  0.1484  0.3780
18782TIP3    H277838   5.677   5.476   3.264 -0.8394  0.0440 -0.2524
18783TIP3   OH277839   3.242   5.721  10.462 -0.1527 -0.4111  0.5594
18783TIP3    H177840   3.221   5.807  10.426 -1.2726 -2.0727 -2.9757
18783TIP3    H277841   3.335   5.708  10.441 -0.2491 -0.4905  0.1821
18784TIP3   OH277842   6.510   2.210  14.224  0.1756 -0.4439  0.3567
18784TIP3    H177843   6.581   2.203  14.161 -1.6307 -0.6931 -1.7094
18784TIP3    H277844   6.519   2.131  14.278  0.4618 -1.3529 -0.9797
18785TIP3   OH277845   4.300   4.945   2.299 -0.2592 -0.3052  0.3086
18785TIP3    H177846   4.241   4.939   2.374 -1.2861 -1.0286 -0.5410
18785TIP3    H277847   4.262   5.012   2.243 -0.2789 -0.7593 -0.2350
18786TIP3   OH277848   0.910   2.613   0.744  0.0751 -0.2258 -0.0291
18786TIP3    H177849   0.957   2.594   0.826 -1.2704  0.0449  0.8293
18786TIP3    H277850   0.892   2.527   0.707  1.5077 -0.3238 -0.5311
18787TIP3   OH277851   2.501   0.300   6.744 -0.6165  0.1451 -0.4202
18787TIP3    H177852   2.417   0.316   6.788 -0.4850  0.0300 -0.1228
18787TIP3    H277853   2.561   0.363   6.784  0.1913 -1.8325  1.6083
18788TIP3   OH277854   2.955   6.755  16.651 -0.1670  0.5843  0.0289
18788TIP3    H177855   2.991   6.671  16.679 -1.0544 -0.0108 -0.5835
18788TIP3    H277856   3.026   6.797  16.602 -1.1663 -1.8480 -3.7317
18789TIP3   OH277857   2.845   1.402   3.625  0.2704  0.4687  0.2881
18789TIP3    H177858   2.790   1.325   3.612 -1.0279  1.6793 -1.4140
18789TIP3    H277859   2.930   1.376   3.589 -0.3356  0.0577 -0.8575
18790TIP3   OH277860   4.925   2.745   6.322  0.0536  0.2286 -0.2652
18790TIP3    H177861   4.875   2.826   6.331 -1.9296 -1.0660  0.6871
18790TIP3    H277862   5.012   2.767   6.355 -0.7365  1.7241  0.8850
18791TIP3   OH277863   3.223   2.625  16.489 -0.2263 -0.2636 -0.0770
18791TIP3    H177864   3.285   2.568  16.445 -1.1290 -1.1465 -0.2279
18791TIP3    H277865   3.157   2.566  16.526 -2.0427  0.7497 -1.5872
18792TIP3   OH277866   1.596   5.941   4.287 -0.0329 -0.2186 -0.0240
18792TIP3    H177867   1.649   5.925   4.209  0.6014 -0.1795  0.3932
18792TIP3    H277868   1.604   5.861   4.339  1.2822  0.5488  0.9897
18793TIP3   OH277869   5.963   0.682  15.861 -0.3485 -0.0223 -0.7092
18793TIP3    H177870   5.928   0.647  15.780 -0.7850  1.1712 -1.0392
18793TIP3    H277871   6.058   0.676  15.851 -0.4118 -1.1000 -0.7524
18794TIP3   OH277872   2.884   3.615  11.165 -0.0332  0.3747  0.1871
18794TIP3    H177873   2.806   3.600  11.113 -0.6438 -5.8938  2.4570
18794TIP3    H277874   2.956   3.615  11.102 -1.3849  1.1871 -1.3930
18795TIP3   OH277875   3.542   2.281   2.005 -0.0701 -0.3531  0.2483
18795TIP3    H177876   3.602   2.341   1.961  0.7882 -1.1621  0.3037
18795TIP3    H277877   3.581   2.194   1.992  0.4982 -0.5623  3.0606
18796TIP3   OH277878   6.093   4.672  13.906  0.0392  0.0002  0.1534
18796TIP3    H177879   6.098   4.755  13.953 -0.8679 -0.3424  0.8731
18796TIP3    H277880   6.144   4.611  13.960  0.0950 -0.0844  0.0053
18797TIP3   OH277881   3.566   3.785   5.669 -0.0909 -0.2565 -0.4407
18797TIP3    H177882   3.616   3.806   5.748  1.0346 -1.2183 -0.8798
18797TIP3    H277883   3.521   3.867   5.647  0.6934  0.4116  0.3966
18798TIP3   OH277884   2.594   5.047  12.832  0.2364  0.6557 -0.6197
18798TIP3    H177885   2.603   5.075  12.741  0.9744 -1.2733 -1.1775
18798TIP3    H277886   2.501   5.058  12.852 -0.0307  0.5655 -1.7897
18799TIP3   OH277887   1.979   5.199   5.125  0.2528 -0.9781 -0.7295
18799TIP3    H177888   1.956   5.108   5.146 -1.5601 -0.1391  1.0634
18799TIP3    H277889   1.934   5.216   5.043 -1.6301 -0.8764  0.3019
18800TIP3   OH277890   5.895   4.127  12.198  0.2474 -0.3569 -0.3942
18800TIP3    H177891   5.835   4.133  12.273  2.1250  2.2775  0.9788
18800TIP3    H277892   5.837   4.134  12.122 -1.2588  2.0506  0.8996
18801TIP3   OH277893   5.808   5.471  10.705 -0.0652  0.0089  0.1499
18801TIP3    H177894   5.812   5.429  10.619 -1.6795 -1.6487  0.8345
18801TIP3    H277895   5.897   5.464  10.739  0.3541 -0.2327 -0.9816
18802TIP3   OH277896   6.519   3.380   4.146  0.1533 -0.2292 -0.5960
18802TIP3    H177897   6.503   3.433   4.067 -0.0239 -1.8059 -1.6389
18802TIP3    H277898   6.451   3.313   4.143  1.6709 -1.7955 -0.4160
18803TIP3   OH277899   6.127   6.666  12.021 -0.3076 -0.5238  0.1334
18803TIP3    H177900   6.156   6.755  12.041  0.6969 -0.5498 -1.1145
18803TIP3    H277901   6.044   6.678  11.975  0.2630 -0.1622 -0.8332
18804TIP3   OH277902   5.564   0.187   1.341 -0.0010  0.0745 -0.0549
18804TIP3    H177903   5.550   0.236   1.422  0.0403  2.5113 -1.4930
18804TIP3    H277904   5.492   0.123   1.339 -1.5576  1.7711  0.5834
18805TIP3   OH277905   6.679   1.156  15.494  0.3232  0.5009  0.4551
18805TIP3    H177906   6.678   1.076  15.441 -0.8510  0.9007 -0.1567
18805TIP3    H277907   6.716   1.130  15.578  1.8261 -0.2462 -0.4291
18806TIP3   OH277908   2.484   4.438  12.759  0.1171  0.3289 -0.1998
18806TIP3    H177909   2.414   4.413  12.819  1.0040 -0.1204  0.6624
18806TIP3    H277910   2.491   4.533  12.768 -1.1538  0.5253 -1.1519
18807TIP3   OH277911   5.123   0.495  16.004 -0.0399  0.2328  0.0796
18807TIP3    H177912   5.196   0.554  16.023  0.7406 -0.6320 -0.1982
18807TIP3    H277913   5.059   0.513  16.073  1.4553 -0.6941  1.7568
18808TIP3   OH277914   5.787   3.498   3.494 -0.5054  0.2126  0.1908
18808TIP3    H177915   5.759   3.410   3.467 -0.8980  0.1233  0.8825
18808TIP3    H277916   5.882   3.493   3.495 -0.5065 -0.0295 -0.3593
18809TIP3   OH277917   6.750   1.516  15.810  0.4466 -0.0255  0.9247
18809TIP3    H177918   6.710   1.598  15.782  0.1518 -0.6179 -0.4564
18809TIP3    H277919   6.843   1.537  15.820  0.8478 -0.1409 -2.0834
18810TIP3   OH277920   5.151   4.900  12.270  0.0899  0.3823 -0.1750
18810TIP3    H177921   5.184   4.814  12.296 -0.1372  0.1114 -0.7767
18810TIP3    H277922   5.195   4.918  12.187 -1.0577  0.1389 -0.8434
18811TIP3   OH277923   4.970   0.291   3.231  0.3779  0.5482 -0.2679
18811TIP3    H177924   5.017   0.276   3.313 -0.4024  1.6985  0.4046
18811TIP3    H277925   5.027   0.253   3.164  0.5664 -1.2696  0.8827
18812TIP3   OH277926   0.636   2.309  15.935  0.4066  0.3143 -0.7486
18812TIP3    H177927   0.699   2.239  15.952  0.4937  0.2965 -1.1285
18812TIP3    H277928   0.567   2.267  15.883  0.6390  0.5928 -1.2817
18813TIP3   OH277929   0.931   4.283  11.660 -0.3475  0.6735 -0.3074
18813TIP3    H177930   0.984   4.329  11.595  0.6267  0.2858  0.1959
18813TIP3    H277931   0.947   4.190  11.643  0.2099  0.5691  0.6959
18814TIP3   OH277932   4.124   1.966  14.370 -0.1545  0.7388 -0.2794
18814TIP3    H177933   4.120   2.059  14.348 -2.2855  0.7503  0.0420
18814TIP3    H277934   4.061   1.925  14.312 -0.1161 -0.3411  0.4287
18815TIP3   OH277935   6.374   1.226   2.122  0.1339  0.2321  0.0095
18815TIP3    H177936   6.317   1.302   2.117 -0.3460 -0.0488  1.0586
18815TIP3    H277937   6.336   1.163   2.060 -1.4394 -0.4284  1.5982
18816TIP3   OH277938   6.808   3.815  15.005  0.5148 -0.3208  0.6388
18816TIP3    H177939   6.863   3.748  15.045  0.0394 -0.6963  0.6678
18816TIP3    H277940   6.719   3.789  15.027  0.3559  0.6677  1.1921
18817TIP3   OH277941   5.706   1.600   1.904  0.1997 -0.7041  0.2029
18817TIP3    H177942   5.701   1.624   1.996 -0.8718 -1.3766  0.3348
18817TIP3    H277943   5.712   1.504   1.904 -2.2801 -0.8981 -0.4655
18818TIP3   OH277944   5.251   2.346  16.149  0.3744  0.2861 -0.5099
18818TIP3    H177945   5.217   2.289  16.218 -3.4982  0.2019 -2.3699
18818TIP3    H277946   5.294   2.418  16.196 -1.5988 -0.0900  1.9732
18819TIP3   OH277947   3.642   3.314  15.777  0.4570 -0.2245  0.3673
18819TIP3    H177948   3.639   3.322  15.872  1.2132 -0.1327  0.3881
18819TIP3    H277949   3.731   3.341  15.753  0.8105 -1.7895 -0.1978
18820TIP3   OH277950   6.187   3.898   0.151  0.3606 -0.3397  0.2301
18820TIP3    H177951   6.107   3.880   0.102  0.3862 -0.3511  0.1921
18820TIP3    H277952   6.202   3.818   0.202  0.9284 -0.7386 -0.5660
18821TIP3   OH277953   0.372   0.887  13.132  0.2269  0.2215 -0.5854
18821TIP3    H177954   0.403   0.918  13.047 -1.1174  1.0930 -0.7646
18821TIP3    H277955   0.321   0.808  13.111 -1.6860  1.4834 -0.8147
18822TIP3   OH277956   1.917   4.240  11.917 -0.0475  0.1858 -0.0315
18822TIP3    H177957   1.924   4.324  11.872 -2.6496 -1.1419 -3.0992
18822TIP3    H277958   2.000   4.196  11.899 -0.4502  0.3047 -2.3134
18823TIP3   OH277959   6.276   4.083  12.735 -0.3475  0.1432 -0.2962
18823TIP3    H177960   6.283   4.161  12.680 -0.1284  1.4175  1.5032
18823TIP3    H277961   6.326   4.016  12.689  0.1844  1.3109 -1.4249
18824TIP3   OH277962   1.398   3.070   3.559  0.0382  0.4977 -0.2252
18824TIP3    H177963   1.317   3.096   3.516  0.9527  1.7254 -1.2555
18824TIP3    H277964   1.445   3.018   3.494 -0.5700 -1.4841  0.8916
18825TIP3   OH277965   0.128   5.807   1.717 -0.4159 -0.0500  0.7212
18825TIP3    H177966   0.085   5.726   1.745 -1.4008  0.6262  1.2118
18825TIP3    H277967   0.091   5.825   1.630  0.1503 -0.3683  0.4103
18826TIP3   OH277968   0.615   3.045   5.860  0.0531 -0.0845  0.1610
18826TIP3    H177969   0.573   3.022   5.943 -1.8297  1.0389 -0.4602
18826TIP3    H277970   0.614   2.963   5.810 -1.3687 -0.0713  0.1659
18827TIP3   OH277971   1.424   5.371  16.743  0.4567  0.5746  0.0881
18827TIP3    H177972   1.476   5.352  16.665  3.5602  1.8058  1.7864
18827TIP3    H277973   1.340   5.403  16.708  1.8043  1.1906 -2.7330
18828TIP3   OH277974   3.151   6.551   2.996 -0.0065 -0.2117 -0.0776
18828TIP3    H177975   3.203   6.546   3.076  0.5388 -2.2529 -0.5144
18828TIP3    H277976   3.197   6.614   2.941  0.4777  0.0337  0.6010
18829TIP3   OH277977   2.698   1.679  13.543 -0.1657 -0.0350 -0.0865
18829TIP3    H177978   2.744   1.714  13.467  2.6445  2.0861  2.4318
18829TIP3    H277979   2.661   1.756  13.586 -1.2182 -1.1300  1.0047
18830TIP3   OH277980   3.448   3.421  15.231  0.0794 -0.1840  0.7896
18830TIP3    H177981   3.521   3.366  15.259 -0.3722 -0.7116  0.9582
18830TIP3    H277982   3.371   3.379  15.269 -0.0823  1.6675  2.5498
18831TIP3   OH277983   0.018   2.716  15.712 -0.0671 -0.0854  0.0519
18831TIP3    H177984  -0.071   2.686  15.699  0.2608 -0.4833 -1.3409
18831TIP3    H277985   0.039   2.692  15.802 -1.2691 -0.2224  0.2964
18832TIP3   OH277986   4.235   6.379   6.016 -0.0446  0.0529 -0.3605
18832TIP3    H177987   4.157   6.423   6.051  1.8302  1.5030  2.1337
18832TIP3    H277988   4.223   6.287   6.038 -1.9108 -0.0503 -1.6748
18833TIP3   OH277989   3.910   1.965   3.206  0.4540 -0.1329 -0.0635
18833TIP3    H177990   3.934   1.989   3.117  0.5299 -1.2793 -0.3550
18833TIP3    H277991   3.986   1.989   3.259  0.4112  0.5445 -0.3052
18834TIP3   OH277992   5.351   6.117   3.861 -0.9151 -0.1578 -0.3595
18834TIP3    H177993   5.376   6.025   3.860  0.0071  0.0328  1.7152
18834TIP3    H277994   5.348   6.140   3.954  1.1099  2.4961 -0.8786
18835TIP3   OH277995   6.497   5.976  11.026  0.2417  0.1732 -0.0958
18835TIP3    H177996   6.579   5.929  11.047 -0.7021 -1.3230  0.3252
18835TIP3    H277997   6.435   5.907  11.002 -1.2768  1.1813  0.8407
18836TIP3   OH277998   5.026   6.644   4.161  0.0353  0.1492 -0.0751
18836TIP3    H177999   4.972   6.681   4.091 -1.0922 -1.0993  0.1316
18836TIP3    H278000   4.995   6.688   4.241  0.0188  0.1628 -0.0891
18837TIP3   OH278001   1.542   1.297  16.814  0.4353  0.7327  0.6528
18837TIP3    H178002   1.630   1.334  16.829  1.2601 -1.0838  0.4360
18837TIP3    H278003   1.558   1.216  16.766 -1.3528  0.1825  0.9503
18838TIP3   OH278004   4.809   3.343   1.117 -0.3864 -0.4979  0.3543
18838TIP3    H178005   4.881   3.307   1.169  0.6024  2.1574  0.8667
18838TIP3    H278006   4.747   3.377   1.182 -0.6348  0.0332 -0.1609
18839TIP3   OH278007   6.269   5.184  16.638 -0.4789 -0.4334 -0.2534
18839TIP3    H178008   6.340   5.203  16.699 -0.7154 -1.7489  0.4484
18839TIP3    H278009   6.190   5.181  16.693 -0.8892 -0.2800 -0.8289
18840TIP3   OH278010   4.847   4.820   2.239  0.3443 -0.4378  0.1335
18840TIP3    H178011   4.861   4.796   2.331  1.7951 -1.3705 -0.3113
18840TIP3    H278012   4.793   4.899   2.243  1.7574  0.4875  1.8236
18841TIP3   OH278013   5.609   1.042  13.926 -0.4847 -0.3656  0.1318
18841TIP3    H178014   5.672   0.981  13.964  0.2935  1.2176  1.4699
18841TIP3    H278015   5.551   0.987  13.873  1.8873 -1.8761 -1.0009
18842TIP3   OH278016   2.555   6.409  14.791 -0.5168  1.0262 -0.4601
18842TIP3    H178017   2.463   6.384  14.800 -0.3064  0.2462 -0.4228
18842TIP3    H278018   2.576   6.454  14.873 -0.3736 -0.4107  0.3176
18843TIP3   OH278019   3.587   2.251   0.833 -0.4826 -0.5298 -0.5132
18843TIP3    H178020   3.509   2.196   0.841 -0.6307 -0.4729 -1.5306
18843TIP3    H278021   3.552   2.340   0.829 -0.1426 -0.0907  3.6395
18844TIP3   OH278022   5.928   6.710  10.709  0.2627 -0.3577 -0.2064
18844TIP3    H178023   5.848   6.658  10.701  1.9607 -3.0995  0.2716
18844TIP3    H278024   5.944   6.744  10.621  0.3535 -2.5140 -1.0409
18845TIP3   OH278025   4.319   3.591  13.486  0.7971  0.2225  0.0051
18845TIP3    H178026   4.275   3.578  13.570  2.0114  1.6494  0.8797
18845TIP3    H278027   4.392   3.528  13.486  0.1347 -0.5661 -0.4870
18846TIP3   OH278028   2.896   1.205  12.676 -0.9290 -0.2681 -0.2421
18846TIP3    H178029   2.905   1.287  12.726  1.2472 -0.7152  0.1552
18846TIP3    H278030   2.871   1.233  12.588  0.9497  0.9267 -0.4220
18847TIP3   OH278031   6.519   2.044  15.132  0.4366  0.0691 -0.7939
18847TIP3    H178032   6.569   2.023  15.053  1.3435  0.0036 -0.2088
18847TIP3    H278033   6.541   2.135  15.150  0.4302  0.0084 -0.4771
18848TIP3   OH278034   4.035   1.958  11.063 -0.2647  0.1928  0.0020
18848TIP3    H178035   3.985   2.033  11.031 -1.8250  0.1818  2.2902
18848TIP3    H278036   4.011   1.886  11.005 -1.8334  0.5474  0.1927
18849TIP3   OH278037   2.947   4.377  16.541 -0.1861  0.2392  0.1710
18849TIP3    H178038   3.005   4.452  16.526 -0.4303  0.6832  1.4015
18849TIP3    H278039   2.860   4.410  16.520 -0.2665  0.2413  0.5062
18850TIP3   OH278040   5.172   4.306   4.068 -0.3558 -0.0478  0.3836
18850TIP3    H178041   5.189   4.399   4.083  1.2326  0.1731 -2.3340
18850TIP3    H278042   5.257   4.264   4.077 -0.3970 -0.6924 -1.9294
18851TIP3   OH278043   3.495   1.614   2.408 -0.1239  0.7881 -0.6253
18851TIP3    H178044   3.437   1.664   2.351  0.9517  1.7242 -0.9103
18851TIP3    H278045   3.482   1.651   2.495 -0.7383  0.2866 -0.5031
18852TIP3   OH278046   0.916   0.342   4.355  0.0389 -0.1178 -0.4281
18852TIP3    H178047   0.984   0.333   4.287  1.1634  0.9148  0.5320
18852TIP3    H278048   0.859   0.412   4.323 -0.1094 -0.4284 -0.8524
18853TIP3   OH278049   1.311   3.147   1.101 -0.0837  0.0052 -0.0182
18853TIP3    H178050   1.370   3.222   1.107  0.2841  0.2358 -4.6843
18853TIP3    H278051   1.225   3.185   1.082 -0.0551 -0.6742 -1.5878
18854TIP3   OH278052   4.776   5.014   3.473 -0.0418  0.1738 -0.2338
18854TIP3    H178053   4.863   4.982   3.448 -0.6512 -3.5681  1.9710
18854TIP3    H278054   4.716   4.971   3.412 -0.5653  0.4963  0.0520
18855TIP3   OH278055   1.255   1.754   5.686 -0.8229 -0.4507  0.0475
18855TIP3    H178056   1.294   1.703   5.614 -0.3701  0.7788 -0.5953
18855TIP3    H278057   1.210   1.826   5.642 -0.7867  0.1494  0.9909
18856TIP3   OH278058   2.541   0.028   1.694 -0.4319  0.1623  0.0140
18856TIP3    H178059   2.600  -0.048   1.694  0.9060  1.1589 -1.6752
18856TIP3    H278060   2.594   0.100   1.728 -1.5712  0.4537  1.2095
18857TIP3   OH278061   2.376   3.282  15.710 -0.3412  0.0502  0.0339
18857TIP3    H178062   2.286   3.250  15.718 -0.5088  1.0452  2.8598
18857TIP3    H278063   2.431   3.208  15.739 -0.4897  0.7639  2.2016
18858TIP3   OH278064   5.458   0.762  13.107 -0.1182  0.6915  0.0703
18858TIP3    H178065   5.408   0.757  13.188  1.0173 -0.7238  0.7020
18858TIP3    H278066   5.539   0.807  13.132 -1.0518  3.0793 -0.9675
18859TIP3   OH278067   3.839   1.984  14.239 -0.0327 -0.0072  0.0582
18859TIP3    H178068   3.748   1.990  14.269 -1.1452 -0.1673 -3.0846
18859TIP3    H278069   3.841   1.906  14.183  1.8700  0.3902 -0.4824
18860TIP3   OH278070   2.313   0.219  14.301  0.0855 -0.3353  0.3248
18860TIP3    H178071   2.395   0.265  14.321 -0.2166 -0.2231  1.3351
18860TIP3    H278072   2.295   0.241  14.210  0.9912 -0.0608  0.2071
18861TIP3   OH278073   1.622   5.676   0.077 -0.0739  0.3560  0.2686
18861TIP3    H178074   1.692   5.669   0.013 -2.5044 -0.4397 -2.4101
18861TIP3    H278075   1.584   5.762   0.061 -2.4766 -0.9456 -1.3563
18862TIP3   OH278076   2.774   6.699   3.427 -0.0058  0.6038  0.1847
18862TIP3    H178077   2.702   6.662   3.377  0.9705 -0.6150 -0.3613
18862TIP3    H278078   2.736   6.726   3.510 -0.8087 -1.3551  0.4687
18863TIP3   OH278079   3.730   4.952  12.487 -0.4188 -0.2200 -0.2033
18863TIP3    H178080   3.803   4.978  12.543 -0.1765  2.0665 -1.5040
18863TIP3    H278081   3.772   4.912  12.411 -0.5681  0.2003 -0.5045
18864TIP3   OH278082   2.299   4.116   5.750  0.3377 -0.0529  0.6384
18864TIP3    H178083   2.254   4.193   5.716 -0.3568 -0.5265  0.4592
18864TIP3    H278084   2.338   4.144   5.833 -1.5092 -0.0013  1.5229
18865TIP3   OH278085   1.166   3.251  16.415  0.3111 -0.8984  0.5963
18865TIP3    H178086   1.233   3.305  16.456  0.6761 -1.8202  1.2343
18865TIP3    H278087   1.183   3.163  16.448 -0.5641 -1.3222 -0.0621
18866TIP3   OH278088   0.219   6.006   3.408 -0.5705  0.4103  0.1623
18866TIP3    H178089   0.289   6.023   3.346  0.2688  0.8411  1.2183
18866TIP3    H278090   0.198   5.913   3.396  1.7124 -0.3094  1.3596
18867TIP3   OH278091   1.767   5.913  15.362  0.5474  0.1788  0.6470
18867TIP3    H178092   1.722   5.838  15.402  1.1301  0.5799  2.0877
18867TIP3    H278093   1.705   5.947  15.298 -0.5811 -0.2312  1.5081
18868TIP3   OH278094   2.230   5.920  14.633 -0.5628 -0.5617  0.5550
18868TIP3    H178095   2.157   5.860  14.620 -0.1474 -1.2676  1.4886
18868TIP3    H278096   2.295   5.893  14.568 -0.6906 -0.6104  0.4462
18869TIP3   OH278097   5.137   1.852   2.856  0.0282  0.3450  0.5314
18869TIP3    H178098   5.175   1.845   2.943 -0.9460 -0.6894  0.8821
18869TIP3    H278099   5.211   1.866   2.798  1.0648 -2.7194  1.0641
18870TIP3   OH278100   4.673   1.470  11.386 -0.4859  0.5715 -0.4109
18870TIP3    H178101   4.650   1.378  11.375  0.3446  0.3401 -0.3019
18870TIP3    H278102   4.639   1.513  11.308  0.5709 -0.1221 -1.2762
18871TIP3   OH278103   4.403   1.946  11.335  0.1441 -0.0300  0.5116
18871TIP3    H178104   4.351   1.997  11.397  2.5286  0.4327  2.1688
18871TIP3    H278105   4.467   2.008  11.301  0.6312 -0.9823 -0.3412
18872TIP3   OH278106   4.160   6.556   4.060 -0.0258 -0.0358  0.2787
18872TIP3    H178107   4.165   6.585   3.969 -0.5676  0.7112  0.4811
18872TIP3    H278108   4.244   6.581   4.098  0.1171 -0.1530  0.0401
18873TIP3   OH278109   2.552   5.330  12.864  0.2385  0.2303  0.2105
18873TIP3    H178110   2.520   5.292  12.945  1.3839 -0.9312  0.1279
18873TIP3    H278111   2.475   5.333  12.807 -0.2624 -0.2359  0.8519
18874TIP3   OH278112   3.397   3.928   2.425  0.2946  0.0120  0.5670
18874TIP3    H178113   3.307   3.954   2.408  0.6715  1.7567  1.0970
18874TIP3    H278114   3.441   3.937   2.340 -0.3873 -2.5153 -0.0904
18875TIP3   OH278115   0.635   5.974   2.125 -0.0828 -0.7082 -0.0565
18875TIP3    H178116   0.552   5.981   2.171  0.2438 -1.6533  0.6886
18875TIP3    H278117   0.614   5.934   2.041 -0.3172 -1.3873  0.3226
18876TIP3   OH278118   2.451   1.234  13.410 -0.1206  0.0594 -0.3358
18876TIP3    H178119   2.480   1.174  13.479 -1.1446  0.6402  0.6125
18876TIP3    H278120   2.512   1.307  13.416  1.1209 -0.8501 -1.4836
18877TIP3   OH278121   3.494   0.905   3.545  0.5758  0.1321  0.0200
18877TIP3    H178122   3.436   0.956   3.602  0.2960 -1.2151  0.9472
18877TIP3    H278123   3.553   0.860   3.605  1.2823 -0.0948 -0.8343
18878TIP3   OH278124   3.477   3.932  16.208  0.6627  0.0330  0.2405
18878TIP3    H178125   3.444   3.863  16.266  0.1960 -0.3987 -0.5379
18878TIP3    H278126   3.571   3.934  16.225  0.5561 -0.2097  0.8921
18879TIP3   OH278127   3.787   4.507  14.737  0.1331 -0.1218  0.0491
18879TIP3    H178128   3.809   4.527  14.646  1.5452 -1.1021  0.1559
18879TIP3    H278129   3.692   4.511  14.740 -0.0617 -2.2232 -1.9943
18880TIP3   OH278130   5.401   1.150   2.840 -0.0055  0.3070 -0.2582
18880TIP3    H178131   5.413   1.229   2.788  0.7067  0.3447 -0.0351
18880TIP3    H278132   5.324   1.168   2.894 -0.6160  0.3486 -1.1344
18881TIP3   OH278133   6.332   0.773   5.417  0.3329  0.6700 -0.0436
18881TIP3    H178134   6.355   0.749   5.327 -2.7582  0.3403 -0.8288
18881TIP3    H278135   6.382   0.713   5.472  2.0925  0.7293 -1.5284
18882TIP3   OH278136   5.444   6.022  16.801 -0.0245  0.5308  0.5870
18882TIP3    H178137   5.360   6.020  16.847  0.2793  1.1476  1.1888
18882TIP3    H278138   5.477   5.932  16.806 -0.3660  0.4224  0.8985
18883TIP3   OH278139   3.232   2.208  15.055 -0.1230  0.1405  0.3911
18883TIP3    H178140   3.247   2.170  14.968 -0.2971  0.0976  0.3795
18883TIP3    H278141   3.316   2.249  15.078  0.6707 -1.8330  1.1855
18884TIP3   OH278142   4.943   6.734  16.456 -0.5256  0.0425  0.3002
18884TIP3    H178143   5.018   6.793  16.464  0.5380 -1.2182 -0.2841
18884TIP3    H278144   4.869   6.792  16.438  0.2423  1.3279  1.1773
18885TIP3   OH278145   3.582   0.494   4.449 -0.1064 -0.6639  0.7517
18885TIP3    H178146   3.549   0.574   4.410  2.6774  0.5999  0.8350
18885TIP3    H278147   3.570   0.507   4.544  0.6016 -0.2065  0.7828
18886TIP3   OH278148   5.732   5.769  13.026 -0.2035 -0.5285 -0.5752
18886TIP3    H178149   5.691   5.838  13.078 -1.4663 -0.2100 -1.9598
18886TIP3    H278150   5.714   5.689  13.075  1.3117  0.0954  1.0659
18887TIP3   OH278151   5.918   2.357  12.890 -0.0755  0.5725 -0.2229
18887TIP3    H178152   5.840   2.413  12.887 -0.6664 -0.1144  1.6766
18887TIP3    H278153   5.957   2.375  12.976  0.1402 -1.3867  0.1072
18888TIP3   OH278154   3.088   3.190   4.471  0.4298 -0.7991 -0.1017
18888TIP3    H178155   3.040   3.178   4.389  1.4211 -2.1685 -0.5050
18888TIP3    H278156   3.178   3.206   4.443  0.7334 -1.0713  0.7197
18889TIP3   OH278157   2.191   1.659   5.968  0.0534 -0.1974  0.0269
18889TIP3    H178158   2.135   1.588   5.998  0.1036  0.7839  2.5619
18889TIP3    H278159   2.280   1.628   5.985  0.1808 -0.4695 -1.0729
18890TIP3   OH278160   1.075   2.329   1.785  0.3230 -0.0291  0.3953
18890TIP3    H178161   1.034   2.355   1.868 -0.7009 -0.0818 -0.0903
18890TIP3    H278162   1.168   2.326   1.805 -0.1031 -2.7414  2.3091
18891TIP3   OH278163   0.187   5.812   4.990  0.1555  0.0728 -0.3676
18891TIP3    H178164   0.236   5.840   4.913 -0.1552 -1.3708 -1.0976
18891TIP3    H278165   0.234   5.735   5.022 -0.2938  0.0723  0.3007
18892TIP3   OH278166   2.702   2.437   3.877 -0.0691 -0.9163  0.3765
18892TIP3    H178167   2.684   2.502   3.809 -2.2337 -0.5594  1.2516
18892TIP3    H278168   2.644   2.363   3.854  2.0026 -2.3794 -0.3389
18893TIP3   OH278169   3.142   5.512   5.364 -0.0448 -0.6191  0.0253
18893TIP3    H178170   3.122   5.604   5.347 -1.4725 -1.3986 -2.8387
18893TIP3    H278171   3.108   5.496   5.452 -0.5101  1.3804  0.2374
18894TIP3   OH278172   3.801   0.657   2.819 -0.3223 -0.3407  0.1629
18894TIP3    H178173   3.848   0.581   2.854  0.8871  0.3516  0.0314
18894TIP3    H278174   3.808   0.648   2.724  0.1930  0.1630  0.1504
18895TIP3   OH278175   4.436   5.946  11.766 -0.0379  0.0990 -0.2363
18895TIP3    H178176   4.474   6.028  11.798  0.7701  1.0481 -3.4735
18895TIP3    H278177   4.511   5.886  11.761 -0.3778 -0.4218  0.7498
18896TIP3   OH278178   0.909   2.742  14.228 -0.1157  0.5787  0.1800
18896TIP3    H178179   0.961   2.788  14.162 -1.3615  0.4450 -0.9177
18896TIP3    H278180   0.904   2.652  14.196 -0.7473  0.5187  0.4408
18897TIP3   OH278181   2.800   2.838   6.659  0.1072 -0.0037  0.6991
18897TIP3    H178182   2.709   2.847   6.689 -1.3603  3.1551 -4.1017
18897TIP3    H278183   2.832   2.928   6.653  1.5771 -0.6948 -3.1524
18898TIP3   OH278184   3.024   6.472  11.656 -1.0441 -0.4385  0.2548
18898TIP3    H178185   3.011   6.415  11.581 -1.4149  0.0178 -0.0269
18898TIP3    H278186   3.021   6.413  11.732 -4.0128 -0.4804  0.1694
18899TIP3   OH278187   1.772   3.402   4.352  0.6823 -0.2321 -0.3627
18899TIP3    H178188   1.853   3.365   4.388  0.7786 -0.9696 -1.3077
18899TIP3    H278189   1.790   3.496   4.344  1.0114 -0.2109  0.5573
18900TIP3   OH278190   6.815   2.343   1.649 -0.1184 -0.2877  0.2563
18900TIP3    H178191   6.909   2.356   1.663 -0.1708  0.6395 -0.2223
18900TIP3    H278192   6.801   2.368   1.558 -0.7649 -0.8251  0.2071
18901TIP3   OH278193   6.017   6.007   3.615  0.0630  0.8501  0.2752
18901TIP3    H178194   6.103   6.008   3.657  1.1922  0.4838 -1.9519
18901TIP3    H278195   5.967   5.943   3.665  1.4616  0.1797  0.8543
18902TIP3   OH278196   0.571   2.775  16.064  0.2165  0.3941 -0.0514
18902TIP3    H178197   0.650   2.748  16.017  0.3977  0.3802  0.2542
18902TIP3    H278198   0.516   2.696  16.065  0.3173  0.3232 -0.0280
18903TIP3   OH278199   4.873   0.268  12.156  0.5441 -0.0774  0.2153
18903TIP3    H178200   4.877   0.182  12.115  1.0757  0.0012  0.0974
18903TIP3    H278201   4.914   0.256  12.241 -0.6192 -0.2545  0.7615
18904TIP3   OH278202   4.997   2.483  11.897 -0.6216  0.0278 -0.0712
18904TIP3    H178203   4.906   2.483  11.865  0.2037 -1.1162 -2.5445
18904TIP3    H278204   5.047   2.528  11.830  1.2222 -2.7223 -0.6456
18905TIP3   OH278205   1.685   0.243   1.602  0.0541  0.5906 -0.1377
18905TIP3    H178206   1.752   0.176   1.588 -0.5980 -0.5391  1.9955
18905TIP3    H278207   1.640   0.250   1.518  1.1881 -0.4542 -0.8502
18906TIP3   OH278208   1.533   6.789  13.894  0.3563  0.3585 -0.3149
18906TIP3    H178209   1.561   6.852  13.828  1.4271  0.6564  0.4127
18906TIP3    H278210   1.611   6.774  13.948 -0.7619  0.8794  1.4889
18907TIP3   OH278211   3.194   1.607   3.652  0.1206  0.3830  0.2374
18907TIP3    H178212   3.161   1.681   3.703 -0.3228  0.4922 -0.2004
18907TIP3    H278213   3.247   1.646   3.584  0.5515  0.2477  0.4943
18908TIP3   OH278214   3.131   4.969  17.162 -0.0962  0.0255 -0.2534
18908TIP3    H178215   3.181   4.947  17.241 -0.3859 -0.7706 -0.2881
18908TIP3    H278216   3.045   4.995  17.194 -0.3336 -0.6589 -0.3233
18909TIP3   OH278217   3.009   6.281  17.234  0.8232  0.4706 -0.7578
18909TIP3    H178218   3.100   6.304  17.215  0.5106  1.3968 -1.1508
18909TIP3    H278219   3.008   6.267  17.329  1.4682  0.0246 -0.8123
18910TIP3   OH278220   5.619   4.643  16.713 -0.5403 -0.7804  0.8168
18910TIP3    H178221   5.578   4.674  16.794  0.0237 -0.7426  1.0896
18910TIP3    H278222   5.713   4.656  16.728 -0.3967 -1.3345  0.3879
18911TIP3   OH278223   3.000   5.478  11.740 -0.3477 -0.6199 -0.4514
18911TIP3    H178224   2.915   5.499  11.779 -0.5620 -2.2824 -0.0106
18911TIP3    H278225   3.048   5.562  11.741 -1.1653 -0.1572  1.3370
18912TIP3   OH278226   0.491   3.049  15.577 -0.3510  0.3584 -0.1847
18912TIP3    H178227   0.518   2.959  15.558 -0.5989 -0.0563  1.3329
18912TIP3    H278228   0.573   3.094  15.596 -0.1619  0.6274 -1.6073
18913TIP3   OH278229   0.143   3.082   2.401 -0.1644 -0.5944 -0.0078
18913TIP3    H178230   0.238   3.079   2.393 -0.1380 -1.8437  0.8098
18913TIP3    H278231   0.126   3.152   2.464  0.1271  0.7803 -1.4150
18914TIP3   OH278232   3.404   0.952  14.077  0.3521 -0.4864  0.1669
18914TIP3    H178233   3.490   0.919  14.051  0.8766  0.1176  1.1203
18914TIP3    H278234   3.346   0.929  14.003  1.6399  0.4769 -1.1607
18915TIP3   OH278235   1.486   6.001   0.194 -0.1115  0.1685  0.3912
18915TIP3    H178236   1.436   6.082   0.189  3.6855  2.5867 -0.1915
18915TIP3    H278237   1.476   5.961   0.108 -0.2231  1.1198 -0.0388
18916TIP3   OH278238   2.308   3.462   3.402 -0.1471  0.4161  0.1256
18916TIP3    H178239   2.324   3.542   3.452 -0.9477  1.2851 -0.9655
18916TIP3    H278240   2.377   3.402   3.429 -0.3763  0.9846  2.0080
18917TIP3   OH278241   2.354   2.673   4.264 -0.4155  0.6360 -0.4070
18917TIP3    H178242   2.342   2.579   4.278 -0.4527  0.5422 -1.0530
18917TIP3    H278243   2.370   2.681   4.170 -0.3361  1.2695 -0.3392
18918TIP3   OH278244   1.435   0.983   1.098 -0.0854  0.4147  0.0226
18918TIP3    H178245   1.374   0.909   1.103  0.5545 -0.1985 -0.9000
18918TIP3    H278246   1.501   0.964   1.165  0.8339 -0.5995 -1.1095
18919TIP3   OH278247   2.671   5.006   5.285  0.6310 -0.1490  0.3513
18919TIP3    H178248   2.666   4.968   5.198 -1.1921 -0.0551  0.3974
18919TIP3    H278249   2.644   4.936   5.344  0.2634  0.2805  0.6974
18920TIP3   OH278250   0.156   2.330   3.485  0.3920  0.3517 -0.0128
18920TIP3    H178251   0.163   2.339   3.580  0.0149  0.6140 -0.0080
18920TIP3    H278252   0.075   2.281   3.471  0.4204  0.3549 -0.2028
18921TIP3   OH278253   4.646   1.541  11.857 -0.0200  1.0021  0.1305
18921TIP3    H178254   4.637   1.523  11.764 -0.0382 -0.8363  0.4678
18921TIP3    H278255   4.722   1.600  11.863 -0.4010  1.6267 -1.0779
18922TIP3   OH278256   6.567   4.055  17.273  0.0811 -0.2013  0.0596
18922TIP3    H178257   6.594   3.975  17.318  1.4031  0.6142  0.7280
18922TIP3    H278258   6.648   4.092  17.238 -0.6939  0.1610 -1.3916
18923TIP3   OH278259   2.683   2.344   3.520  0.5989  0.2461 -0.1735
18923TIP3    H178260   2.719   2.433   3.508 -4.1617  2.1946 -0.9499
18923TIP3    H278261   2.688   2.305   3.433  0.0953  0.8140 -0.4620
18924TIP3   OH278262   2.959   5.347   0.723  0.0260 -0.4175 -0.2280
18924TIP3    H178263   3.035   5.396   0.753 -0.8048  0.5589  0.3059
18924TIP3    H278264   2.991   5.258   0.709  0.8412 -0.4539  1.8161
18925TIP3   OH278265   5.180   2.450  13.917 -1.0655 -0.0398 -0.5995
18925TIP3    H178266   5.200   2.360  13.940  2.6154  0.4396 -1.7089
18925TIP3    H278267   5.186   2.454  13.822 -0.5588  1.5180 -0.5237
18926TIP3   OH278268   5.139   4.127  14.409  0.1498  0.0095  0.7848
18926TIP3    H178269   5.063   4.163  14.456  0.2230  1.1044  0.0614
18926TIP3    H278270   5.128   4.032  14.417 -1.5114  0.1481  0.3551
18927TIP3   OH278271   2.785   2.751  13.155 -0.5121  0.5986 -0.4171
18927TIP3    H178272   2.787   2.744  13.250  0.4986  0.7972 -0.4152
18927TIP3    H278273   2.877   2.762  13.130 -0.8746  1.6639 -1.3211
18928TIP3   OH278274   0.873   0.001   0.208  0.6158 -0.2704  0.9656
18928TIP3    H178275   0.816  -0.068   0.173  1.3495 -0.8319  0.8478
18928TIP3    H278276   0.886  -0.024   0.299 -2.3628  1.9049  2.0486
18929TIP3   OH278277   3.888   5.604  16.554  0.3917  0.5527 -0.1838
18929TIP3    H178278   3.805   5.606  16.603 -0.1738  3.6121 -1.1522
18929TIP3    H278279   3.937   5.678  16.588  1.6935  0.2523 -1.3849
18930TIP3   OH278280   3.038   0.486  13.000 -0.1851  0.0993 -0.1391
18930TIP3    H178281   3.093   0.412  13.025 -1.1962 -0.5274  0.2605
18930TIP3    H278282   2.949   0.455  13.014 -0.5964  1.7587  1.0962
18931TIP3   OH278283   5.629   4.150   3.775  0.1180 -0.4777 -0.1581
18931TIP3    H178284   5.603   4.237   3.744  1.5481  0.0195  0.0153
18931TIP3    H278285   5.684   4.115   3.705  0.6071 -0.7198  0.3423
18932TIP3   OH278286   0.966   4.363   4.833  0.4127  0.0864  0.1448
18932TIP3    H178287   0.890   4.421   4.844 -1.0729 -1.2718 -2.5612
18932TIP3    H278288   1.029   4.416   4.785 -0.8809 -0.4259 -2.1860
18933TIP3   OH278289   3.715   3.289  12.539  0.3473  0.7246  0.4722
18933TIP3    H178290   3.755   3.366  12.580  0.0337 -0.0144  2.1859
18933TIP3    H278291   3.639   3.269  12.593  0.4205 -0.7924  0.0359
18934TIP3   OH278292   0.777   5.647  12.885  0.1597  0.2734  0.4762
18934TIP3    H178293   0.756   5.564  12.842  1.1801 -0.5048  1.4641
18934TIP3    H278294   0.704   5.662  12.946  0.7989 -0.7447  1.4997
18935TIP3   OH278295   5.124   1.270   5.307  0.2304 -0.2358  0.0656
18935TIP3    H178296   5.208   1.312   5.287  0.6950 -0.8292  0.7320
18935TIP3    H278297   5.148   1.187   5.349 -0.6520 -1.4266 -1.7172
18936TIP3   OH278298   0.597   5.338   0.543 -0.0094 -0.0649  0.0851
18936TIP3    H178299   0.620   5.289   0.621 -1.3699  0.1957  0.6692
18936TIP3    H278300   0.603   5.430   0.570 -0.3148  0.0293 -0.1592
18937TIP3   OH278301   4.452   3.696   5.361 -0.3895 -0.1329  0.4036
18937TIP3    H178302   4.472   3.768   5.421  1.5337 -0.8515  0.6853
18937TIP3    H278303   4.357   3.689   5.363 -0.4335  0.4299  2.7108
18938TIP3   OH278304   3.359   4.966  15.282 -0.1616  0.4313 -0.2634
18938TIP3    H178305   3.355   5.042  15.340  0.5892 -0.9018  1.5773
18938TIP3    H278306   3.451   4.958  15.257 -0.2699  0.2474 -0.6238
18939TIP3   OH278307   6.308   0.682  16.239  0.0345 -0.3732  0.1418
18939TIP3    H178308   6.313   0.771  16.206  1.8391  0.5814  2.8320
18939TIP3    H278309   6.377   0.634  16.193 -0.2049 -0.1176 -0.4810
18940TIP3   OH278310   1.950   5.290   3.450  0.1142  0.1043  0.0753
18940TIP3    H178311   1.884   5.284   3.380 -0.8017 -0.6302  0.9911
18940TIP3    H278312   1.917   5.233   3.519  1.5077  0.0557  0.7242
18941TIP3   OH278313   6.698   6.106  15.356  0.0561 -0.2314  0.3001
18941TIP3    H178314   6.718   6.050  15.281 -0.2830  0.8919 -0.6512
18941TIP3    H278315   6.617   6.151  15.331  0.1315  0.4166  1.1971
18942TIP3   OH278316   2.795   1.219  16.407 -0.1131  0.2859  0.1862
18942TIP3    H178317   2.876   1.201  16.455 -0.3316 -0.1088  0.4117
18942TIP3    H278318   2.733   1.248  16.473  0.1849  1.7315 -0.1630
18943TIP3   OH278319   4.307   5.492  12.685  0.0759 -0.3968  0.7450
18943TIP3    H178320   4.305   5.534  12.771  1.4448 -0.9789  1.0698
18943TIP3    H278321   4.339   5.560  12.625  1.5444 -0.7438  1.1335
18944TIP3   OH278322   0.683   2.976  13.628  0.5030  0.0070 -0.0320
18944TIP3    H178323   0.779   2.973  13.620  0.5768  1.3564  0.2916
18944TIP3    H278324   0.657   3.053  13.578 -0.3847 -0.0997  0.2574
18945TIP3   OH278325   0.303   1.642   0.445  0.0259  0.1474  0.5300
18945TIP3    H178326   0.370   1.679   0.503  0.0523 -1.9570  1.9163
18945TIP3    H278327   0.286   1.555   0.482 -1.7034 -0.2901 -1.2503
18946TIP3   OH278328   0.258   4.831   4.474  0.0803 -0.5138 -0.0889
18946TIP3    H178329   0.335   4.804   4.423 -0.3918 -1.5402 -0.2697
18946TIP3    H278330   0.220   4.903   4.424  0.5034 -0.4884 -0.3758
18947TIP3   OH278331   2.580   3.110  15.812  0.0288  0.3057 -0.2300
18947TIP3    H178332   2.620   3.052  15.747  0.2796 -0.7897  0.8821
18947TIP3    H278333   2.610   3.076  15.896 -0.9862  1.1836  0.5014
18948TIP3   OH278334   5.936   2.455  13.450  1.0483 -0.4547 -0.1680
18948TIP3    H178335   5.858   2.477  13.399  0.7580 -0.0694  0.4336
18948TIP3    H278336   6.009   2.490  13.400  0.6327  1.4355  0.5264
18949TIP3   OH278337   6.808   1.982   0.649  0.5183  0.5081  0.1954
18949TIP3    H178338   6.721   2.017   0.665 -0.4078 -0.9620 -1.4625
18949TIP3    H278339   6.839   2.028   0.570  0.9368  0.4973  0.3506
18950TIP3   OH278340   0.624   4.038  14.206  0.3228 -0.0018  0.5114
18950TIP3    H178341   0.682   4.085  14.147 -1.2769  1.5372  0.1094
18950TIP3    H278342   0.638   4.079  14.291  1.1597 -0.8786  0.8093
18951TIP3   OH278343   3.432   2.942   2.403 -0.1147  0.2835 -0.1903
18951TIP3    H178344   3.357   2.891   2.371  0.6706 -0.5258 -0.7418
18951TIP3    H278345   3.413   3.032   2.374 -1.3282  0.2599  0.4891
18952TIP3   OH278346   2.906   0.207   5.330  0.1355 -0.4103  0.1116
18952TIP3    H178347   2.859   0.185   5.250  0.4934 -0.9305  0.0424
18952TIP3    H278348   2.871   0.292   5.356 -0.0661 -0.2958 -0.5332
18953TIP3   OH278349   5.830   1.122  13.615 -0.4523 -0.0969  1.0875
18953TIP3    H178350   5.734   1.122  13.619 -0.5046 -1.8474  0.2607
18953TIP3    H278351   5.850   1.117  13.522  0.4118 -1.3465  1.3195
18954TIP3   OH278352   2.714   1.776   3.129 -0.1407 -0.1102 -0.2198
18954TIP3    H178353   2.717   1.681   3.117 -2.8003 -0.2740  0.1631
18954TIP3    H278354   2.780   1.793   3.196  0.4230 -1.6670 -0.3405
18955TIP3   OH278355   4.665   4.706  15.322 -0.2728  0.3041 -0.6896
18955TIP3    H178356   4.717   4.758  15.260 -1.2988  0.2598 -1.5985
18955TIP3    H278357   4.695   4.616  15.309 -0.8402  0.2263 -1.4868
18956TIP3   OH278358   0.712   4.540   1.424  0.1303  1.1900 -0.2533
18956TIP3    H178359   0.696   4.446   1.432 -2.6152  1.7309  1.1116
18956TIP3    H278360   0.805   4.549   1.443  0.4597 -1.2595 -0.4410
18957TIP3   OH278361   1.425   4.539   1.066  0.3979 -0.1895  0.0198
18957TIP3    H178362   1.350   4.480   1.075  0.0364 -0.0343 -1.7969
18957TIP3    H278363   1.397   4.621   1.107  0.6978 -1.0702  2.0519
18958TIP3   OH278364   0.321   5.812   2.418  0.6271  0.0446  0.4534
18958TIP3    H178365   0.341   5.866   2.494  0.4290 -0.3118  0.7580
18958TIP3    H278366   0.335   5.870   2.343 -1.3219  1.0727  0.8581
18959TIP3   OH278367   5.113   2.838   5.605 -0.5419  0.0628  0.3766
18959TIP3    H178368   5.142   2.792   5.526 -1.2868  0.2597 -0.0123
18959TIP3    H278369   5.134   2.778   5.677  0.9065  0.2347  0.1143
18960TIP3   OH278370   4.379   4.177   5.381 -0.4771  0.5257  0.3073
18960TIP3    H178371   4.343   4.239   5.444  0.7297 -0.1766  1.7283
18960TIP3    H278372   4.303   4.146   5.331 -1.1942  2.5083  0.1175
18961TIP3   OH278373   4.983   1.963  11.726  0.3021 -0.1990 -0.1061
18961TIP3    H178374   5.008   2.047  11.765 -0.4333 -1.4358  3.1768
18961TIP3    H278375   4.947   1.986  11.641  0.3328  2.8117  0.6481
18962TIP3   OH278376   5.224   4.706   2.328  0.3095 -0.3017  0.5226
18962TIP3    H178377   5.316   4.684   2.314  0.2116  0.3055 -1.1250
18962TIP3    H278378   5.209   4.784   2.275 -1.4296 -1.0074 -0.0606
18963TIP3   OH278379   5.409   1.692  11.938  0.3917 -0.1176 -0.4808
18963TIP3    H178380   5.444   1.682  12.026 -1.1421 -1.9396 -0.0412
18963TIP3    H278381   5.317   1.717  11.952 -0.3078 -2.0193 -1.5174
18964TIP3   OH278382   2.695   1.705  12.076 -0.2396  0.0640  0.6216
18964TIP3    H178383   2.689   1.718  12.171  1.7748  1.2990  0.6126
18964TIP3    H278384   2.762   1.637  12.066 -0.2723  0.1149  0.0767
18965TIP3   OH278385   5.520   5.809   5.580 -0.4189 -0.3572 -0.2432
18965TIP3    H178386   5.559   5.894   5.602  1.1432 -1.3749  1.0367
18965TIP3    H278387   5.552   5.791   5.491 -0.0953  0.0037 -0.2018
18966TIP3   OH278388   5.435   5.725   1.722  0.0531  0.5216 -0.5255
18966TIP3    H178389   5.346   5.748   1.750 -0.7355  0.0494 -2.5102
18966TIP3    H278390   5.443   5.632   1.740  0.0915  0.5326 -0.4823
18967TIP3   OH278391   2.218   3.315   4.042 -0.2462 -0.4537  0.3052
18967TIP3    H178392   2.151   3.381   4.056 -0.0776 -0.2878  0.3216
18967TIP3    H278393   2.187   3.238   4.091 -0.0495 -0.1364  0.9306
18968TIP3   OH278394   3.373   6.474   5.757  0.1835  0.1737 -0.5147
18968TIP3    H178395   3.302   6.539   5.765 -0.9263 -1.0550 -0.2760
18968TIP3    H278396   3.362   6.417   5.833  1.6812  0.1908 -0.2714
18969TIP3   OH278397   6.159   6.570   4.210  0.1860  0.3087  0.3259
18969TIP3    H178398   6.187   6.618   4.288  0.7468  1.1951 -0.3999
18969TIP3    H278399   6.073   6.535   4.232  0.2481  0.7395  1.2639
18970TIP3   OH278400   5.638   3.377   4.269  0.0347  0.6976 -0.0063
18970TIP3    H178401   5.656   3.351   4.360  1.4729  1.1896 -0.1328
18970TIP3    H278402   5.653   3.472   4.268 -2.3599  1.0868 -0.2119
18971TIP3   OH278403   6.235   1.039   5.478 -0.5537  0.4544  0.0953
18971TIP3    H178404   6.290   1.081   5.412  0.8716  0.1402  1.0519
18971TIP3    H278405   6.247   0.945   5.463 -1.3583  0.3851 -0.1170
18972TIP3   OH278406   5.837   1.658  15.126  0.2112 -0.5517 -0.4659
18972TIP3    H178407   5.931   1.644  15.135  0.2535  0.3202  0.4831
18972TIP3    H278408   5.817   1.729  15.187 -0.9501 -0.2889 -1.1307
18973TIP3   OH278409   3.956   1.216   2.023 -0.1366  0.9266 -0.0002
18973TIP3    H178410   4.007   1.187   1.948 -1.0639 -1.9353  0.4264
18973TIP3    H278411   3.880   1.260   1.984 -0.1578  0.2689 -0.7104
18974TIP3   OH278412   3.644   4.574   4.242 -0.1863 -0.6453 -0.2134
18974TIP3    H178413   3.660   4.595   4.151  0.7757 -0.9426 -0.1209
18974TIP3    H278414   3.566   4.623   4.265 -0.0198 -0.0142 -0.9930
18975TIP3   OH278415   1.546   1.889  13.356  0.4751  0.3543  0.5224
18975TIP3    H178416   1.641   1.903  13.354  0.2364  2.0348 -0.6726
18975TIP3    H278417   1.509   1.976  13.336 -1.3312 -0.0320  2.1012
18976TIP3   OH278418   1.077   5.339   4.490  0.0219 -0.1960 -0.5138
18976TIP3    H178419   1.121   5.404   4.435 -0.5747  0.2466 -0.4636
18976TIP3    H278420   1.043   5.389   4.564 -0.3156 -0.5896 -0.4050
18977TIP3   OH278421   1.877   3.969  11.741  0.3737  0.8298 -0.4748
18977TIP3    H178422   1.797   3.956  11.691  0.5152 -0.7470 -0.3090
18977TIP3    H278423   1.847   3.983  11.831  0.3387 -1.4581 -0.1058
18978TIP3   OH278424   5.649   0.488  16.562 -0.4443  0.1200 -0.4003
18978TIP3    H178425   5.710   0.491  16.636  0.6852 -0.3608 -1.2970
18978TIP3    H278426   5.634   0.395  16.547 -1.5327  0.2381 -0.0960
18979TIP3   OH278427   6.679   5.072  13.416 -0.5033 -0.6061  0.1945
18979TIP3    H178428   6.746   5.084  13.483 -0.1373  0.1626 -0.3003
18979TIP3    H278429   6.619   5.146  13.428  0.7519  0.7658 -1.6996
18980TIP3   OH278430   1.102   4.798   1.476 -0.0734  0.8883 -0.3571
18980TIP3    H178431   1.147   4.864   1.422  1.6114  0.3008  0.2793
18980TIP3    H278432   1.173   4.753   1.522 -1.0844 -2.0022 -1.4703
18981TIP3   OH278433   1.454   5.515  14.798 -0.0385 -0.1056 -0.7877
18981TIP3    H178434   1.473   5.579  14.730 -1.2991  0.5524 -0.5350
18981TIP3    H278435   1.378   5.550  14.844 -0.7766 -1.7987 -0.6624
18982TIP3   OH278436   5.086   3.663  11.808 -0.8567  0.1755  0.0218
18982TIP3    H178437   5.087   3.757  11.787  0.7504  0.1326 -0.2105
18982TIP3    H278438   5.071   3.660  11.903 -0.3284  0.7132  0.1321
18983TIP3   OH278439   2.886   4.364  15.654  0.3089  0.0462  0.0699
18983TIP3    H178440   2.917   4.358  15.745 -0.3718 -0.7994  0.2543
18983TIP3    H278441   2.814   4.301  15.650 -1.1944  1.7552 -0.4281
18984TIP3   OH278442   4.132   4.369  15.954 -0.0181 -0.3535 -0.6491
18984TIP3    H178443   4.058   4.428  15.944  1.4248  1.1226 -3.2842
18984TIP3    H278444   4.100   4.285  15.924 -1.5108 -0.4828  1.2251
18985TIP3   OH278445   0.686   3.584  15.533 -0.1801 -0.0037 -0.0258
18985TIP3    H178446   0.730   3.601  15.617 -0.2010 -0.8746  0.1728
18985TIP3    H278447   0.606   3.635  15.537  1.1996  2.2930 -0.7497
18986TIP3   OH278448   2.446   6.007   6.902  0.5178 -0.0653  0.6072
18986TIP3    H178449   2.392   6.084   6.884 -0.1233 -0.8053 -0.7521
18986TIP3    H278450   2.402   5.963   6.975  0.1924  0.1863  0.5638
18987TIP3   OH278451   5.116   0.967   2.593  0.1239  0.1660  0.2143
18987TIP3    H178452   5.072   0.949   2.510  0.7546 -0.8203  0.0846
18987TIP3    H278453   5.047   0.958   2.659 -1.1533  4.2000 -0.4410
18988TIP3   OH278454   2.731   1.261   4.268  0.4864 -0.6075 -0.3119
18988TIP3    H178455   2.820   1.294   4.273  0.9627 -1.4760 -2.5266
18988TIP3    H278456   2.738   1.169   4.295 -0.1607 -0.0490  1.8565
18989TIP3   OH278457   1.780   4.229   1.481  0.6478 -0.3769  0.2714
18989TIP3    H178458   1.686   4.243   1.470  0.5983  0.3348  1.5081
18989TIP3    H278459   1.792   4.221   1.576  2.0583  1.2185  0.2494
18990TIP3   OH278460   4.589   0.483   5.060  0.8726  0.2537  0.0708
18990TIP3    H178461   4.626   0.549   5.119  2.5812  0.6034 -1.3481
18990TIP3    H278462   4.640   0.404   5.078 -0.0849 -0.2457  0.6170
18991TIP3   OH278463   5.267   6.730   0.231 -0.2186 -0.4634  0.4856
18991TIP3    H178464   5.264   6.735   0.326 -0.1085  0.5067  0.4397
18991TIP3    H278465   5.302   6.643   0.213  1.5437  0.0545  1.3562
18992TIP3   OH278466   0.675   2.585  10.480 -0.6658 -0.0437  0.1927
18992TIP3    H178467   0.753   2.613  10.433 -0.3363  0.1175  0.8367
18992TIP3    H278468   0.667   2.647  10.552 -1.7204  0.3072 -0.2100
18993TIP3   OH278469   4.863   0.613  16.507 -0.6588 -0.0348  1.1418
18993TIP3    H178470   4.907   0.606  16.592  0.4527 -0.9330  0.5127
18993TIP3    H278471   4.772   0.587  16.524 -0.8567  1.4231  2.3768
18994TIP3   OH278472   3.398   4.249   1.581 -0.1560 -0.1676  0.4471
18994TIP3    H178473   3.374   4.160   1.552  2.1570 -0.6945  0.0926
18994TIP3    H278474   3.383   4.248   1.675  0.7851 -1.2554  0.5962
18995TIP3   OH278475   3.814   1.204   3.540  0.1456  0.0619  0.1181
18995TIP3    H178476   3.722   1.224   3.523  0.2004 -1.1468 -1.7856
18995TIP3    H278477   3.862   1.275   3.497  0.1514 -0.3957 -0.6364
18996TIP3   OH278478   1.642   3.240  13.165  0.2321  0.2263  0.6478
18996TIP3    H178479   1.571   3.267  13.107  0.6513 -1.7214 -0.8150
18996TIP3    H278480   1.720   3.282  13.130  0.3866 -0.4729  0.1519
18997TIP3   OH278481   4.131   6.608   1.133  0.3325 -0.5157  0.0657
18997TIP3    H178482   4.093   6.693   1.112 -1.3915 -1.3202 -0.1305
18997TIP3    H278483   4.175   6.581   1.053  0.8638  0.1741  0.1214
18998TIP3   OH278484   3.758   6.433  12.760 -0.0244 -0.3614 -0.7316
18998TIP3    H178485   3.775   6.345  12.728  0.2761 -1.0585  1.2571
18998TIP3    H278486   3.801   6.490  12.697  0.9497 -1.6974 -1.2969
18999TIP3   OH278487   3.092   1.299  13.788 -0.0786  0.3509 -0.3511
18999TIP3    H178488   3.081   1.361  13.716  1.3605 -0.6552 -1.4700
18999TIP3    H278489   3.133   1.350  13.858 -2.1702  1.5186  0.0409
19000TIP3   OH278490   3.572   3.423  16.032  0.3190 -0.0309  0.4171
19000TIP3    H178491   3.513   3.434  16.107 -0.3046 -0.0245 -0.0765
19000TIP3    H278492   3.657   3.454  16.064  0.3623 -1.2691  1.5514
19001TIP3   OH278493   0.373   1.386   0.836 -0.6573 -0.4834 -0.2721
19001TIP3    H178494   0.423   1.405   0.757  1.4610 -2.2552  0.5747
19001TIP3    H278495   0.406   1.448   0.901  0.0844 -1.3012  0.1435
19002TIP3   OH278496   3.163   4.400   1.649  0.7262  0.6799 -0.3969
19002TIP3    H178497   3.170   4.323   1.593  0.8792  0.7867 -0.5252
19002TIP3    H278498   3.199   4.372   1.733  1.3400  0.7862 -0.6184
19003TIP3   OH278499   0.481   0.097  12.338  0.0619  0.1621  0.2500
19003TIP3    H178500   0.512   0.110  12.427  0.2494 -0.6691  0.3065
19003TIP3    H278501   0.555   0.121  12.282  0.4176 -0.6707  0.3560
19004TIP3   OH278502   1.143   4.609  16.136 -0.6878 -0.2164  0.0055
19004TIP3    H178503   1.158   4.532  16.190  1.5219  0.9488  1.1340
19004TIP3    H278504   1.079   4.581  16.070  0.9901 -3.3365 -0.3718
19005TIP3   OH278505   5.228   2.580  15.493 -0.2016  0.1768  0.0498
19005TIP3    H178506   5.286   2.583  15.417 -0.7599 -0.6383 -0.4107
19005TIP3    H278507   5.140   2.583  15.456 -0.4756 -0.4831  0.6500
19006TIP3   OH278508   3.509   1.116   0.450 -0.2039  0.4007 -0.0062
19006TIP3    H178509   3.536   1.192   0.400 -1.3893  1.4913  0.9693
19006TIP3    H278510   3.419   1.099   0.421 -0.7396  0.7584  1.3697
19007TIP3   OH278511   4.088   2.388   1.722 -0.5099  0.0230 -0.7296
19007TIP3    H178512   4.130   2.470   1.748 -1.3089  0.0431  0.5422
19007TIP3    H278513   4.141   2.357   1.648 -0.0606  1.5547 -1.0790
19008TIP3   OH278514   2.538   2.408   1.827 -0.5926 -0.1198 -0.2436
19008TIP3    H178515   2.485   2.483   1.800 -0.0424  0.7010  0.9254
19008TIP3    H278516   2.536   2.411   1.923 -0.9990 -1.9048 -0.1739
19009TIP3   OH278517   2.994   4.143   5.691  0.4955 -0.2932  0.5089
19009TIP3    H178518   2.938   4.167   5.765  1.8003  0.8150  1.1467
19009TIP3    H278519   2.974   4.207   5.624  0.2015 -0.5628  0.3379
19010TIP3   OH278520   4.581   0.928   3.005  0.3228 -0.3097 -0.3263
19010TIP3    H178521   4.624   1.005   2.968  1.2509 -2.0233 -2.8946
19010TIP3    H278522   4.488   0.941   2.986  0.0666  1.6185  1.9878
19011TIP3   OH278523   4.409   6.770  13.186  0.6371 -0.1121  0.3443
19011TIP3    H178524   4.467   6.791  13.259 -0.5835 -0.9831  1.5637
19011TIP3    H278525   4.337   6.832  13.193  1.2820  0.8507 -1.0762
19012TIP3   OH278526   0.234   3.901  11.472 -0.5705 -0.3453  0.0201
19012TIP3    H178527   0.215   3.912  11.378  0.8323 -1.1502 -0.3727
19012TIP3    H278528   0.237   3.990  11.506 -0.1000  0.0067 -0.9075
19013TIP3   OH278529   6.135   5.787  11.651  0.5060 -0.0965  0.1449
19013TIP3    H178530   6.212   5.790  11.708 -0.0767 -1.4306  1.0318
19013TIP3    H278531   6.163   5.738  11.574  0.5571 -0.5826  0.4685
19014TIP3   OH278532   2.811   2.080  15.957  0.3388 -0.0172 -0.3296
19014TIP3    H178533   2.857   2.124  15.886  0.2057  1.5511  0.5476
19014TIP3    H278534   2.721   2.113  15.952  0.8735  1.8927  2.0124
19015TIP3   OH278535   2.277   3.454  12.705  0.0780  0.1911 -0.3329
19015TIP3    H178536   2.304   3.544  12.684 -0.4910  0.5442  0.4166
19015TIP3    H278537   2.319   3.436  12.790 -2.4899  0.9761  1.1530
19016TIP3   OH278538   3.950   3.008   4.245 -0.1486 -0.5439  1.1464
19016TIP3    H178539   3.867   2.964   4.224 -0.3268 -0.0113  0.7296
19016TIP3    H278540   4.018   2.951   4.210 -0.4218  0.1091 -0.4742
19017TIP3   OH278541   0.312   4.223  11.022 -1.0471 -0.2985  0.0370
19017TIP3    H178542   0.224   4.187  11.009 -1.2428  0.6857 -1.4890
19017TIP3    H278543   0.304   4.315  10.998  0.5519 -0.3420 -0.7304
19018TIP3   OH278544   3.785   3.967  15.599  0.9123 -0.6704 -0.4980
19018TIP3    H178545   3.835   3.990  15.520 -0.4444  1.3865 -0.8074
19018TIP3    H278546   3.744   3.884  15.578  0.3003  0.0247 -2.1033
19019TIP3   OH278547   4.279   2.828   5.909 -0.0740 -0.2845  1.0191
19019TIP3    H178548   4.348   2.765   5.886  0.7545  0.7213  0.7181
19019TIP3    H278549   4.326   2.909   5.929 -1.3064  1.2806 -2.0447
19020TIP3   OH278550   2.341   3.233  13.589  1.0633 -0.6919 -0.1994
19020TIP3    H178551   2.274   3.227  13.521  1.5554  0.3963 -0.7985
19020TIP3    H278552   2.416   3.273  13.545  1.3682  0.0604  0.9855
19021TIP3   OH278553   6.485   1.723   1.467 -0.0822 -0.8853  1.2243
19021TIP3    H178554   6.480   1.638   1.423 -0.1013 -0.9918  1.4291
19021TIP3    H278555   6.576   1.751   1.453 -0.2811 -0.5943  0.5264
19022TIP3   OH278556   3.234   2.870  17.059 -0.8038  0.1526  0.5520
19022TIP3    H178557   3.292   2.840  17.130 -0.2304 -1.2394 -0.4872
19022TIP3    H278558   3.148   2.877  17.101 -0.8683 -2.5101  0.9835
19023TIP3   OH278559   5.981   3.223   4.844  0.1723  0.0074  0.1136
19023TIP3    H178560   6.024   3.304   4.819 -2.8950  1.0626 -2.0390
19023TIP3    H278561   6.000   3.213   4.938  2.1454  2.1744 -0.0195
19024TIP3   OH278562   4.227   4.987  13.770 -0.0014  0.0879 -0.0512
19024TIP3    H178563   4.283   4.966  13.695 -2.4133  0.3604 -2.0168
19024TIP3    H278564   4.257   5.073  13.799  0.7660  0.1241 -0.9286
19025TIP3   OH278565   1.861   2.601   3.478  0.1306  0.2362 -0.1991
19025TIP3    H178566   1.789   2.541   3.498  1.6582 -0.7775  2.5520
19025TIP3    H278567   1.910   2.558   3.408 -1.4399  0.5408 -1.5101
19026TIP3   OH278568   5.618   3.830  15.852  0.4214 -0.2863  0.3430
19026TIP3    H178569   5.594   3.810  15.942  0.8490  0.7955  0.7033
19026TIP3    H278570   5.642   3.745  15.814 -4.1599 -1.4906 -0.1389
19027TIP3   OH278571   0.555   5.740  11.818 -0.8943  0.3396  0.1352
19027TIP3    H178572   0.531   5.832  11.834 -2.1430 -0.3929  2.6787
19027TIP3    H278573   0.473   5.692  11.830 -0.2722 -1.1150 -1.3461
19028TIP3   OH278574   5.462   5.264  15.420  0.1343 -0.9055  0.0190
19028TIP3    H178575   5.499   5.304  15.341  0.8085 -0.6421  0.4716
19028TIP3    H278576   5.369   5.289  15.418  0.7451  1.5441  0.8303
19029TIP3   OH278577   4.683   6.269  17.180 -0.9194  0.1869 -0.7522
19029TIP3    H178578   4.643   6.316  17.254  0.1136 -1.2095  0.7424
19029TIP3    H278579   4.727   6.337  17.129 -1.2042  1.1099  0.2030
19030TIP3   OH278580   3.926   2.139   0.128  0.5892 -0.0218  0.2421
19030TIP3    H178581   3.939   2.047   0.150  0.1614 -0.0085  0.5589
19030TIP3    H278582   3.959   2.187   0.204  0.6013  0.0776  0.1743
19031TIP3   OH278583   3.246   1.479   4.786  0.0886 -0.5231  0.1957
19031TIP3    H178584   3.181   1.548   4.775  0.2851 -0.4942 -0.7673
19031TIP3    H278585   3.196   1.405   4.820 -0.4046 -0.4285 -0.3211
19032TIP3   OH278586   5.756   5.620  13.988  0.1212  0.6900  0.3197
19032TIP3    H178587   5.699   5.565  14.041 -0.9484  1.2039 -0.2998
19032TIP3    H278588   5.804   5.558  13.932  0.0562  0.2814  0.7112
19033TIP3   OH278589   4.573   2.036   4.332 -0.6182  0.4409  0.1496
19033TIP3    H178590   4.586   2.087   4.252 -1.0983  2.2231  1.1798
19033TIP3    H278591   4.661   2.009   4.358 -0.2353  1.7193  0.2060
19034TIP3   OH278592   2.063   1.410  15.591 -0.2893 -0.2887 -0.3476
19034TIP3    H178593   2.002   1.347  15.630  0.0019 -1.0141 -1.0433
19034TIP3    H278594   2.081   1.374  15.504 -0.7170  1.1574 -1.0561
19035TIP3   OH278595   4.724   4.017   4.988 -0.2095 -0.4069  0.0541
19035TIP3    H178596   4.691   3.938   5.030  0.9852 -0.8662  0.1758
19035TIP3    H278597   4.820   4.007   4.990 -0.0488  0.8742 -0.2421
19036TIP3   OH278598   1.114   2.085  15.527  0.0701  0.0697 -0.0625
19036TIP3    H178599   1.074   2.068  15.441  0.0344  0.3686 -0.1045
19036TIP3    H278600   1.207   2.066  15.515 -0.0390 -0.5308  0.0059
19037TIP3   OH278601   3.295   0.038  16.751 -0.6783  0.9681  0.3743
19037TIP3    H178602   3.387   0.018  16.765 -0.5034  1.8592  0.5419
19037TIP3    H278603   3.264   0.073  16.835 -1.8283 -1.6625  1.0980
19038TIP3   OH278604   6.181   2.313   2.043  0.6832  0.0678 -0.1663
19038TIP3    H178605   6.169   2.238   1.986 -0.1119 -0.2675  0.4343
19038TIP3    H278606   6.159   2.389   1.988 -0.7765 -0.2982 -0.1028
19039TIP3   OH278607   3.482   4.626   3.567 -0.7677  0.0199  0.5820
19039TIP3    H178608   3.400   4.578   3.556 -0.3151 -0.5711 -0.2470
19039TIP3    H278609   3.545   4.560   3.597 -0.2946  0.2202  0.0414
19040TIP3   OH278610   2.221   4.195   0.408 -0.6173 -0.3283 -0.2105
19040TIP3    H178611   2.307   4.222   0.377  1.0948 -3.1002  2.0006
19040TIP3    H278612   2.185   4.144   0.335  0.3741 -0.7601 -0.3986
19041TIP3   OH278613   3.487   3.252  11.624  0.3138 -0.0243 -0.3709
19041TIP3    H178614   3.530   3.326  11.666  1.0395 -0.8172  0.2976
19041TIP3    H278615   3.433   3.291  11.555  0.1717  1.1770  0.4155
19042TIP3   OH278616   2.254   2.441  11.656  0.4605  0.0724 -0.0535
19042TIP3    H178617   2.166   2.402  11.659  0.2287  0.6515  0.7792
19042TIP3    H278618   2.305   2.380  11.604 -0.4118 -0.3303 -0.4531
19043TIP3   OH278619   5.732   3.234   4.519  0.2861  0.5799  0.4532
19043TIP3    H178620   5.708   3.165   4.456  1.1003  0.6484  0.0603
19043TIP3    H278621   5.701   3.201   4.603 -1.6426  0.8999 -0.1013
19044TIP3   OH278622   1.747   2.770  12.734 -0.2862 -0.2399 -0.2746
19044TIP3    H178623   1.705   2.684  12.733  0.1387 -0.4562 -2.0262
19044TIP3    H278624   1.785   2.779  12.646 -2.1553  2.6329 -0.8698
19045TIP3   OH278625   0.596   3.073  12.174 -0.0955 -0.1421  0.1558
19045TIP3    H178626   0.548   3.073  12.091 -0.9219 -0.2524  0.6290
19045TIP3    H278627   0.534   3.106  12.238  0.9770  1.2914  0.4907
19046TIP3   OH278628   2.715   4.877   0.890  0.0587  0.4768 -0.1796
19046TIP3    H178629   2.709   4.842   0.979 -0.1075  1.9728  0.4168
19046TIP3    H278630   2.751   4.805   0.838 -2.0755 -1.2080  0.6244
19047TIP3   OH278631   5.710   5.918  11.522  0.5086  0.3879  0.1603
19047TIP3    H178632   5.771   5.847  11.541  0.2870  0.7963  2.4961
19047TIP3    H278633   5.752   5.997  11.558 -0.9995  0.8041  1.0540
19048TIP3   OH278634   3.516   5.525  14.529  0.2102  0.1951  0.3406
19048TIP3    H178635   3.598   5.567  14.552  0.3379  0.0303  0.1931
19048TIP3    H278636   3.468   5.518  14.612  1.3664 -1.9208  0.8746
19049TIP3   OH278637   6.545   3.043  12.602 -0.3434  0.0230  0.2554
19049TIP3    H178638   6.613   3.035  12.668 -0.5152 -0.7155  0.3427
19049TIP3    H278639   6.590   3.079  12.525  0.2937 -1.0889  0.0927
19050TIP3   OH278640   3.987   2.988   2.881 -0.0784 -1.1553  0.4658
19050TIP3    H178641   3.949   2.901   2.866 -0.0109 -1.7355  3.3882
19050TIP3    H278642   4.001   2.992   2.975 -1.4770  2.6420  0.5878
19051TIP3   OH278643   3.020   1.290   4.374 -0.0280 -0.2773 -0.0390
19051TIP3    H178644   3.031   1.205   4.330 -0.5101  0.7148 -2.1339
19051TIP3    H278645   3.110   1.323   4.385  0.0511 -0.1211 -1.1206
19052TIP3   OH278646   2.944   2.256   3.613  0.0137 -0.1347 -0.1823
19052TIP3    H178647   2.971   2.280   3.702 -0.2321 -0.1695 -0.0980
19052TIP3    H278648   2.874   2.318   3.592 -0.8233 -0.9497  0.1437
19053TIP3   OH278649   6.587   5.245   2.403  0.1045 -0.2892 -0.2319
19053TIP3    H178650   6.616   5.337   2.403  0.1868 -0.3124 -0.8777
19053TIP3    H278651   6.511   5.244   2.345 -0.4089 -0.4752  0.4422
19054TIP3   OH278652   1.750   6.649   5.321  0.3276  0.1888  0.1979
19054TIP3    H178653   1.836   6.615   5.344  0.4895  0.9769  0.7582
19054TIP3    H278654   1.757   6.744   5.335 -0.1298  0.4561 -1.2948
19055TIP3   OH278655   5.026   2.844   1.507  0.2021  0.3631 -0.3129
19055TIP3    H178656   5.011   2.926   1.554  0.0672  0.0767  0.1379
19055TIP3    H278657   5.076   2.871   1.429  2.5456  0.5384  1.1934
19056TIP3   OH278658   1.532   0.784  11.407 -0.2340 -0.2052 -0.2492
19056TIP3    H178659   1.592   0.794  11.333 -0.4736  0.8011 -0.3055
19056TIP3    H278660   1.495   0.696  11.395  0.6545 -0.5390 -0.6328
19057TIP3   OH278661   0.734   6.694   4.761 -0.2179  0.0538 -0.4579
19057TIP3    H178662   0.751   6.730   4.848 -0.4243 -0.8665 -0.0223
19057TIP3    H278663   0.761   6.763   4.701 -0.6105  0.9278  0.3489
19058TIP3   OH278664   3.914   6.775  11.534  0.0525  0.2353 -0.8181
19058TIP3    H178665   3.930   6.832  11.458 -1.6137 -0.1764 -1.5017
19058TIP3    H278666   3.967   6.698  11.517  1.2241  0.9770 -0.5831
19059TIP3   OH278667   5.523   2.565  13.543  0.4173 -0.4517  0.7541
19059TIP3    H178668   5.500   2.528  13.457  0.5348 -1.1330  1.0110
19059TIP3    H278669   5.585   2.634  13.523 -0.3353  0.0755  0.2113
19060TIP3   OH278670   6.071   3.096  15.196  0.0820 -0.1860  0.0408
19060TIP3    H178671   6.007   3.152  15.238  0.6377  0.3140  0.2271
19060TIP3    H278672   6.146   3.153  15.179  1.1239 -1.1335  1.3102
19061TIP3   OH278673   1.105   3.465  15.815 -0.2492 -0.0822 -0.1095
19061TIP3    H178674   1.153   3.528  15.869 -0.9512  1.2321 -0.9985
19061TIP3    H278675   1.093   3.510  15.731 -0.0646 -1.7116 -1.0167
19062TIP3   OH278676   4.375   0.417   3.605 -0.3681 -0.2881  0.3980
19062TIP3    H178677   4.365   0.374   3.689  1.2116 -0.4785  0.5194
19062TIP3    H278678   4.392   0.345   3.543 -0.1408 -0.0466  0.1747
19063TIP3   OH278679   5.129   3.115   5.921  0.1613  0.0064  0.1786
19063TIP3    H178680   5.077   3.195   5.913 -2.4395 -1.9372 -4.8632
19063TIP3    H278681   5.204   3.129   5.864  0.7101 -0.3955  0.8001
19064TIP3   OH278682   2.278   1.974  14.316 -0.3109  0.2172  0.1069
19064TIP3    H178683   2.344   1.933  14.259 -0.1279  2.0121 -1.0131
19064TIP3    H278684   2.225   1.901  14.349 -0.6806 -0.8064 -2.6929
19065TIP3   OH278685   3.078   6.474   4.459  0.2439 -0.4682  0.3505
19065TIP3    H178686   3.138   6.511   4.524 -0.3662  0.1247  0.5835
19065TIP3    H278687   3.024   6.412   4.509 -2.9194  2.8929  1.3052
19066TIP3   OH278688   0.267   3.368  15.780 -0.2191 -0.0677  0.2382
19066TIP3    H178689   0.261   3.287  15.830 -0.9782 -0.0446  0.1997
19066TIP3    H278690   0.258   3.341  15.688  0.7774 -0.0701  0.1436
19067TIP3   OH278691   3.227   1.157   1.744  0.1997 -0.1417 -0.4257
19067TIP3    H178692   3.286   1.115   1.806  0.4620  0.7004 -0.0927
19067TIP3    H278693   3.282   1.221   1.699 -0.4693  0.7249 -0.0370
19068TIP3   OH278694   4.584   0.296   6.211 -0.5775 -0.1380 -0.7328
19068TIP3    H178695   4.551   0.298   6.301 -0.0184  0.3521 -0.5314
19068TIP3    H278696   4.674   0.263   6.220 -0.8099 -0.8995 -1.2039
19069TIP3   OH278697   3.810   5.649   4.016 -0.2427 -0.1546  0.1684
19069TIP3    H178698   3.881   5.662   3.952  0.6646  0.2310  1.2473
19069TIP3    H278699   3.774   5.737   4.029 -1.0870 -0.3833 -0.5467
19070TIP3   OH278700   2.340   4.582   2.703 -0.1811 -0.3365  0.5123
19070TIP3    H178701   2.283   4.517   2.661  0.1290 -0.5160  0.3734
19070TIP3    H278702   2.425   4.571   2.661 -0.7252  1.8088 -1.2407
19071TIP3   OH278703   2.889   0.825   3.530  0.7990  0.4264  0.1175
19071TIP3    H178704   2.841   0.786   3.458  4.0712 -1.0606 -1.3517
19071TIP3    H278705   2.836   0.806   3.608 -2.0910  0.8758 -1.6742
19072TIP3   OH278706   0.057   5.801   2.924  0.3459 -0.2517  0.2606
19072TIP3    H178707   0.135   5.843   2.889  0.4136 -1.2391 -0.7940
19072TIP3    H278708   0.089   5.748   2.997  0.2925  1.3021  1.4451
19073TIP3   OH278709   0.022   0.696  11.763 -0.2493 -0.3931 -0.0179
19073TIP3    H178710   0.057   0.640  11.694 -1.7956 -0.9527 -0.3809
19073TIP3    H278711  -0.024   0.766  11.717 -1.2433 -0.7446  0.4258
19074TIP3   OH278712   1.504   0.869  11.696 -0.1265 -0.3865 -0.7319
19074TIP3    H178713   1.533   0.852  11.607 -1.7780 -2.0535 -0.9825
19074TIP3    H278714   1.492   0.782  11.734 -4.4286  0.1700 -0.5614
19075TIP3   OH278715   2.783   4.701  11.712  0.4387  0.5175 -0.2705
19075TIP3    H178716   2.754   4.615  11.682 -0.8407  0.3406  1.4341
19075TIP3    H278717   2.709   4.737  11.759  1.7163  1.6555  0.9334
19076TIP3   OH278718   4.219   4.682  15.559  0.1980 -0.0160 -0.2340
19076TIP3    H178719   4.248   4.591  15.548  1.5085  0.6931 -2.9044
19076TIP3    H278720   4.261   4.729  15.487 -1.6268  2.4498  0.2891
19077TIP3   OH278721   3.804   6.387   5.238 -0.4536  0.5620 -0.1052
19077TIP3    H178722   3.860   6.323   5.194 -0.7721  0.2538 -0.0612
19077TIP3    H278723   3.789   6.455   5.173  1.0012  1.2810  0.2730
19078TIP3   OH278724   5.209   5.685  12.526 -0.2994 -0.1108 -0.3107
19078TIP3    H178725   5.304   5.677  12.512  0.0925  1.6353  1.1688
19078TIP3    H278726   5.186   5.607  12.576  0.4381 -0.3258 -0.2985
19079TIP3   OH278727   3.151   3.758   5.042 -0.5481 -0.3665 -0.0083
19079TIP3    H178728   3.220   3.704   5.081  0.9319  0.0407 -1.9652
19079TIP3    H278729   3.074   3.700   5.039  0.3128 -1.5428  0.2465
19080TIP3   OH278730   5.139   5.550   5.226  0.1895  0.3885 -0.8332
19080TIP3    H178731   5.231   5.563   5.251 -0.3679 -0.1656  1.6106
19080TIP3    H278732   5.089   5.587   5.299 -1.5232 -1.6353 -0.9373
19081TIP3   OH278733   5.544   4.055  13.223  0.2236  0.0424 -0.1253
19081TIP3    H178734   5.593   4.049  13.304 -0.0450  0.2961  0.0546
19081TIP3    H278735   5.488   4.132  13.234  1.5085  1.1734 -1.2651
19082TIP3   OH278736   6.790   3.324   3.772  0.2231 -0.0015  0.2919
19082TIP3    H178737   6.801   3.312   3.866  1.0155  0.7072  0.3057
19082TIP3    H278738   6.791   3.236   3.735 -2.4321 -0.4336  1.1678
19083TIP3   OH278739   5.144   1.222  14.436  0.1427 -0.0682  0.2753
19083TIP3    H178740   5.107   1.181  14.514 -0.7745  0.7397  0.2719
19083TIP3    H278741   5.116   1.313  14.440  2.6485  0.7429  0.5874
19084TIP3   OH278742   5.311   4.870   4.535  0.4104 -0.1860  0.3597
19084TIP3    H178743   5.223   4.883   4.498  0.6667  0.4733 -0.0290
19084TIP3    H278744   5.309   4.918   4.618  0.8200  0.9557 -0.2793
19085TIP3   OH278745   4.213   2.155   0.479  0.4020 -0.1282  0.2595
19085TIP3    H178746   4.259   2.239   0.475  1.3570 -0.7117 -1.5669
19085TIP3    H278747   4.251   2.104   0.408 -1.2762 -1.5659  0.3740
19086TIP3   OH278748   6.797   2.878   3.585 -0.5060 -0.5293  0.2182
19086TIP3    H178749   6.748   2.796   3.592 -0.6165 -0.4508  0.3470
19086TIP3    H278750   6.884   2.850   3.556 -1.0846 -0.5290 -1.5750
19087TIP3   OH278751   5.574   6.430   2.338  0.5322 -0.2226  1.0378
19087TIP3    H178752   5.498   6.388   2.378 -0.7817  0.2986 -0.8211
19087TIP3    H278753   5.543   6.519   2.318  1.4691 -0.1635 -0.1784
19088TIP3   OH278754   5.392   6.436  15.851  0.2344 -0.5131 -0.5822
19088TIP3    H178755   5.323   6.499  15.872  1.0542  0.0700  0.4054
19088TIP3    H278756   5.345   6.358  15.822 -0.9193 -0.7841  1.8942
19089TIP3   OH278757   1.312   0.965  13.112  0.1399  0.1830  0.5821
19089TIP3    H178758   1.339   1.055  13.091  0.3377 -0.0055  0.0115
19089TIP3    H278759   1.267   0.935  13.032  1.4243 -0.7556  0.2001
19090TIP3   OH278760   1.268   4.372  10.618  0.8107  0.2718 -0.1549
19090TIP3    H178761   1.357   4.406  10.622  0.7916  0.3224 -0.1687
19090TIP3    H278762   1.218   4.441  10.575  0.7146  0.3468  0.0770
19091TIP3   OH278763   4.739   3.642   5.361 -0.1687  0.3160  0.4839
19091TIP3    H178764   4.648   3.671   5.348  0.0357  0.2894 -1.1543
19091TIP3    H278765   4.735   3.547   5.357 -0.0743  0.3119  0.4849
19092TIP3   OH278766   1.601   0.769   1.220  0.0596  0.4902  0.2424
19092TIP3    H178767   1.666   0.719   1.171 -0.2081  0.9984 -0.6303
19092TIP3    H278768   1.518   0.748   1.177 -0.1497  1.0912  0.3539
19093TIP3   OH278769   0.301   2.230  15.856 -0.0339  0.3676 -0.7490
19093TIP3    H178770   0.256   2.151  15.886  0.0037  0.1162 -1.3525
19093TIP3    H278771   0.231   2.291  15.834 -0.1030 -0.3719 -2.6276
19094TIP3   OH278772   5.552   1.231  15.160 -0.6723  0.3403  0.0438
19094TIP3    H178773   5.468   1.275  15.174 -1.3185 -0.4495 -1.3017
19094TIP3    H278774   5.561   1.225  15.065  0.5981 -0.1988  0.1872
19095TIP3   OH278775   0.374   3.724  16.620 -0.1016 -0.1203 -0.1105
19095TIP3    H178776   0.332   3.805  16.592  0.4573  0.4358  0.6360
19095TIP3    H278777   0.415   3.746  16.703 -0.8084 -1.4556  0.5966
19096TIP3   OH278778   3.329   4.324  16.597 -0.3108 -0.1853 -0.1095
19096TIP3    H178779   3.258   4.379  16.565 -1.5810 -2.3332 -1.1471
19096TIP3    H278780   3.304   4.301  16.686  0.7955  1.7985  0.7484
19097TIP3   OH278781   3.785   5.636  16.872 -0.3023 -0.6722  0.1016
19097TIP3    H178782   3.783   5.731  16.884  2.5700 -0.5016 -0.5161
19097TIP3    H278783   3.827   5.603  16.951 -0.7014 -1.3891  0.0203
19098TIP3   OH278784   3.552   5.765   3.081 -0.1355 -0.4200  0.2869
19098TIP3    H178785   3.639   5.777   3.042  0.3393 -2.9861  0.4959
19098TIP3    H278786   3.570   5.749   3.174 -0.7931 -1.4883  0.2354
19099TIP3   OH278787   3.365   3.563   2.935  0.5016  0.2131 -0.0260
19099TIP3    H178788   3.333   3.479   2.970  0.2486  0.1836 -0.3232
19099TIP3    H278789   3.375   3.618   3.013 -0.7954  0.3920  0.0383
19100TIP3   OH278790   3.984   1.066   1.025 -0.2014  0.2440  0.0881
19100TIP3    H178791   3.911   1.026   1.072  0.5049 -0.8420  0.2785
19100TIP3    H278792   3.982   1.026   0.938 -1.6190  2.3814 -0.9129
19101TIP3   OH278793   6.369   1.490   5.520  0.2640 -0.2528  0.0684
19101TIP3    H178794   6.368   1.541   5.600  0.9845  0.8616 -0.6116
19101TIP3    H278795   6.298   1.426   5.530  0.2153  0.0155  1.4832
19102TIP3   OH278796   0.337   6.590   1.990 -0.1616 -0.8624  0.7762
19102TIP3    H178797   0.275   6.640   2.044  0.2497 -0.0500  0.4948
19102TIP3    H278798   0.342   6.505   2.033  0.5936 -0.0409  2.3622
19103TIP3   OH278799   0.445   4.036  15.111  0.0244 -0.1737  0.1308
19103TIP3    H178800   0.429   3.983  15.032  1.5078 -0.8345  0.2595
19103TIP3    H278801   0.378   4.007  15.173  0.3043 -1.3301 -0.0842
19104TIP3   OH278802   1.169   3.558   3.464 -0.4521  0.2045 -0.0844
19104TIP3    H178803   1.075   3.574   3.468 -0.0912  2.1347  2.7952
19104TIP3    H278804   1.203   3.626   3.405 -0.6426  0.7902  0.4758
19105TIP3   OH278805   0.434   0.975  13.718 -0.3341 -0.1198 -0.0790
19105TIP3    H178806   0.513   1.019  13.684 -0.7743  0.8684  0.1567
19105TIP3    H278807   0.464   0.888  13.742  0.7247  0.2888  0.1174
19106TIP3   OH278808   6.138   1.446  12.536  0.1141 -0.3171 -0.1429
19106TIP3    H178809   6.050   1.411  12.544 -0.2096  0.1559 -1.4597
19106TIP3    H278810   6.166   1.463  12.626 -1.3341  0.0048  0.2539
19107TIP3   OH278811   1.314   5.234   6.507 -0.3910 -0.1380  0.2661
19107TIP3    H178812   1.394   5.193   6.475 -0.2750  1.8339 -2.1023
19107TIP3    H278813   1.345   5.306   6.562 -0.5363  0.3291 -0.2619
19108TIP3   OH278814   4.961   2.141   4.186  0.6405 -0.4953 -0.0662
19108TIP3    H178815   5.039   2.104   4.227  1.1960  0.2531 -0.4553
19108TIP3    H278816   4.991   2.222   4.145 -0.5574  0.3633  0.7162
19109TIP3   OH278817   3.182   3.835  15.804  0.4751 -0.6495  0.3545
19109TIP3    H178818   3.254   3.841  15.866  1.0190  1.9346 -0.4953
19109TIP3    H278819   3.110   3.883  15.846  0.4593  0.0633 -0.4799
19110TIP3   OH278820   0.407   3.820  11.130  0.1179 -0.1998  0.3841
19110TIP3    H178821   0.465   3.884  11.088  0.2141  0.4871  1.5287
19110TIP3    H278822   0.447   3.735  11.112 -0.1547  0.0289 -1.3895
19111TIP3   OH278823   6.353   4.234  15.578 -0.2919 -0.0200  0.3492
19111TIP3    H178824   6.330   4.203  15.666  3.2648 -2.3442  0.5498
19111TIP3    H278825   6.405   4.313  15.593  1.1660 -0.9817  0.3919
19112TIP3   OH278826   2.626   5.709   3.145 -0.0041 -0.2584 -0.0036
19112TIP3    H178827   2.551   5.766   3.160  0.7008  0.8566 -0.6550
19112TIP3    H278828   2.688   5.733   3.213 -0.0477 -0.8423  0.2396
19113TIP3   OH278829   1.539   4.952  12.190 -0.2379 -0.6438 -0.4019
19113TIP3    H178830   1.615   4.966  12.246  0.1159 -0.0637 -1.0276
19113TIP3    H278831   1.572   4.964  12.101 -1.1871  0.1916 -0.6461
19114TIP3   OH278832   4.707   3.368   5.387 -0.1604 -0.0343  0.5150
19114TIP3    H178833   4.621   3.326   5.391 -0.3520  0.1798 -1.2203
19114TIP3    H278834   4.758   3.314   5.327 -0.0177  1.4677 -0.7597
19115TIP3   OH278835   2.691   2.945   2.222 -0.1655  0.1150  0.3666
19115TIP3    H178836   2.784   2.947   2.200 -0.4224  0.3755 -0.7035
19115TIP3    H278837   2.683   3.005   2.296  0.4191  0.5572  0.0714
19116TIP3   OH278838   3.097   2.642  10.842 -0.0074 -0.2335 -0.6126
19116TIP3    H178839   3.149   2.578  10.795 -2.2085 -1.1893 -1.8061
19116TIP3    H278840   3.068   2.704  10.774 -1.1691 -0.2249 -0.1125
19117TIP3   OH278841   6.636   6.092   0.521 -0.2149 -0.5790  0.1390
19117TIP3    H178842   6.678   6.177   0.537 -1.4860 -0.1159  1.0797
19117TIP3    H278843   6.680   6.058   0.443 -0.1889  1.2871 -0.6902
19118TIP3   OH278844   3.446   1.534  13.574  0.3736  0.0507 -0.1785
19118TIP3    H178845   3.463   1.450  13.618 -1.6087  0.9665  2.4938
19118TIP3    H278846   3.522   1.588  13.596  0.5788 -0.3141  0.0192
19119TIP3   OH278847   3.109   0.510   0.322  0.1648  0.4210  0.6964
19119TIP3    H178848   3.049   0.466   0.263 -0.3879  0.6002  1.1129
19119TIP3    H278849   3.088   0.475   0.409  2.1968 -1.1981  0.5933
19120TIP3   OH278850   2.894   1.663   0.029  0.2556  0.4563 -0.4113
19120TIP3    H178851   2.952   1.722  -0.019  0.2301 -0.3810 -1.4901
19120TIP3    H278852   2.936   1.577   0.023  1.5530  0.7374  3.2198
19121TIP3   OH278853   5.944   1.584  14.776  0.2846  0.3389  0.7001
19121TIP3    H178854   5.948   1.675  14.806 -0.2631 -0.1588  2.3352
19121TIP3    H278855   5.851   1.561  14.783  0.3804 -0.2578  0.0297
19122TIP3   OH278856   2.728   4.662  17.104  0.2834  0.0842 -0.4677
19122TIP3    H178857   2.742   4.579  17.149 -0.8856  0.5479  0.7915
19122TIP3    H278858   2.780   4.725  17.153  1.4622  0.0367 -1.6469
19123TIP3   OH278859   4.751   4.562  16.064  0.1773 -0.8016  0.4479
19123TIP3    H178860   4.775   4.632  16.003  0.0346 -1.0200  0.1401
19123TIP3    H278861   4.667   4.589  16.100 -0.2573 -1.1924 -0.2591
19124TIP3   OH278862   4.368   0.408   5.314 -0.3024  0.2906 -0.1431
19124TIP3    H178863   4.306   0.367   5.254  0.9507 -2.2765  0.2598
19124TIP3    H278864   4.378   0.498   5.282 -1.4533 -0.3555 -2.3445
19125TIP3   OH278865   2.345   4.628   0.314 -0.2517  0.3645  0.0118
19125TIP3    H178866   2.317   4.553   0.260  0.9800 -0.2362  0.1751
19125TIP3    H278867   2.347   4.702   0.253 -1.8867  0.3744 -0.0582
19126TIP3   OH278868   6.771   1.323   2.294 -0.2096  0.0078  0.3763
19126TIP3    H178869   6.701   1.268   2.331  0.2498 -0.8345  0.0264
19126TIP3    H278870   6.757   1.318   2.199  0.3643 -0.2354  0.3009
19127TIP3   OH278871   5.073   6.359  13.754 -0.8935  0.0617  0.2884
19127TIP3    H178872   5.093   6.398  13.840 -1.3694 -0.8717  0.8359
19127TIP3    H278873   5.136   6.287  13.746  0.2721  1.1967 -0.9137
19128TIP3   OH278874   4.147   4.993  14.709 -0.9209  0.2199 -0.2693
19128TIP3    H178875   4.118   5.074  14.752  0.3629  0.1625  0.7307
19128TIP3    H278876   4.106   4.923  14.760  0.1001  0.1685  0.4840
19129TIP3   OH278877   0.334   0.003   5.181 -0.1650  0.9805 -0.8205
19129TIP3    H178878   0.359   0.074   5.240  2.1625 -1.7921  1.7082
19129TIP3    H278879   0.253  -0.031   5.217 -0.0959  0.9329 -0.7093
19130TIP3   OH278880   2.406   0.450   5.269  0.7154  0.7045 -0.3843
19130TIP3    H178881   2.334   0.388   5.260  2.2262 -1.2465  0.6430
19130TIP3    H278882   2.364   0.536   5.273 -1.4187 -0.2593 -1.6354
19131TIP3   OH278883   6.400   0.462   0.242  0.4332 -0.1849  0.3738
19131TIP3    H178884   6.432   0.496   0.159 -0.6768  0.5036  0.2157
19131TIP3    H278885   6.309   0.436   0.224 -0.1972  1.0741  1.6529
19132TIP3   OH278886   0.446   3.752   4.528 -0.2858 -0.4832 -0.2726
19132TIP3    H178887   0.461   3.739   4.621  0.4781  0.1771 -0.2972
19132TIP3    H278888   0.461   3.666   4.489  0.7585 -0.4520  0.0502
19133TIP3   OH278889   0.265   3.901  15.289  0.5433  0.3305 -0.2003
19133TIP3    H178890   0.315   3.944  15.359  0.6125 -2.4862  1.5651
19133TIP3    H278891   0.262   3.809  15.315 -2.3047 -0.2183 -2.2406
19134TIP3   OH278892   2.355   3.769  10.736  0.9639 -0.2998 -0.4205
19134TIP3    H178893   2.406   3.727  10.667 -0.7790 -1.8031 -0.8355
19134TIP3    H278894   2.388   3.731  10.817 -0.5586 -2.5152 -0.7878
19135TIP3   OH278895   4.458   6.417  12.106 -0.1234 -0.1219  0.3878
19135TIP3    H178896   4.387   6.376  12.156 -1.3035  2.3745  0.8752
19135TIP3    H278897   4.425   6.421  12.016 -1.0565  1.9197  0.7926
19136TIP3   OH278898   1.984   3.369   0.341 -0.0539 -0.7792 -0.3191
19136TIP3    H178899   1.893   3.364   0.313  0.5263 -1.8820 -2.1409
19136TIP3    H278900   2.034   3.369   0.259  1.5825 -0.3814  0.6584
19137TIP3   OH278901   0.139   1.692   4.144  0.7577 -0.4677 -0.4197
19137TIP3    H178902   0.183   1.643   4.213  1.1836 -0.5665 -0.7562
19137TIP3    H278903   0.145   1.636   4.067  0.0876 -0.4570 -0.4854
19138TIP3   OH278904   0.791   1.200  16.506 -0.6853 -0.4018  0.4908
19138TIP3    H178905   0.705   1.206  16.464 -0.9878 -1.4475  0.9536
19138TIP3    H278906   0.842   1.143  16.448 -0.8932 -1.3018  1.1860
19139TIP3   OH278907   1.025   5.326   0.317  0.6143 -0.3543  0.3600
19139TIP3    H178908   0.933   5.324   0.291  0.5090 -0.0889  0.7038
19139TIP3    H278909   1.030   5.397   0.381  1.1959  0.1071 -0.1923
19140TIP3   OH278910   3.407   5.428   6.799  0.0933  0.0327 -0.2882
19140TIP3    H178911   3.469   5.491   6.835 -1.5296  1.0528  0.7814
19140TIP3    H278912   3.455   5.345   6.796  1.2536  0.6317  1.2548
19141TIP3   OH278913   4.848   5.547  10.963  0.1503 -0.2223 -0.3755
19141TIP3    H178914   4.825   5.606  11.034  0.3575  1.8895 -2.0010
19141TIP3    H278915   4.776   5.556  10.900  0.8300 -0.6692 -1.2390
19142TIP3   OH278916   0.048   1.583  11.603 -0.1239 -0.1993 -0.0609
19142TIP3    H178917   0.012   1.588  11.692  0.2022  2.3013 -0.0318
19142TIP3    H278918  -0.028   1.568  11.547 -0.7791  1.5515  0.3344
19143TIP3   OH278919   2.429   5.054  15.558 -0.1092  0.4090  0.1065
19143TIP3    H178920   2.358   4.992  15.539 -0.2565  0.7234 -0.3701
19143TIP3    H278921   2.481   5.010  15.626  1.3607 -1.4944 -2.1430
19144TIP3   OH278922   0.977   2.278  13.355 -0.2362 -0.1277 -0.1186
19144TIP3    H178923   0.974   2.183  13.365 -1.5725 -0.1458 -0.5889
19144TIP3    H278924   0.917   2.297  13.283  1.3935  0.9194 -1.2521
19145TIP3   OH278925   0.379   5.896   4.777 -0.0090  0.2047  0.3756
19145TIP3    H178926   0.349   5.985   4.758 -1.1033 -0.1744  0.2773
19145TIP3    H278927   0.454   5.907   4.835  2.4501  1.3444 -2.8779
19146TIP3   OH278928   4.047   0.862   6.810  0.0272  0.0182  0.2614
19146TIP3    H178929   3.952   0.857   6.801 -0.0171  0.2687  0.5876
19146TIP3    H278930   4.073   0.934   6.753 -0.1225  0.8082  1.1858
19147TIP3   OH278931   1.220   5.319   0.983 -0.7789  0.0026  0.1607
19147TIP3    H178932   1.280   5.347   1.052  0.8002 -1.3830 -0.6235
19147TIP3    H278933   1.276   5.306   0.907 -2.1294 -1.0182 -0.6686
19148TIP3   OH278934   2.005   4.195  13.249 -0.3409 -0.1212  0.3360
19148TIP3    H178935   1.969   4.262  13.191 -0.2317 -0.2858  0.0785
19148TIP3    H278936   2.046   4.132  13.190 -2.2717 -1.5070  0.4499
19149TIP3   OH278937   4.544   5.102  11.163 -0.4867 -0.3045 -0.0798
19149TIP3    H178938   4.499   5.187  11.154 -1.3852 -0.7797 -0.1084
19149TIP3    H278939   4.534   5.061  11.077  0.9580  0.0473 -0.4237
19150TIP3   OH278940   5.678   2.499  11.856 -0.3345 -0.1408 -0.0265
19150TIP3    H178941   5.645   2.508  11.945  0.0726  0.1006  0.0958
19150TIP3    H278942   5.655   2.409  11.831 -2.9844  0.6785 -0.7026
19151TIP3   OH278943   5.423   2.987  11.969  0.0542  0.5661 -0.3169
19151TIP3    H178944   5.439   2.892  11.966 -0.5312  0.4628 -0.3036
19151TIP3    H278945   5.335   2.995  12.005  1.2561  1.2393  2.5482
19152TIP3   OH278946   2.162   2.818  14.555  0.5577 -0.0087 -0.3390
19152TIP3    H178947   2.173   2.907  14.522 -0.4865  0.7524  1.3405
19152TIP3    H278948   2.110   2.774  14.487 -0.9506  1.3424 -0.0986
19153TIP3   OH278949   1.682   1.842   3.538  0.6154  0.1566 -0.0028
19153TIP3    H178950   1.610   1.871   3.594  0.6910  0.4230 -0.0427
19153TIP3    H278951   1.669   1.748   3.530 -0.3963  0.3664 -0.9533
19154TIP3   OH278952   1.461   0.992  12.622 -0.3695  0.2403  0.5001
19154TIP3    H178953   1.438   1.055  12.554 -1.1852 -2.1880 -1.6020
19154TIP3    H278954   1.551   1.014  12.646 -0.2803  1.5519 -0.9453
19155TIP3   OH278955   5.749   5.707  15.087 -0.4576 -0.3180 -0.6079
19155TIP3    H178956   5.662   5.710  15.046 -0.5106  0.9574 -0.3973
19155TIP3    H278957   5.736   5.746  15.174  0.4156  0.2626 -0.7351
19156TIP3   OH278958   5.639   5.063  15.515 -0.1965 -0.2916  0.6307
19156TIP3    H178959   5.565   5.117  15.488  0.0608  0.2125  0.9226
19156TIP3    H278960   5.617   4.975  15.485 -1.0197 -0.1877  0.9205
19157TIP3   OH278961   3.104   6.435   2.722  0.6766  0.1413 -0.5282
19157TIP3    H178962   3.053   6.433   2.803  0.3484 -2.8939 -0.7506
19157TIP3    H278963   3.044   6.471   2.657 -0.4002 -1.0866 -0.2393
19158TIP3   OH278964   5.243   4.091   3.411 -0.0454  0.0224 -0.2850
19158TIP3    H178965   5.320   4.135   3.447 -1.4588  0.2803  2.6138
19158TIP3    H278966   5.274   4.048   3.332  2.4481  2.3406 -0.6196
19159TIP3   OH278967   2.704   6.258   5.106  0.0365 -0.6279 -0.0616
19159TIP3    H178968   2.703   6.316   5.182  0.6828 -1.2593  0.4324
19159TIP3    H278969   2.679   6.314   5.033  0.6935  0.2837  0.4073
19160TIP3   OH278970   3.606   0.921  16.890 -0.4106 -0.0454 -0.3269
19160TIP3    H178971   3.656   1.002  16.884 -2.2316  1.1893  0.9163
19160TIP3    H278972   3.668   0.858  16.927  0.4445  1.2896  0.5585
19161TIP3   OH278973   4.920   4.373   4.793  0.0798 -1.2083  0.0590
19161TIP3    H178974   4.978   4.424   4.736 -1.8368 -0.6514 -1.4464
19161TIP3    H278975   4.949   4.283   4.782  0.7653 -0.9202 -0.5548
19162TIP3   OH278976   4.843   1.598   5.421  0.3166 -0.2906 -0.5492
19162TIP3    H178977   4.835   1.612   5.515 -0.0082  0.9170 -0.7468
19162TIP3    H278978   4.799   1.514   5.405  1.6213 -1.2092  0.5633
19163TIP3   OH278979   6.137   6.768   0.072  0.0121  0.3125 -0.4480
19163TIP3    H178980   6.136   6.693   0.013  0.0244 -0.7152  0.8237
19163TIP3    H278981   6.217   6.755   0.124  0.1303  1.3321 -0.3657
19164TIP3   OH278982   5.889   2.675  14.311 -0.3574  0.0618 -0.7851
19164TIP3    H178983   5.969   2.724  14.295  0.9530 -1.9944 -0.7061
19164TIP3    H278984   5.878   2.619  14.234 -1.3259 -0.1924 -0.4790
19165TIP3   OH278985   6.512   6.256  16.273 -0.2748  0.1649 -0.4144
19165TIP3    H178986   6.514   6.300  16.359  0.1788 -0.4113 -0.1255
19165TIP3    H278987   6.550   6.321  16.213  1.7315 -0.3319  0.2579
19166TIP3   OH278988   6.531   3.834   0.168 -0.3401  0.3100  0.5154
19166TIP3    H178989   6.610   3.792   0.204 -0.7779 -0.3436  0.7088
19166TIP3    H278990   6.466   3.826   0.237 -0.7670  0.2986  0.1096
19167TIP3   OH278991   5.676   3.818  11.496 -0.0930 -0.1644 -0.4465
19167TIP3    H178992   5.619   3.837  11.421 -2.0755 -3.3057  0.1754
19167TIP3    H278993   5.651   3.883  11.562 -0.2410  0.9066 -1.5330
19168TIP3   OH278994   5.906   6.494   1.485 -0.3026  0.4604 -0.2242
19168TIP3    H178995   5.908   6.398   1.478 -1.2464  0.4866 -0.8631
19168TIP3    H278996   5.998   6.518   1.500 -0.2654 -0.6524  1.5391
19169TIP3   OH278997   4.453   6.340   4.621 -0.9739  0.1514  0.0553
19169TIP3    H178998   4.361   6.313   4.616 -1.1891  0.3961  2.2682
19169TIP3    H278999   4.500   6.260   4.646 -0.7746  0.3487  0.3128
19170TIP3   OH279000   3.412   6.306   2.132  0.0522  0.2367 -0.1459
19170TIP3    H179001   3.362   6.303   2.051  0.5171  0.8605 -0.4610
19170TIP3    H279002   3.479   6.239   2.122  0.8876  1.1608 -0.7999
19171TIP3   OH279003   1.733   4.874  13.918  0.6599  0.4342 -0.1045
19171TIP3    H179004   1.761   4.786  13.891 -0.1772  0.2486 -0.3745
19171TIP3    H279005   1.656   4.892  13.864  0.0843  0.8272  0.8333
19172TIP3   OH279006   0.673   5.652  10.905  0.6025 -0.0713  0.1140
19172TIP3    H179007   0.710   5.687  10.823  0.8422 -2.2021 -0.7033
19172TIP3    H279008   0.716   5.567  10.916 -1.2483 -0.8836  1.1606
19173TIP3   OH279009   6.003   6.219   0.938  0.5010  0.2639  0.2526
19173TIP3    H179010   6.053   6.268   0.872 -1.4799  0.7378 -0.9133
19173TIP3    H279011   5.957   6.152   0.888  0.4014 -0.5351  1.3974
19174TIP3   OH279012   3.941   0.977   0.751  0.0111 -0.5147 -0.2884
19174TIP3    H179013   3.854   1.009   0.726  1.4254  3.0802 -0.9501
19174TIP3    H279014   3.995   0.992   0.673  1.5215 -1.4622  0.5635
19175TIP3   OH279015   6.373   6.012   1.967 -0.1643  0.1355 -0.0893
19175TIP3    H179016   6.313   6.045   1.899  0.0238  0.2523 -0.1992
19175TIP3    H279017   6.460   6.036   1.935 -0.1814  1.8063  1.0554
19176TIP3   OH279018   4.455   1.565   4.617  0.4987  0.3793 -0.3328
19176TIP3    H179019   4.445   1.651   4.576  1.2073 -0.5000 -2.3770
19176TIP3    H279020   4.368   1.545   4.652  0.0819  1.4751 -0.7095
19177TIP3   OH279021   4.643   3.524  15.644  0.1011  0.2982 -0.1745
19177TIP3    H179022   4.624   3.585  15.716 -2.0091  2.1923 -2.2572
19177TIP3    H279023   4.614   3.439  15.677  0.1433  0.9376  1.5921
19178TIP3   OH279024   2.239   1.232  15.081 -0.4098 -0.6062 -0.2978
19178TIP3    H179025   2.244   1.310  15.135  0.0253 -1.1186  0.4200
19178TIP3    H279026   2.146   1.222  15.061 -0.1800  1.6602 -2.7627
19179TIP3   OH279027   2.179   2.494  15.895 -0.2593 -0.6784 -0.0581
19179TIP3    H179028   2.100   2.496  15.950  0.0410  1.1831  0.3292
19179TIP3    H279029   2.164   2.421  15.835 -3.0968  0.7317 -1.1699
19180TIP3   OH279030   1.277   4.635   2.325  0.5739  0.0488 -0.1141
19180TIP3    H179031   1.316   4.557   2.285  0.3826 -0.6707  1.0843
19180TIP3    H279032   1.328   4.648   2.405  1.7684  2.2078 -1.1707
19181TIP3   OH279033   1.064   1.727   1.843  0.1963 -0.5896  0.3708
19181TIP3    H179034   1.099   1.649   1.887  0.8065 -0.2486  0.4856
19181TIP3    H279035   0.983   1.746   1.891  0.1723 -1.0015  0.5033
19182TIP3   OH279036   6.473   0.243   6.561  0.0568 -0.3449  0.2651
19182TIP3    H179037   6.561   0.215   6.535 -0.4815 -0.0561 -2.0102
19182TIP3    H279038   6.414   0.180   6.519 -0.9522  1.3654 -0.9650
19183TIP3   OH279039   0.027   6.592  14.673 -0.6848 -0.3268 -0.3216
19183TIP3    H179040   0.095   6.654  14.646 -2.1931  0.9634 -1.1962
19183TIP3    H279041   0.002   6.620  14.761  0.3340 -1.1872  0.2592
19184TIP3   OH279042   4.050   4.123   2.605 -0.1014  0.4448 -0.4217
19184TIP3    H179043   4.104   4.058   2.560 -1.5228 -1.8617  1.1252
19184TIP3    H279044   4.112   4.176   2.655  0.9698 -0.4370 -0.8010
19185TIP3   OH279045   5.867   1.116  14.455  0.0224 -0.0151  0.6282
19185TIP3    H179046   5.859   1.212  14.462 -0.3647 -0.0070  0.0655
19185TIP3    H279047   5.961   1.101  14.448 -0.0021  0.4389 -0.8736
19186TIP3   OH279048   0.330   3.234   3.044  0.0701  0.5213  0.4919
19186TIP3    H179049   0.372   3.149   3.056  1.1617  1.2388  1.9112
19186TIP3    H279050   0.376   3.273   2.969 -1.5639 -0.7936 -1.2511
19187TIP3   OH279051   2.866   3.163  16.093  0.2310  0.4303  0.4525
19187TIP3    H179052   2.942   3.126  16.048  0.8209  0.5059  1.3596
19187TIP3    H279053   2.792   3.111  16.063  0.6259  0.4170 -0.5213
19188TIP3   OH279054   5.941   5.434  13.405 -0.2920  0.6073 -0.8440
19188TIP3    H179055   5.918   5.526  13.390  0.1819  0.8970  0.2319
19188TIP3    H279056   5.894   5.410  13.484  1.0709  0.4655 -0.0629
19189TIP3   OH279057   2.845   5.400   5.865  0.3883  0.0037  0.1308
19189TIP3    H179058   2.779   5.457   5.826 -2.4145 -2.9884  0.2867
19189TIP3    H279059   2.864   5.439   5.950 -1.1150  0.9918  0.0194
19190TIP3   OH279060   4.755   0.676   5.206  0.0036  0.4352  0.0727
19190TIP3    H179061   4.742   0.683   5.301  0.8903 -2.1326  0.4259
19190TIP3    H279062   4.821   0.743   5.187  0.5068  0.3588  1.4384
19191TIP3   OH279063   3.156   1.852  15.531  0.1106  0.2561 -0.6658
19191TIP3    H179064   3.236   1.871  15.483  1.3542 -1.4138  0.6958
19191TIP3    H279065   3.155   1.756  15.539 -2.7653  0.1266 -1.9261
19192TIP3   OH279066   6.239   4.809  16.939  0.3429  0.0937 -0.6835
19192TIP3    H179067   6.312   4.747  16.934  0.2077 -0.1882  0.6602
19192TIP3    H279068   6.169   4.760  16.983  0.1662  1.1392  0.2094
19193TIP3   OH279069   3.519   4.266  12.864  0.0325  0.4880  0.3259
19193TIP3    H179070   3.574   4.188  12.856 -1.4121 -0.5348  0.0180
19193TIP3    H279071   3.483   4.279  12.777 -1.7995 -0.0820  0.9751
19194TIP3   OH279072   4.185   0.005  13.374 -0.0925  0.3705 -0.2502
19194TIP3    H179073   4.216  -0.078  13.411  0.6611  0.3092 -1.0151
19194TIP3    H279074   4.105   0.024  13.424 -0.9716 -1.4381 -0.8882
19195TIP3   OH279075   6.578   4.230  11.507 -0.1755  0.1460  0.2714
19195TIP3    H179076   6.593   4.235  11.601 -0.6987  0.0143  0.3637
19195TIP3    H279077   6.594   4.139  11.484  0.5636  0.3023  0.1172
19196TIP3   OH279078   2.493   4.650   0.905  0.5760  0.7890  0.3149
19196TIP3    H179079   2.459   4.699   0.980 -0.7746  0.1720  0.1246
19196TIP3    H279080   2.462   4.699   0.829 -1.1227 -0.5310  0.1138
19197TIP3   OH279081   3.891   3.245   3.712  0.3520  0.1874  0.4840
19197TIP3    H179082   3.978   3.239   3.673  0.7746  0.7470  1.3198
19197TIP3    H279083   3.865   3.336   3.698 -0.7116 -0.3286 -1.0297
19198TIP3   OH279084   4.576   6.386  14.063 -0.0797 -0.3667 -0.0841
19198TIP3    H179085   4.645   6.433  14.110  1.7384 -1.6927 -1.3502
19198TIP3    H279086   4.494   6.421  14.098  1.2195 -0.1553  2.8672
19199TIP3   OH279087   3.956   5.391  15.903 -0.0149  0.5602 -0.1201
19199TIP3    H179088   4.023   5.392  15.971 -3.3564  1.1181  3.3177
19199TIP3    H279089   3.940   5.298  15.886 -0.0754  0.4168  0.7428
19200TIP3   OH279090   2.093   0.529   2.768 -0.1050  0.3121 -0.8979
19200TIP3    H179091   2.008   0.571   2.770  0.4947  1.5324 -0.9300
19200TIP3    H279092   2.079   0.444   2.811 -1.6302 -0.0823 -2.1137
19201TIP3   OH279093   1.469   2.384  12.706  0.0291 -0.2813  0.6694
19201TIP3    H179094   1.456   2.421  12.619  2.1325  2.4938  1.4311
19201TIP3    H279095   1.460   2.290  12.694 -2.4313  0.2359 -1.9997
19202TIP3   OH279096   2.469   2.409  12.867 -0.1259 -0.7218 -0.0922
19202TIP3    H179097   2.554   2.454  12.863 -1.4820  1.8005 -2.8685
19202TIP3    H279098   2.437   2.425  12.956  1.0583  0.7238  0.0941
19203TIP3   OH279099   3.043   4.122  12.974  0.1213 -0.1399 -0.1089
19203TIP3    H179100   3.099   4.200  12.971 -0.1760  0.0447 -0.9560
19203TIP3    H279101   3.052   4.089  13.064  1.0026  0.3176 -0.0286
19204TIP3   OH279102   4.203   1.270  17.065  0.9372  0.2871  0.0307
19204TIP3    H179103   4.214   1.222  16.983 -1.4647 -1.0608  0.4302
19204TIP3    H279104   4.258   1.347  17.055  1.1907 -0.1724 -2.5888
19205TIP3   OH279105   4.458   1.209   4.760 -0.1547 -0.2355  0.0375
19205TIP3    H179106   4.374   1.210   4.806  0.9815 -0.2310  2.1711
19205TIP3    H279107   4.510   1.276   4.804  1.2628 -0.8062 -0.7400
19206TIP3   OH279108   3.952   6.721  17.225 -0.2522  0.1939  0.0919
19206TIP3    H179109   3.939   6.642  17.172  1.9143  1.2927 -2.2291
19206TIP3    H279110   3.960   6.689  17.314  0.5132 -2.2352 -0.7975
19207TIP3   OH279111   4.232   0.381   0.558  0.7150 -0.1416 -0.5912
19207TIP3    H179112   4.155   0.401   0.504  1.2058  0.2042 -1.1786
19207TIP3    H279113   4.279   0.464   0.563  1.2605 -0.4534 -0.5778
19208TIP3   OH279114   1.231   0.024  15.812  0.2824  0.8597 -0.5673
19208TIP3    H179115   1.326   0.019  15.809  0.2486 -1.2024  0.6896
19208TIP3    H279116   1.209   0.023  15.905 -1.0489 -0.9037 -0.8671
19209TIP3   OH279117   0.515   1.338  10.575  0.0254 -0.2437  0.0812
19209TIP3    H179118   0.538   1.347  10.482 -0.0024  1.8283  0.2716
19209TIP3    H279119   0.424   1.308  10.574  0.2262 -0.8685 -0.5502
19210TIP3   OH279120   0.282   2.740   1.412 -0.1325 -0.3819  0.1883
19210TIP3    H179121   0.371   2.728   1.444 -0.0814  0.2367  0.2851
19210TIP3    H279122   0.232   2.766   1.490 -0.7382 -2.3430  0.4697
19211TIP3   OH279123   6.333   4.144   5.879 -0.8636 -0.2864 -0.8811
19211TIP3    H179124   6.377   4.131   5.963 -0.0593 -1.9427 -1.5466
19211TIP3    H279125   6.343   4.238   5.861 -0.2730 -0.0825  0.4356
19212TIP3   OH279126   2.002   3.261   4.445  0.4988 -0.6638  0.1496
19212TIP3    H179127   1.954   3.186   4.410  0.2888 -0.3473 -0.2481
19212TIP3    H279128   2.035   3.231   4.530 -2.8782  0.0672  1.7764
19213TIP3   OH279129   2.964   0.170  15.454  0.1593 -0.3365  0.3413
19213TIP3    H179130   2.978   0.093  15.510 -1.7750 -0.5453  0.5983
19213TIP3    H279131   2.881   0.152  15.410  0.2499  1.1138 -0.4431
19214TIP3   OH279132   1.455   4.822   5.874  0.3096 -0.2141  0.2713
19214TIP3    H179133   1.512   4.797   5.946  0.2530  1.4307  0.9166
19214TIP3    H279134   1.375   4.855   5.916 -0.4583 -0.9221 -0.5872
19215TIP3   OH279135   6.052   2.353   5.538 -0.6108  0.0987 -0.3387
19215TIP3    H179136   6.029   2.386   5.625 -2.1587  0.6579 -0.9347
19215TIP3    H279137   6.039   2.428   5.480 -0.3322 -0.4816 -1.1574
19216TIP3   OH279138   3.077   6.810   2.409 -0.1465 -0.0211  0.6026
19216TIP3    H179139   3.078   6.764   2.325 -0.7163  0.9289  0.0620
19216TIP3    H279140   3.149   6.773   2.459 -2.1591 -3.3405  1.1728
19217TIP3   OH279141   4.356   5.901  11.508  0.8378 -0.3047  0.4424
19217TIP3    H179142   4.353   5.898  11.604  2.0595  0.8898  0.5301
19217TIP3    H279143   4.271   5.935  11.483  0.1724 -1.4836  1.0586
19218TIP3   OH279144   4.266   1.177  16.151 -0.1692  0.4709  0.0744
19218TIP3    H179145   4.191   1.203  16.098  0.1768 -1.3721 -1.3502
19218TIP3    H279146   4.342   1.208  16.102  0.1635 -1.3980 -0.6012
19219TIP3   OH279147   0.945   5.131  13.735  0.4879  0.5435  0.2573
19219TIP3    H179148   0.915   5.052  13.690  1.1750  0.5389 -0.2190
19219TIP3    H279149   1.002   5.099  13.805  2.4685  0.6403 -1.2289
19220TIP3   OH279150   5.461   6.603   2.124 -0.2203  0.2296  0.2458
19220TIP3    H179151   5.474   6.691   2.089 -0.0537 -0.3846 -1.2987
19220TIP3    H279152   5.368   6.598   2.143 -0.1581  0.8727  0.7237
19221TIP3   OH279153   6.065   1.260  17.032 -0.3579  0.1038 -0.7503
19221TIP3    H179154   6.017   1.323  16.978 -1.3100 -0.1624 -0.2426
19221TIP3    H279155   5.997   1.221  17.087  0.7274  1.0169  1.2767
19222TIP3   OH279156   4.238   2.619   3.902 -0.2067 -0.2227 -0.0281
19222TIP3    H179157   4.292   2.570   3.965  0.3547  0.3626 -0.0468
19222TIP3    H279158   4.186   2.552   3.858  0.8208 -0.8436 -0.3136
19223TIP3   OH279159   6.423   3.181   3.728 -0.5231 -0.5865  0.5402
19223TIP3    H179160   6.499   3.126   3.748 -0.1127 -0.0366  0.5141
19223TIP3    H279161   6.348   3.129   3.754 -0.0456 -0.1560  2.9370
19224TIP3   OH279162   4.999   3.443   5.059  0.1067  0.1216 -0.1667
19224TIP3    H179163   4.905   3.434   5.045  0.2623 -0.1053 -1.0539
19224TIP3    H279164   5.018   3.383   5.131 -0.6605  1.2219  0.9991
19225TIP3   OH279165   2.966   1.727   1.088 -0.7778 -0.3653  0.1700
19225TIP3    H179166   2.968   1.631   1.097 -1.0010 -0.4636 -0.7401
19225TIP3    H279167   2.994   1.743   0.998 -1.3981  0.3890  0.1037
19226TIP3   OH279168   4.533   2.322   3.032  0.6585 -0.0582 -0.4153
19226TIP3    H179169   4.620   2.337   3.069  0.9552  0.4438 -1.3108
19226TIP3    H279170   4.514   2.231   3.053  1.0590  0.0629  0.4880
19227TIP3   OH279171   1.303   6.485   4.082 -0.1421  0.1266 -0.3054
19227TIP3    H179172   1.348   6.408   4.048 -3.0941 -1.1957 -1.2983
19227TIP3    H279173   1.217   6.484   4.040 -1.4542  2.1288  2.1876
19228TIP3   OH279174   3.297   1.683   3.137 -0.1059 -0.0840  0.2943
19228TIP3    H179175   3.294   1.753   3.071 -0.8565 -0.1472  0.2669
19228TIP3    H279176   3.250   1.610   3.098 -0.5398 -0.1281  0.8951
19229TIP3   OH279177   1.095   4.668   3.505  0.0909 -0.0384  0.4319
19229TIP3    H179178   1.004   4.640   3.517  0.9628 -3.0848  0.2360
19229TIP3    H279179   1.089   4.763   3.492 -2.7394  0.3948  3.9478
19230TIP3   OH279180   6.053   5.991  17.174 -0.6708 -0.3218 -0.4106
19230TIP3    H179181   5.957   5.987  17.178 -0.7736  1.4853 -0.9212
19230TIP3    H279182   6.080   5.899  17.182 -2.4844 -0.9974 -1.5600
19231TIP3   OH279183   1.054   6.013  12.834 -0.3888 -0.0018  0.6616
19231TIP3    H179184   0.979   5.971  12.791  0.4137 -1.0553  0.2794
19231TIP3    H279185   1.081   5.950  12.900  0.4279  0.1950  0.5134
19232TIP3   OH279186   6.292   4.300  12.545  0.5414 -0.0982  0.1895
19232TIP3    H179187   6.380   4.293  12.509  0.2056  0.5511 -0.7684
19232TIP3    H279188   6.236   4.315  12.469 -0.3130  0.1579  0.8664
19233TIP3   OH279189   0.788   0.564   2.489 -0.2071 -0.0561  0.1839
19233TIP3    H179190   0.882   0.568   2.468 -0.3687  1.6504 -0.2603
19233TIP3    H279191   0.770   0.470   2.497  1.3855 -0.4392 -0.4086
19234TIP3   OH279192   6.573   5.219  15.127 -0.0340 -0.0689 -0.5641
19234TIP3    H179193   6.532   5.305  15.138  0.6536  0.3211 -0.9572
19234TIP3    H279194   6.506   5.156  15.153 -1.2319  0.4992 -2.1842
19235TIP3   OH279195   0.801   0.996   5.565 -0.3635  0.0516  0.6144
19235TIP3    H179196   0.851   1.049   5.503 -1.0716 -1.4536 -1.2951
19235TIP3    H279197   0.790   1.053   5.641  2.3080  1.2104  0.2045
19236TIP3   OH279198   2.369   0.415   5.578  0.5251 -0.2819  0.1190
19236TIP3    H179199   2.311   0.412   5.502 -1.1328 -0.0210  1.3296
19236TIP3    H279200   2.400   0.325   5.589  0.7298 -0.3310 -0.8243
19237TIP3   OH279201   0.637   4.395  10.788  0.0222  0.0929  0.1018
19237TIP3    H179202   0.595   4.325  10.739  0.8296 -0.2215 -0.1456
19237TIP3    H279203   0.716   4.417  10.738 -1.1811  2.4933 -0.8498
19238TIP3   OH279204   0.956   5.484   3.410 -0.6162  0.0177  0.4007
19238TIP3    H179205   0.938   5.497   3.317  0.1867 -0.9820  0.0927
19238TIP3    H279206   0.992   5.395   3.415  0.1196  0.3668  1.5510
19239TIP3   OH279207   4.937   1.717  12.388 -0.2976 -0.7701  0.9122
19239TIP3    H179208   4.889   1.780  12.442  0.8667  1.2073 -0.3221
19239TIP3    H279209   4.882   1.706  12.310  0.0991 -0.3464  0.5745
19240TIP3   OH279210   6.015   0.338  13.201 -0.0628  0.4099  0.4097
19240TIP3    H179211   6.087   0.396  13.228 -0.7313  0.4566  2.1478
19240TIP3    H279212   6.006   0.276  13.273  0.5783 -1.8245 -1.3941
19241TIP3   OH279213   6.711   1.193   1.622 -0.2182 -0.1987  0.0503
19241TIP3    H179214   6.656   1.145   1.560 -2.2103  1.5370  0.4067
19241TIP3    H279215   6.734   1.127   1.688 -1.2969 -1.1424 -0.4891
19242TIP3   OH279216   6.474   2.078  17.158 -0.1188  0.2674 -0.1553
19242TIP3    H179217   6.461   2.157  17.106  1.8692  0.8695  0.2109
19242TIP3    H279218   6.397   2.025  17.141 -1.1546  1.9890 -0.9444
19243TIP3   OH279219   2.471   4.822   3.984  0.2283 -0.1253 -0.3129
19243TIP3    H179220   2.437   4.910   3.969 -1.3374 -0.8035 -0.7927
19243TIP3    H279221   2.406   4.764   3.944  1.0916 -1.5167  0.2793
19244TIP3   OH279222   6.548   2.881  11.606  0.2187  0.2358 -0.0434
19244TIP3    H179223   6.474   2.923  11.562  1.7377  3.7055  0.5453
19244TIP3    H279224   6.579   2.815  11.544 -2.8353 -0.7192 -0.6190
19245TIP3   OH279225   1.891   3.830  10.277 -0.3600  1.0646 -0.2335
19245TIP3    H179226   1.833   3.900  10.309 -0.6302 -0.1578  2.0844
19245TIP3    H279227   1.831   3.767  10.237 -0.1127  2.1434 -2.3547
19246TIP3   OH279228   3.545   6.205   3.247  0.0821  0.3378 -0.5636
19246TIP3    H179229   3.510   6.244   3.327  0.7752  1.6150 -0.8791
19246TIP3    H279230   3.471   6.204   3.186  0.0471  1.1334 -0.5409
19247TIP3   OH279231   1.063   2.664   6.048 -0.3309  0.0488 -0.1233
19247TIP3    H179232   1.031   2.754   6.040 -1.9449 -0.5423 -0.6128
19247TIP3    H279233   1.054   2.628   5.960 -2.4225 -1.4513  0.6647
19248TIP3   OH279234   0.253   6.137  14.081  0.1531 -0.0699  0.6747
19248TIP3    H179235   0.208   6.115  14.163 -3.9495  1.6037 -1.0253
19248TIP3    H279236   0.275   6.230  14.091 -0.0524  0.0485 -0.0250
19249TIP3   OH279237   1.645   1.655  13.149 -0.6443 -0.0089 -0.7008
19249TIP3    H179238   1.564   1.605  13.139  0.1687 -1.4377 -0.2135
19249TIP3    H279239   1.615   1.742  13.177 -2.1197  0.0888 -2.5054
19250TIP3   OH279240   1.617   2.344  15.457  0.0948 -0.4270 -0.0207
19250TIP3    H179241   1.690   2.285  15.475  0.2734 -0.1472  0.1698
19250TIP3    H279242   1.658   2.426  15.430 -0.1106  0.3045  1.8285
19251TIP3   OH279243   3.556   4.875   4.351  0.5929 -0.2302  1.2777
19251TIP3    H179244   3.645   4.840   4.346  0.0088 -1.8488  1.8123
19251TIP3    H279245   3.506   4.824   4.288  0.1010  0.9375  0.6963
19252TIP3   OH279246   5.046   6.219  16.227  0.3508 -0.4043 -0.3477
19252TIP3    H179247   5.036   6.281  16.155 -0.7745  0.0305  0.1764
19252TIP3    H279248   4.959   6.182  16.240  0.6895 -0.9954  0.3341
19253TIP3   OH279249   4.690   2.188   4.130 -0.2688  0.1650  0.1652
19253TIP3    H179250   4.685   2.124   4.060 -0.5819  0.6868 -0.2948
19253TIP3    H279251   4.783   2.196   4.149 -0.0378  1.2283 -1.3182
19254TIP3   OH279252   4.713   5.546   5.686  0.1359 -0.3521  0.4104
19254TIP3    H179253   4.803   5.520   5.669  0.3817  0.4864  0.4465
19254TIP3    H279254   4.662   5.466   5.670  0.6186 -0.2292 -1.9635
19255TIP3   OH279255   1.122   1.808  13.863  0.2030  0.3234  0.0099
19255TIP3    H179256   1.172   1.870  13.809 -0.1640 -0.2028 -0.9513
19255TIP3    H279257   1.051   1.780  13.806  0.7421 -1.4902  0.2080
19256TIP3   OH279258   2.492   5.828   4.273 -0.3138  0.0257  0.1998
19256TIP3    H179259   2.576   5.872   4.262 -0.3279  0.1153  0.4387
19256TIP3    H279260   2.514   5.735   4.274 -0.1911  0.0543  0.4552
19257TIP3   OH279261   0.225   5.394  10.486 -0.7491  0.2276 -0.2774
19257TIP3    H179262   0.310   5.360  10.458 -0.7495 -1.4955  1.6331
19257TIP3    H279263   0.207   5.466  10.426  1.3671 -0.3189 -1.6512
19258TIP3   OH279264   0.428   1.488   4.907 -0.2865  0.0076  0.1425
19258TIP3    H179265   0.402   1.575   4.938 -0.9350  0.1082 -0.6889
19258TIP3    H279266   0.480   1.505   4.829 -0.2322 -0.3497  0.0999
19259TIP3   OH279267   1.221   2.321  16.901 -0.2426  0.0848 -0.0402
19259TIP3    H179268   1.220   2.262  16.826 -1.9742 -0.0362  0.0530
19259TIP3    H279269   1.129   2.325  16.929  0.4052 -0.0351  2.1869
19260TIP3   OH279270   5.781   4.506  12.117  0.3129  0.5112  0.2207
19260TIP3    H179271   5.830   4.498  12.035  0.3832 -2.8056  0.4999
19260TIP3    H279272   5.840   4.552  12.176  2.2161 -1.2777 -0.1985
19261TIP3   OH279273   5.198   0.043  16.552 -0.4284 -0.1701  0.4647
19261TIP3    H179274   5.289   0.016  16.567 -0.7301 -1.6762 -0.3246
19261TIP3    H279275   5.147  -0.013  16.610 -0.7962  1.3902  1.6863
19262TIP3   OH279276   3.532   0.414   4.728  0.7682  0.3804 -0.6732
19262TIP3    H179277   3.542   0.326   4.691  2.5965  0.3059 -0.0717
19262TIP3    H279278   3.452   0.410   4.780  0.4104 -0.7048 -1.3042
19263TIP3   OH279279   4.825   4.819  15.140 -0.5109 -0.1115 -0.2088
19263TIP3    H179280   4.842   4.747  15.080 -0.2745  0.3975 -0.7491
19263TIP3    H279281   4.842   4.898  15.089  1.2081  0.3063  0.9828
19264TIP3   OH279282   6.789   5.667   2.599 -0.1814 -0.3571 -0.3831
19264TIP3    H179283   6.769   5.699   2.687 -2.8438  0.0428 -1.0621
19264TIP3    H279284   6.793   5.572   2.607  2.2218 -0.2041  0.6233
19265TIP3   OH279285   1.430   1.498   1.110  0.1364  0.1783  0.1643
19265TIP3    H179286   1.347   1.493   1.157  0.3433 -0.4413  0.4707
19265TIP3    H279287   1.442   1.411   1.073  0.8358  0.1500  0.4403
19266TIP3   OH279288   0.357   4.683   2.035  0.3082 -0.5412 -0.0550
19266TIP3    H179289   0.291   4.636   2.086 -0.8371 -1.1368 -2.0338
19266TIP3    H279290   0.313   4.707   1.954  1.9655  0.7725 -0.6117
19267TIP3   OH279291   6.655   2.205  13.057  0.5349 -0.0613 -0.1618
19267TIP3    H179292   6.568   2.184  13.092  0.8156  0.2730  0.7555
19267TIP3    H279293   6.697   2.120  13.045  0.6300 -0.1682  0.8466
19268TIP3   OH279294   6.805   0.486  11.404 -0.1598  0.4220 -0.1872
19268TIP3    H179295   6.744   0.558  11.420  1.2149  0.9837  2.7281
19268TIP3    H279296   6.865   0.520  11.337 -1.6215  0.6716 -1.4040
19269TIP3   OH279297   0.176   4.945   6.113 -0.2324  0.0203 -0.4771
19269TIP3    H179298   0.091   4.988   6.113 -0.1754  0.2037  2.1838
19269TIP3    H279299   0.239   5.015   6.132  0.2012 -0.6351  0.5207
19270TIP3   OH279300   6.655   1.259   3.164  0.3143  0.1650  0.4226
19270TIP3    H179301   6.624   1.297   3.082 -0.9819 -0.6819  0.4968
19270TIP3    H279302   6.693   1.175   3.138  1.8536  0.8515  0.4315
19271TIP3   OH279303   1.116   5.564  11.903  0.4004 -0.1620 -0.4721
19271TIP3    H179304   1.083   5.573  11.992  1.1452 -1.3916 -0.0617
19271TIP3    H279305   1.038   5.543  11.851  0.1069 -0.4130  0.0581
19272TIP3   OH279306   4.913   2.698  11.295  0.1335 -0.2021 -0.2475
19272TIP3    H179307   4.871   2.613  11.287 -0.7196  0.2066 -0.1281
19272TIP3    H279308   4.874   2.751  11.226  1.8169 -0.3608 -1.3638
19273TIP3   OH279309   6.655   3.694  10.985  0.0562 -0.0950 -0.0282
19273TIP3    H179310   6.651   3.768  11.046  1.2110 -0.4909  0.5411
19273TIP3    H279311   6.568   3.690  10.946 -0.2019  1.1681  0.4146
19274TIP3   OH279312   4.478   1.813   4.497  0.0973 -0.1132  0.4326
19274TIP3    H179313   4.389   1.833   4.526  0.6587  0.5095  1.7241
19274TIP3    H279314   4.509   1.894   4.456  0.8500  0.3525  1.9120
19275TIP3   OH279315   3.854   3.981   4.988 -0.6668 -0.1448  0.0644
19275TIP3    H179316   3.932   3.934   4.958  0.3224  0.5441  1.4621
19275TIP3    H279317   3.839   4.048   4.921  0.3865  0.1750  0.1395
19276TIP3   OH279318   1.659   0.056   0.817 -0.1195 -0.4649 -0.3760
19276TIP3    H179319   1.742   0.102   0.803 -1.5983  1.8737 -1.9207
19276TIP3    H279320   1.656  -0.010   0.749  0.6575 -0.8411 -0.0494
19277TIP3   OH279321   3.418   0.932   7.149  0.3877  0.2724 -0.1700
19277TIP3    H179322   3.411   1.026   7.130  0.0423  0.3525  0.3418
19277TIP3    H279323   3.358   0.891   7.087 -0.8981  0.5530  0.8668
19278TIP3   OH279324   6.536   6.495  12.145  0.0527  0.2655  0.5034
19278TIP3    H179325   6.500   6.409  12.122 -1.6517  1.2783 -0.6162
19278TIP3    H279326   6.558   6.486  12.238 -0.4757 -1.2466  0.5077
19279TIP3   OH279327   1.927   2.130  16.947  0.2954  0.4599  0.0134
19279TIP3    H179328   1.843   2.108  16.906  0.2843 -2.2530  1.3430
19279TIP3    H279329   1.906   2.146  17.039  1.1901 -0.1042  0.3259
19280TIP3   OH279330   2.325   5.062   3.908  0.0677  0.1692 -0.0200
19280TIP3    H179331   2.294   5.039   3.820 -1.0383  0.2119  0.3472
19280TIP3    H279332   2.267   5.133   3.936  1.7659  1.5989 -0.0808
19281TIP3   OH279333   0.025   6.563  16.471  0.6135  0.9113 -0.2257
19281TIP3    H179334  -0.013   6.528  16.551 -0.5426 -0.3274 -1.2994
19281TIP3    H279335  -0.050   6.582  16.415  1.4573  0.8940 -1.3768
19282TIP3   OH279336   4.378   5.930  12.162 -0.2121 -0.0449  0.6494
19282TIP3    H179337   4.449   5.967  12.213  0.1472  1.6630 -1.0212
19282TIP3    H279338   4.301   5.982  12.186 -0.4185 -0.4108  0.7823
19283TIP3   OH279339   0.840   0.097   2.418  0.8186 -0.1401 -0.4489
19283TIP3    H179340   0.856   0.056   2.333  1.0065 -0.0062 -0.4785
19283TIP3    H279341   0.783   0.171   2.399  0.5774 -0.3152 -0.4114
19284TIP3   OH279342   1.146   4.245   5.177 -0.2865  0.4948  0.0378
19284TIP3    H179343   1.107   4.158   5.173  0.5387  0.2184 -2.5198
19284TIP3    H279344   1.094   4.298   5.117 -1.3190  2.0364  2.2165
19285TIP3   OH279345   5.437   3.968   0.843  0.2212  0.2871  0.2809
19285TIP3    H179346   5.506   3.939   0.902  1.0495 -0.0314 -0.8237
19285TIP3    H279347   5.483   3.995   0.763 -0.9598 -0.4890 -0.6879
19286TIP3   OH279348   2.231   3.507  15.045 -0.2109  0.2342 -0.0868
19286TIP3    H179349   2.265   3.480  15.131 -0.2625  0.0577 -0.1218
19286TIP3    H279350   2.137   3.522  15.060 -0.7667 -2.4049 -0.7099
19287TIP3   OH279351   2.627   6.596   1.416  0.0724  0.0398 -0.3987
19287TIP3    H179352   2.532   6.611   1.413  0.3080  1.5816 -0.6280
19287TIP3    H279353   2.663   6.662   1.358  1.3244 -0.2683  0.0173
19288TIP3   OH279354   1.452   3.031  15.563 -0.4721  0.6210 -0.6120
19288TIP3    H179355   1.456   2.957  15.502  2.1928  0.9510 -0.9220
19288TIP3    H279356   1.529   3.083  15.541 -1.2386  2.4361  0.9315
19289TIP3   OH279357   0.352   2.678  14.625 -0.6193 -0.6083  0.5618
19289TIP3    H179358   0.372   2.713  14.538 -3.0780 -1.5171 -0.4264
19289TIP3    H279359   0.433   2.688  14.675  0.4752  1.0297 -1.4708
19290TIP3   OH279360   5.017   4.202  13.956  0.4968 -0.7509  0.8594
19290TIP3    H179361   5.096   4.243  13.921  0.0410  1.2509  2.0712
19290TIP3    H279362   5.043   4.170  14.043  0.1200 -0.5117  1.0646
19291TIP3   OH279363   4.050   3.339  14.155 -0.6164  0.2770 -0.2251
19291TIP3    H179364   4.048   3.354  14.061  0.0194  3.0024  0.1517
19291TIP3    H279365   4.023   3.248  14.166 -0.6003 -0.0892 -3.0338
19292TIP3   OH279366   2.073   4.405   2.021 -0.2413  0.4337  0.2761
19292TIP3    H179367   2.081   4.493   1.984  1.1402 -0.6414 -2.1178
19292TIP3    H279368   2.162   4.381   2.046 -0.6445 -0.1790  1.1596
19293TIP3   OH279369   1.706   1.139  17.025 -0.0171 -0.4371  0.3325
19293TIP3    H179370   1.688   1.062  16.971  0.8932  0.3651 -1.1342
19293TIP3    H279371   1.619   1.174  17.045 -0.3847 -0.9793 -0.2742
19294TIP3   OH279372   6.803   3.264   0.922  0.6390 -0.4960  0.1099
19294TIP3    H179373   6.709   3.266   0.904  0.6507  0.4468  0.1158
19294TIP3    H279374   6.815   3.190   0.981  0.2342 -2.0856 -1.7376
19295TIP3   OH279375   1.365   6.468  12.967  0.4063  0.5529 -0.3064
19295TIP3    H179376   1.334   6.395  12.913  1.1035  0.6040 -0.7783
19295TIP3    H279377   1.352   6.437  13.057  1.6941 -0.6087 -0.4898
19296TIP3   OH279378   5.278   2.593  13.668 -0.0099  0.2418 -0.3626
19296TIP3    H179379   5.352   2.594  13.607  0.9240  1.0066  0.7827
19296TIP3    H279380   5.253   2.685  13.677 -1.8511 -0.1101 -1.6380
19297TIP3   OH279381   4.254   5.120  12.559 -0.5474  0.4420  0.1590
19297TIP3    H179382   4.311   5.108  12.635  0.4364 -0.5679 -0.7295
19297TIP3    H279383   4.303   5.180  12.502 -0.6818  0.1307 -0.2856
19298TIP3   OH279384   0.548   3.121   3.572 -0.3915  0.0662  0.2180
19298TIP3    H179385   0.523   3.114   3.664 -0.6902  0.4326  0.1646
19298TIP3    H279386   0.472   3.161   3.530  0.4101  1.4840  0.0987
19299TIP3   OH279387   5.672   5.930  11.084  0.1313 -0.0471  0.5641
19299TIP3    H179388   5.720   6.001  11.125  0.2897 -0.0295  0.3501
19299TIP3    H279389   5.607   5.973  11.028 -0.5961 -0.0661  1.3818
19300TIP3   OH279390   1.931   6.508   1.853 -0.4621  0.0950 -0.3272
19300TIP3    H179391   1.873   6.558   1.795 -0.5802  0.8260  0.4007
19300TIP3    H279392   1.976   6.575   1.905  0.7126 -0.4929 -0.5849
19301TIP3   OH279393   4.177   5.582   6.358 -0.0084 -0.1948 -0.1400
19301TIP3    H179394   4.209   5.547   6.441 -0.5452 -0.6097 -0.1024
19301TIP3    H279395   4.082   5.590   6.371 -0.2022 -1.0134 -0.9838
19302TIP3   OH279396   1.050   4.338  11.232 -0.1751  0.4544 -0.2491
19302TIP3    H179397   1.124   4.307  11.180 -0.1471  2.0613 -1.1842
19302TIP3    H279398   0.973   4.313  11.181 -0.1389  2.3141 -1.2705
19303TIP3   OH279399   1.760   3.450   1.241  0.1889  0.2375 -0.0289
19303TIP3    H179400   1.714   3.401   1.172 -1.0690 -0.0209  0.9751
19303TIP3    H279401   1.702   3.524   1.260  0.5415  0.3211  0.7312
19304TIP3   OH279402   1.871   3.159  17.029  0.9107  0.2197  0.2803
19304TIP3    H179403   1.942   3.207  17.071 -1.1694  1.2886  2.7054
19304TIP3    H279404   1.862   3.201  16.943  3.8620 -0.6393 -0.5097
19305TIP3   OH279405   6.004   0.888  14.162 -0.3325  0.2395 -0.7763
19305TIP3    H179406   6.015   0.798  14.193  0.6959  0.7291  0.2984
19305TIP3    H279407   5.957   0.879  14.079 -1.0302 -1.2283 -0.2395
19306TIP3   OH279408   3.120   0.404   3.766 -0.1340 -0.2560 -0.1626
19306TIP3    H179409   3.087   0.409   3.856 -0.7459 -1.5331 -0.3066
19306TIP3    H279410   3.215   0.401   3.775 -0.1751  0.1106  0.4215
19307TIP3   OH279411   1.080   4.375  12.935 -0.0810  0.0039 -0.4272
19307TIP3    H179412   1.165   4.399  12.897 -0.5637 -1.6404 -2.6465
19307TIP3    H279413   1.098   4.296  12.985 -0.2807 -0.2594 -0.7740
19308TIP3   OH279414   6.011   3.682   0.347  0.6925 -0.3835 -0.2742
19308TIP3    H179415   6.068   3.732   0.405  0.0599  1.2166 -1.0175
19308TIP3    H279416   5.923   3.708   0.372  0.4111  0.1753 -1.8127
19309TIP3   OH279417   0.000   4.305   4.082 -0.3928  0.0088  0.0471
19309TIP3    H179418  -0.033   4.378   4.030  1.4593  1.0666  0.3399
19309TIP3    H279419   0.028   4.344   4.165  2.0409 -0.7509 -0.3775
19310TIP3   OH279420   4.864   0.047   0.320 -0.0402 -0.2960  0.1686
19310TIP3    H179421   4.866   0.113   0.251 -0.6383 -1.0959 -0.6216
19310TIP3    H279422   4.812  -0.024   0.284  1.7875 -1.8296  0.4500
19311TIP3   OH279423   5.268   2.998  17.150 -0.0340  0.0495 -0.0397
19311TIP3    H179424   5.183   3.031  17.179  0.4302 -1.1393  2.9029
19311TIP3    H279425   5.331   3.064  17.180  0.3731 -0.7270  0.8525
19312TIP3   OH279426   6.366   2.672  16.361 -0.4665 -0.8758 -0.1667
19312TIP3    H179427   6.270   2.675  16.361 -0.4395  0.5746  0.3773
19312TIP3    H279428   6.390   2.661  16.453 -0.1113 -0.0923 -0.1555
19313TIP3   OH279429   3.430   5.156   2.673 -0.4719  0.2652 -0.3999
19313TIP3    H179430   3.335   5.168   2.675 -0.7116 -1.0019 -3.1703
19313TIP3    H279431   3.448   5.100   2.749 -1.9884  0.1252 -0.1162
19314TIP3   OH279432   3.855   1.698   2.642  0.2677 -0.4572  0.1808
19314TIP3    H179433   3.800   1.733   2.712 -1.7380 -1.2551 -0.9473
19314TIP3    H279434   3.876   1.774   2.588 -0.4375 -0.2634  0.1679
19315TIP3   OH279435   1.947   6.417   0.095 -0.2411  0.1332  0.6875
19315TIP3    H179436   1.901   6.339   0.065 -0.4234  0.3606  0.3754
19315TIP3    H279437   2.034   6.386   0.118 -0.4351 -0.2332  0.9402
19316TIP3   OH279438   0.059   0.286  12.177  0.0440  0.2041 -0.5500
19316TIP3    H179439   0.116   0.363  12.184 -0.3266  0.5774 -1.5416
19316TIP3    H279440   0.077   0.252  12.089  1.2440 -1.6681  0.3883
19317TIP3   OH279441   2.222   5.472   2.363 -0.0642  0.0154  0.2943
19317TIP3    H179442   2.172   5.532   2.309  0.4512  1.4614  1.3959
19317TIP3    H279443   2.314   5.493   2.345  0.1223 -0.2949  0.8330
19318TIP3   OH279444   6.266   0.830   5.024 -0.6712  0.3419  0.6273
19318TIP3    H179445   6.196   0.765   5.018 -0.2253  0.0126 -1.5652
19318TIP3    H279446   6.345   0.778   5.037 -0.5652  0.5645  0.8668
19319TIP3   OH279447   0.456   3.797   5.103  0.6050  0.4051  0.4231
19319TIP3    H179448   0.399   3.837   5.168 -0.6831 -1.2108  0.3340
19319TIP3    H279449   0.447   3.853   5.026 -2.2344 -0.7243 -0.1519
19320TIP3   OH279450   0.493   0.196  14.725 -0.1785 -0.2176  0.4449
19320TIP3    H179451   0.480   0.286  14.696 -0.7480 -0.0049  1.3606
19320TIP3    H279452   0.575   0.199  14.774  0.1338 -0.3335 -0.0573
19321TIP3   OH279453   2.923   6.818  13.966  0.6189  0.3569  0.3455
19321TIP3    H179454   2.951   6.901  13.928  0.4856 -0.1468 -0.8653
19321TIP3    H279455   2.999   6.761  13.957  0.5038  0.1576  0.6181
19322TIP3   OH279456   3.571   5.973  14.118  0.6103  0.0098  0.3680
19322TIP3    H179457   3.592   6.026  14.041  0.8749 -0.6194  0.0037
19322TIP3    H279458   3.497   6.019  14.159  0.4883  0.3627 -0.2392
19323TIP3   OH279459   5.034   5.394  11.475  0.2035 -0.7698  0.0573
19323TIP3    H179460   5.058   5.451  11.401  0.7473 -1.6050 -0.4169
19323TIP3    H279461   4.944   5.418  11.495  0.0008 -0.6333 -0.9725
19324TIP3   OH279462   0.677   0.877  16.803 -0.1697 -0.0149 -0.2183
19324TIP3    H179463   0.741   0.919  16.860 -0.9211 -1.6071  1.8612
19324TIP3    H279464   0.711   0.788  16.790 -0.1566  0.2294 -2.0437
19325TIP3   OH279465   5.372   2.448   3.622 -0.4399 -0.0839  0.0907
19325TIP3    H179466   5.408   2.392   3.691  0.3013  0.6684  0.3132
19325TIP3    H279467   5.413   2.533   3.635  1.4361 -0.5166 -2.6446
19326TIP3   OH279468   2.360   6.251   4.923 -0.0586 -0.2105  0.3848
19326TIP3    H179469   2.451   6.279   4.936  0.1587 -1.1865  1.0410
19326TIP3    H279470   2.308   6.315   4.973  0.3398 -0.2449  0.8541
19327TIP3   OH279471   3.501   2.869   0.818 -0.3886 -0.9103 -0.4922
19327TIP3    H179472   3.558   2.807   0.863 -0.9841 -0.1935  1.2915
19327TIP3    H279473   3.449   2.909   0.887 -0.6880  0.8940 -1.7125
19328TIP3   OH279474   1.832   6.010  13.004 -0.0886  0.0937  0.5472
19328TIP3    H179475   1.830   5.921  12.971 -0.3114  0.0469  0.6851
19328TIP3    H279476   1.752   6.019  13.056  0.0772  0.2777  0.7772
19329TIP3   OH279477   5.385   5.921   3.442  0.0126  0.0506 -0.2774
19329TIP3    H179478   5.478   5.930   3.462 -0.5488  2.1660  1.5923
19329TIP3    H279479   5.351   6.010   3.445 -2.1210 -0.7145 -0.7378
19330TIP3   OH279480   6.752   5.661  14.441  0.4674 -0.0965 -0.3520
19330TIP3    H179481   6.729   5.574  14.410  0.6077 -0.2777  0.0374
19330TIP3    H279482   6.848   5.664  14.436  0.7094 -1.0700  2.4323
19331TIP3   OH279483   5.780   4.276   2.725 -0.0159  0.3691 -0.2968
19331TIP3    H179484   5.736   4.221   2.661  0.0941  0.4533 -0.4455
19331TIP3    H279485   5.727   4.269   2.804  2.0794 -3.1016  0.9332
19332TIP3   OH279486   2.847   1.369   1.413  0.4265 -0.0804  0.2607
19332TIP3    H179487   2.897   1.311   1.470  0.9016 -0.7534 -0.8095
19332TIP3    H279488   2.824   1.443   1.468  2.9663  0.4362  0.7168
19333TIP3   OH279489   2.002   2.403   4.434 -0.1219 -0.9321  0.1016
19333TIP3    H179490   1.981   2.462   4.362 -0.8453 -0.5209  0.6547
19333TIP3    H279491   1.946   2.326   4.418 -2.5110  0.3762  1.8656
19334TIP3   OH279492   4.325   1.877   4.783  0.0956 -0.0738 -0.5219
19334TIP3    H179493   4.374   1.847   4.859  1.9473  0.4290 -1.4923
19334TIP3    H279494   4.236   1.845   4.798  0.3297  0.3084  2.0170
19335TIP3   OH279495   1.811   0.715   5.950  0.2109  0.2250  0.6081
19335TIP3    H179496   1.888   0.772   5.959  1.0414 -0.9983  1.4544
19335TIP3    H279497   1.752   0.743   6.020  0.0524  0.8968  0.2126
19336TIP3   OH279498   0.012   1.479  14.859 -0.2882 -0.4457  0.4938
19336TIP3    H179499   0.095   1.518  14.830  0.0434 -1.7026 -0.2434
19336TIP3    H279500  -0.048   1.493  14.786 -0.2253 -1.1414  0.3074
19337TIP3   OH279501   4.679   2.489   2.104 -0.3298  0.1068  0.4884
19337TIP3    H179502   4.698   2.400   2.074  1.0248  0.2939  0.7298
19337TIP3    H279503   4.585   2.492   2.116 -0.6509 -0.6166 -1.7290
19338TIP3   OH279504   1.969   6.498   3.156 -0.5060  0.3477  0.7983
19338TIP3    H179505   1.931   6.462   3.076  2.2314 -1.5444  0.2612
19338TIP3    H279506   1.946   6.435   3.224 -0.4075  0.4453  0.9227
19339TIP3   OH279507   4.541   3.502   4.207  0.1673 -0.6378  0.0338
19339TIP3    H179508   4.541   3.447   4.129 -1.2034  0.9268 -1.1146
19339TIP3    H279509   4.452   3.536   4.212  0.9842  1.5202  0.6451
19340TIP3   OH279510   5.936   0.606   0.643  0.2772  0.5384  0.1595
19340TIP3    H179511   5.878   0.553   0.697  0.3053  0.6882  0.3373
19340TIP3    H279512   5.964   0.547   0.573 -0.5300  0.6189 -0.2448
19341TIP3   OH279513   0.926   2.595   5.138 -0.6106  0.4729 -0.0697
19341TIP3    H179514   1.010   2.548   5.137 -0.8796 -0.0285  0.4437
19341TIP3    H279515   0.941   2.672   5.083 -0.8784 -1.4284 -2.8480
19342TIP3   OH279516   2.309   1.370   6.924 -0.1103  0.1845 -0.0881
19342TIP3    H179517   2.370   1.424   6.874 -1.8529  1.7606 -0.5447
19342TIP3    H279518   2.244   1.431   6.958 -1.4694 -1.4714  0.3838
19343TIP3   OH279519   5.841   1.657  16.428  0.4105 -0.4102 -0.2052
19343TIP3    H179520   5.777   1.627  16.363  0.0143  0.0143 -0.0074
19343TIP3    H279521   5.925   1.653  16.382  0.2362 -0.8770 -0.4944
19344TIP3   OH279522   4.545   2.452  13.621 -0.1084  0.0729 -0.3100
19344TIP3    H179523   4.473   2.510  13.648 -0.3641 -0.7621  0.8649
19344TIP3    H279524   4.569   2.482  13.534 -0.0969  2.0968  0.3594
19345TIP3   OH279525   4.717   2.316  12.367 -0.1095 -0.2021  0.4434
19345TIP3    H179526   4.629   2.285  12.386 -1.0553  1.0979 -1.6401
19345TIP3    H279527   4.764   2.239  12.335 -1.0862 -0.4626 -0.3708
19346TIP3   OH279528   4.426   1.515  15.725  0.7237  0.2005  0.6388
19346TIP3    H179529   4.441   1.590  15.667  0.9770  1.2022  1.9655
19346TIP3    H279530   4.390   1.554  15.805  2.6215 -0.8819  2.0512
19347TIP3   OH279531   6.637   6.131  10.654 -0.6477 -0.1173 -0.3855
19347TIP3    H179532   6.661   6.191  10.725 -1.8801 -1.1349  0.9092
19347TIP3    H279533   6.684   6.165  10.577  1.8518  0.1730  1.2065
19348TIP3   OH279534   1.030   3.133  11.679 -0.0022  0.3784 -0.0968
19348TIP3    H179535   1.082   3.175  11.747 -1.1491  2.4481 -0.4549
19348TIP3    H279536   0.965   3.082  11.728  0.5281  0.1190  0.3472
19349TIP3   OH279537   0.884   4.883  13.137  0.3384 -0.6176 -0.6335
19349TIP3    H179538   0.935   4.813  13.096  0.0634 -0.9199 -0.4517
19349TIP3    H279539   0.951   4.942  13.174  0.5502 -1.6155  0.6119
19350TIP3   OH279540   5.266   4.391  11.024 -0.0241 -0.4658 -0.4397
19350TIP3    H179541   5.196   4.326  11.029 -0.0553 -0.3365  0.9338
19350TIP3    H279542   5.221   4.472  11.000 -0.0766 -0.7944 -1.4747
19351TIP3   OH279543   2.684   1.872   2.425  0.1827 -0.0070  0.6753
19351TIP3    H179544   2.605   1.818   2.432 -1.1013  1.7628  0.2228
19351TIP3    H279545   2.711   1.886   2.516  1.1854 -2.3404  0.7460
19352TIP3   OH279546   4.698   6.335  12.239 -0.1125  0.0188  0.0360
19352TIP3    H179547   4.733   6.286  12.165  1.2755 -0.2418  0.8461
19352TIP3    H279548   4.623   6.383  12.203  1.1677  0.7106 -1.7929
19353TIP3   OH279549   1.770   3.556   3.304  0.1598  0.0731  0.1759
19353TIP3    H179550   1.786   3.614   3.379  0.7819 -0.3338  0.3689
19353TIP3    H279551   1.856   3.518   3.286 -0.4262 -1.4684  0.6193
19354TIP3   OH279552   4.368   2.871  12.125  0.8603 -0.2676 -0.4545
19354TIP3    H179553   4.377   2.846  12.217  2.0641 -1.3296 -0.8348
19354TIP3    H279554   4.350   2.964  12.127  0.6788 -0.3230  0.8764
19355TIP3   OH279555   6.341   1.790  15.873 -0.2798 -0.0996 -0.2109
19355TIP3    H179556   6.274   1.835  15.924  0.1750  1.3388 -0.8518
19355TIP3    H279557   6.361   1.851  15.802  2.7116  0.0805  0.7531
19356TIP3   OH279558   4.300   2.174  14.598 -0.0490 -0.0510 -0.1337
19356TIP3    H179559   4.319   2.229  14.522 -0.1765 -1.7097 -1.3850
19356TIP3    H279560   4.386   2.147  14.631 -0.0391 -1.0668 -0.9827
19357TIP3   OH279561   5.862   3.723   1.773  0.0797  0.0198 -0.2671
19357TIP3    H179562   5.813   3.800   1.744 -2.4947 -0.8253  1.6462
19357TIP3    H279563   5.924   3.757   1.838 -0.3605  0.6096 -0.1527
19358TIP3   OH279564   2.730   3.873  11.021 -0.4243 -0.7949  0.0197
19358TIP3    H179565   2.700   3.957  10.986 -0.9213 -0.3608  1.4585
19358TIP3    H279566   2.652   3.817  11.019 -0.3010 -0.9615 -0.1555
19359TIP3   OH279567   4.680   4.727  15.615 -0.1352 -0.5261 -0.1973
19359TIP3    H179568   4.770   4.713  15.646  0.4910 -0.6182 -1.9446
19359TIP3    H279569   4.690   4.741  15.520 -2.1608 -2.3591 -0.7187
19360TIP3   OH279570   3.343   1.325   2.737 -0.1632  0.3323  0.0916
19360TIP3    H179571   3.404   1.275   2.682 -0.2300  3.2776 -2.7986
19360TIP3    H279572   3.257   1.312   2.696 -0.4393  1.4657  0.2861
19361TIP3   OH279573   6.410   2.279   0.514  0.0502 -0.0696  0.2747
19361TIP3    H179574   6.318   2.285   0.490  0.4911 -1.8726 -2.0662
19361TIP3    H279575   6.439   2.370   0.523 -1.4884  0.5433 -0.8096
19362TIP3   OH279576   5.701   2.116  15.699  0.2641  0.0118 -0.2385
19362TIP3    H179577   5.759   2.191  15.691  1.4395 -0.8116  0.2876
19362TIP3    H279578   5.681   2.091  15.609 -0.3581  1.1356 -0.4057
19363TIP3   OH279579   5.257   6.482  13.555  0.3024  0.1943 -0.7785
19363TIP3    H179580   5.171   6.500  13.594 -0.3781 -0.2749 -2.0485
19363TIP3    H279581   5.314   6.464  13.631 -1.3105 -2.0406 -0.0301
19364TIP3   OH279582   5.431   1.684  16.477  0.3650 -1.0760 -0.2014
19364TIP3    H179583   5.442   1.656  16.568 -1.2369  0.0383  0.3739
19364TIP3    H279584   5.417   1.779  16.483 -1.0675 -1.1738 -1.4658
19365TIP3   OH279585   0.528   2.375  12.228 -0.1215  0.1553  0.4135
19365TIP3    H179586   0.527   2.297  12.172 -0.4977  0.4554 -0.0033
19365TIP3    H279587   0.516   2.448  12.168  1.7490  0.6666  0.6165
19366TIP3   OH279588   1.096   1.551   5.925 -0.0071 -0.4604  0.2573
19366TIP3    H179589   1.132   1.515   5.845 -0.5395 -0.9849  0.2455
19366TIP3    H279590   1.170   1.594   5.968 -0.6987  4.2763 -2.9251
19367TIP3   OH279591   5.847   3.243   3.767  0.4166 -0.1175 -0.9179
19367TIP3    H179592   5.925   3.296   3.782  1.1292 -1.9581  2.2926
19367TIP3    H279593   5.826   3.258   3.674  2.9912  2.4578 -1.1765
19368TIP3   OH279594   2.689   4.223   5.085  0.9350  1.7053  0.5302
19368TIP3    H179595   2.656   4.220   5.175 -0.8844 -0.0027 -0.1734
19368TIP3    H279596   2.781   4.196   5.093  0.2275 -0.4784  1.6254
19369TIP3   OH279597   4.129   6.652   3.409 -0.2268 -0.1265  0.2449
19369TIP3    H179598   4.221   6.663   3.432  0.1382 -0.8255 -0.8336
19369TIP3    H279599   4.109   6.726   3.352  0.4125 -1.3731 -1.6566
19370TIP3   OH279600   6.546   3.690   4.442 -0.0514  0.6034 -0.1950
19370TIP3    H179601   6.597   3.727   4.370  0.9678  0.7602  0.5892
19370TIP3    H279602   6.507   3.611   4.404 -0.0840  1.0454 -1.1105
19371TIP3   OH279603   0.939   3.093  14.794  0.0400  0.5125  0.1511
19371TIP3    H179604   1.007   3.143  14.840  1.5078 -2.0526  0.8364
19371TIP3    H279605   0.898   3.040  14.862 -0.4841 -0.3269 -0.8064
19372TIP3   OH279606   2.091   5.440  11.430  0.0692 -0.6677 -0.1394
19372TIP3    H179607   2.008   5.428  11.383 -1.1249  0.0437  1.7040
19372TIP3    H279608   2.146   5.490  11.370 -1.8916  1.3469 -0.3236
19373TIP3   OH279609   5.099   6.747  13.822  0.0298  0.9285 -0.3091
19373TIP3    H179610   5.153   6.724  13.747  0.1055 -0.5567  0.1715
19373TIP3    H279611   5.010   6.726  13.795 -0.2120  2.4663 -0.7565
19374TIP3   OH279612   2.937   5.953   4.655 -0.3280  0.2489  0.0652
19374TIP3    H179613   2.848   5.971   4.685 -0.3044  1.4905 -0.5911
19374TIP3    H279614   2.943   5.857   4.654 -1.0861  0.1622  1.7699
19375TIP3   OH279615   3.783   1.602  17.145  0.1599 -0.1766 -0.2975
19375TIP3    H179616   3.765   1.522  17.095 -0.9159 -0.3021  0.2941
19375TIP3    H279617   3.697   1.642  17.160  0.6745  1.0142 -0.4494
19376TIP3   OH279618   1.912   0.039   3.709  0.2720 -0.5778 -0.2489
19376TIP3    H179619   2.007   0.026   3.718  0.2708 -0.5374 -0.1866
19376TIP3    H279620   1.903   0.126   3.671  0.3394 -1.3158 -1.9945
19377TIP3   OH279621   5.241   0.902  16.231 -0.3126  0.0139  0.4705
19377TIP3    H179622   5.239   0.909  16.135  0.0327  1.4138  0.5595
19377TIP3    H279623   5.191   0.822  16.250 -1.9053  0.6914 -0.7710
19378TIP3   OH279624   1.116   2.858   3.637  0.2851  0.3999 -0.3639
19378TIP3    H179625   1.057   2.874   3.710 -0.3728 -0.5889 -0.6675
19378TIP3    H279626   1.126   2.944   3.595 -1.9282  0.3690 -1.0366
19379TIP3   OH279627   3.851   1.805  16.263 -0.5588 -0.0680 -0.7909
19379TIP3    H179628   3.897   1.889  16.265 -1.0321  0.1677  0.8034
19379TIP3    H279629   3.831   1.792  16.170  0.2334  1.1812 -1.1613
19380TIP3   OH279630   6.688   4.443  17.203  0.8727 -0.0655  0.1945
19380TIP3    H179631   6.631   4.496  17.258  0.4044 -0.4601  0.0921
19380TIP3    H279632   6.665   4.468  17.113 -0.0256 -1.1216  0.1167
19381TIP3   OH279633   4.578   2.631   1.515 -0.0762 -0.8729  0.2693
19381TIP3    H179634   4.632   2.572   1.463  0.8809 -0.5592  0.9022
19381TIP3    H279635   4.599   2.611   1.606 -0.0410  0.1573  0.4991
19382TIP3   OH279636   0.154   2.880  12.984  0.3869  0.0717  0.0375
19382TIP3    H179637   0.112   2.815  13.040 -0.2700  1.4643  1.2185
19382TIP3    H279638   0.129   2.856  12.895  0.1536 -1.2685  0.4542
19383TIP3   OH279639   2.120   1.979   1.890  0.2204 -0.8527  0.2026
19383TIP3    H179640   2.171   1.961   1.969  2.4936 -0.7025 -1.2109
19383TIP3    H279641   2.140   2.070   1.868 -1.1054 -0.6126 -0.0399
19384TIP3   OH279642   1.334   5.617   1.291 -0.4956 -0.0850 -0.3317
19384TIP3    H179643   1.266   5.562   1.331 -1.3442  0.2961 -1.2210
19384TIP3    H279644   1.402   5.555   1.264 -1.5843 -0.7610 -1.6140
19385TIP3   OH279645   1.284   3.374  13.306 -0.4138 -0.5690  0.0360
19385TIP3    H179646   1.361   3.378  13.363 -0.4596  0.1109  0.0638
19385TIP3    H279647   1.216   3.422  13.354  0.5557  3.1176 -2.0889
19386TIP3   OH279648   1.047   1.517   5.355 -0.3745 -0.3876  0.7680
19386TIP3    H179649   1.011   1.459   5.289 -1.6634  1.1617  0.0724
19386TIP3    H279650   1.123   1.558   5.313 -1.8392  1.4295 -0.2056
19387TIP3   OH279651   5.249   5.106  14.311  0.4278 -0.0802  0.0783
19387TIP3    H179652   5.234   5.022  14.269 -0.3779  0.9926 -1.8465
19387TIP3    H279653   5.162   5.145  14.318  1.0342  1.5462 -1.1504
19388TIP3   OH279654   6.191   2.074  11.741  0.8751 -0.1088 -0.4440
19388TIP3    H179655   6.190   2.095  11.834  1.5115 -1.9905  0.0140
19388TIP3    H279656   6.164   2.155  11.697 -0.9430  0.3395  1.4505
19389TIP3   OH279657   0.095   5.185   1.307  0.0825  0.4435 -0.0374
19389TIP3    H179658   0.013   5.191   1.355  0.2660  1.0162  0.2073
19389TIP3    H279659   0.159   5.155   1.372  0.7918  3.2861  0.6344
19390TIP3   OH279660   2.867   1.528   6.356 -0.2176  0.0798  0.1728
19390TIP3    H179661   2.901   1.501   6.441  1.7038  0.0439 -0.5709
19390TIP3    H279662   2.943   1.565   6.310 -1.2080  0.0945 -1.5154
19391TIP3   OH279663   3.204   3.540   5.518  0.5623  0.3031  0.1718
19391TIP3    H179664   3.138   3.504   5.459  2.8986 -0.2288 -2.2062
19391TIP3    H279665   3.238   3.464   5.565 -0.3947  0.5591  1.2970
19392TIP3   OH279666   1.089   6.113   3.653 -0.4880 -0.1819 -0.4370
19392TIP3    H179667   1.133   6.125   3.568 -0.6504  0.4389 -0.4288
19392TIP3    H279668   1.014   6.171   3.650 -0.5171 -0.1876  0.1231
19393TIP3   OH279669   0.586   0.283   5.919 -0.0023  0.1672 -0.1797
19393TIP3    H179670   0.587   0.378   5.926 -1.4845  0.1355  0.7446
19393TIP3    H279671   0.638   0.252   5.993 -0.1797  0.2563 -0.0155
19394TIP3   OH279672   0.652   2.518   0.992  0.0989  0.3929 -0.3964
19394TIP3    H179673   0.681   2.484   1.076 -1.6373  0.1445  0.1251
19394TIP3    H279674   0.600   2.447   0.954  0.1801  0.8090 -1.2916
19395TIP3   OH279675   2.012   4.011  13.976  0.5651 -0.0830  0.1367
19395TIP3    H179676   2.059   3.948  14.032 -1.1088 -0.2442  1.3962
19395TIP3    H279677   1.985   3.960  13.900 -0.5989 -0.8726  1.0526
19396TIP3   OH279678   5.510   2.103  17.069 -0.1653 -0.0351 -0.2685
19396TIP3    H179679   5.599   2.099  17.105 -0.2161  0.7124 -0.0578
19396TIP3    H279680   5.496   2.195  17.049 -0.3559 -0.3693 -1.6760
19397TIP3   OH279681   2.674   2.564  17.176  0.4650  0.0478 -0.4132
19397TIP3    H179682   2.687   2.648  17.220  0.1870 -0.0425 -0.1534
19397TIP3    H279683   2.710   2.577  17.089  0.1172  0.5440 -0.4868
19398TIP3   OH279684   5.440   4.095   4.836  0.5272 -0.1199  0.0083
19398TIP3    H179685   5.509   4.151   4.872  0.5247  0.0680 -0.2795
19398TIP3    H279686   5.467   4.079   4.745 -0.0138  0.2862 -0.2291
19399TIP3   OH279687   2.929   0.646  13.324  0.1750 -0.7152 -0.7767
19399TIP3    H179688   2.918   0.586  13.398 -1.1626 -0.6321 -0.9011
19399TIP3    H279689   2.991   0.601  13.266  1.3289 -0.7243  0.4378
19400TIP3   OH279690   4.569   5.066   3.648  0.5893 -0.2709  0.6997
19400TIP3    H179691   4.562   4.972   3.665 -0.6264 -0.7240 -2.0388
19400TIP3    H279692   4.630   5.072   3.574 -1.5719  0.8491 -1.0491
19401TIP3   OH279693   1.027   0.773   4.946 -0.2876 -0.1992  0.5272
19401TIP3    H179694   0.950   0.821   4.978  1.3110  2.5444  0.4046
19401TIP3    H279695   1.079   0.839   4.902  1.0633 -2.5007 -1.3983
19402TIP3   OH279696   0.032   1.749   4.748 -0.0392  0.2231  0.1442
19402TIP3    H179697  -0.023   1.706   4.683  0.5124  2.0766 -1.6157
19402TIP3    H279698  -0.025   1.760   4.824 -0.7951 -1.6810 -0.1210
19403TIP3   OH279699   5.899   1.597   5.084 -0.0153  0.0737  0.4330
19403TIP3    H179700   5.828   1.660   5.099  0.0946  0.5537 -1.0474
19403TIP3    H279701   5.865   1.536   5.019 -0.5630 -2.1623  2.7071
19404TIP3   OH279702   3.011   4.529  12.043  0.2204  0.1933 -0.0901
19404TIP3    H179703   3.068   4.535  12.120 -0.2779 -0.0209  0.3009
19404TIP3    H279704   3.070   4.541  11.969  0.8554 -0.4902  0.2947
19405TIP3   OH279705   1.286   1.141   0.652  0.5999  0.6728  0.0535
19405TIP3    H179706   1.293   1.066   0.711  0.2832  0.8204  0.2806
19405TIP3    H279707   1.266   1.102   0.566  0.2711  0.5083  0.2050
19406TIP3   OH279708   3.219   4.215  11.656  0.3896 -0.6246 -0.4990
19406TIP3    H179709   3.126   4.200  11.675  0.3887 -1.3786 -1.0531
19406TIP3    H279710   3.219   4.278  11.584  0.3555  0.7411  0.6637
19407TIP3   OH279711   2.799   1.887   1.911 -0.0565 -0.6676 -0.3104
19407TIP3    H179712   2.769   1.972   1.878  1.8636 -0.2366 -1.0525
19407TIP3    H279713   2.729   1.826   1.889 -1.5899  0.7756  0.4958
19408TIP3   OH279714   5.375   4.529   6.174 -0.2839 -0.2376  0.1431
19408TIP3    H179715   5.369   4.437   6.149  0.7364  0.1176 -1.4596
19408TIP3    H279716   5.298   4.570   6.135 -0.9084 -0.4645  1.1265
19409TIP3   OH279717   3.780   5.082  11.225 -0.6174 -0.7781 -0.0230
19409TIP3    H179718   3.829   5.126  11.156 -1.3002  0.6050  0.3653
19409TIP3    H279719   3.814   4.993  11.225  1.1675 -0.1143 -0.4556
19410TIP3   OH279720   3.363   4.452   0.390  0.6898 -0.1440 -1.0744
19410TIP3    H179721   3.355   4.474   0.483  0.3614 -0.9081 -0.9187
19410TIP3    H279722   3.427   4.515   0.356 -0.7756  1.5390 -0.8005
19411TIP3   OH279723   0.140   3.353  14.275 -0.4519  0.0193 -0.3445
19411TIP3    H179724   0.139   3.384  14.366 -3.2097 -2.7188  0.6418
19411TIP3    H279725   0.185   3.269  14.278 -0.4393 -0.0304 -1.5593
19412TIP3   OH279726   2.896   1.040   3.789 -0.1404 -0.0234  0.2237
19412TIP3    H179727   2.810   1.076   3.769  0.8587  0.8890 -2.6907
19412TIP3    H279728   2.887   0.945   3.775 -0.2002  0.2898 -2.0812
19413TIP3   OH279729   3.442   4.878   5.418  0.5217  0.3731  0.0775
19413TIP3    H179730   3.443   4.790   5.380  0.4915  0.5881 -0.4194
19413TIP3    H279731   3.530   4.912   5.403  0.6941  0.2270  0.7431
19414TIP3   OH279732   3.390   0.239  11.198  0.4734  0.1312 -0.0050
19414TIP3    H179733   3.416   0.260  11.109  0.2564  1.8508  0.3294
19414TIP3    H279734   3.295   0.232  11.195  0.5382 -0.8099 -0.1054
19415TIP3   OH279735   3.472   2.271  15.641  0.1088  0.0765  0.0266
19415TIP3    H179736   3.511   2.305  15.560 -0.3655  0.1732 -0.1623
19415TIP3    H279737   3.544   2.228  15.686  0.5009  0.5202 -0.1782
19416TIP3   OH279738   3.551   3.176   4.750  0.4763 -0.1710  0.5246
19416TIP3    H179739   3.495   3.134   4.684  1.5828  0.2193 -0.6750
19416TIP3    H279740   3.635   3.132   4.741  0.8657  0.4450  1.1291
19417TIP3   OH279741   4.789   0.611   3.424  0.4265  0.0646  0.3248
19417TIP3    H179742   4.874   0.622   3.467  0.4778  0.7889  0.0556
19417TIP3    H279743   4.726   0.608   3.497  0.6817 -0.4565  0.5215
19418TIP3   OH279744   2.857   6.557   4.712 -0.1779  0.0383  0.5932
19418TIP3    H179745   2.829   6.636   4.758 -0.8396 -0.1654  0.5592
19418TIP3    H279746   2.785   6.495   4.727 -1.5042  0.6914 -2.5883
19419TIP3   OH279747   6.592   0.183  13.436 -0.0762 -0.0407  0.3138
19419TIP3    H179748   6.560   0.273  13.446  1.3978  0.3037  2.1278
19419TIP3    H279749   6.673   0.191  13.386  0.0002 -0.3938  0.3793
19420TIP3   OH279750   6.322   1.243  12.258 -0.0333 -0.1166 -0.0241
19420TIP3    H179751   6.369   1.172  12.215  0.2326 -1.1567  1.9374
19420TIP3    H279752   6.234   1.209  12.273 -0.1140  0.2094  0.2725
19421TIP3   OH279753   3.318   4.893   1.125 -0.2621 -0.3582  0.0283
19421TIP3    H179754   3.410   4.892   1.154 -0.2139 -0.3791 -0.1242
19421TIP3    H279755   3.308   4.810   1.077  0.2635  0.6455 -1.8941
19422TIP3   OH279756   5.263   0.688  11.780  0.0473 -0.1221 -0.9714
19422TIP3    H179757   5.264   0.616  11.843 -0.8958  0.6785 -0.0404
19422TIP3    H279758   5.342   0.674  11.727  0.3695 -1.2996 -0.1999
19423TIP3   OH279759   3.769   3.841  16.228 -0.0084 -0.2580 -0.1991
19423TIP3    H179760   3.850   3.875  16.191 -0.2175 -1.7280 -2.1287
19423TIP3    H279761   3.796   3.787  16.302  1.0121 -2.4344 -2.0704
19424TIP3   OH279762   1.202   0.889  13.435 -0.4473  0.0722 -0.1653
19424TIP3    H179763   1.110   0.872  13.416 -0.5017  1.5450 -1.2543
19424TIP3    H279764   1.201   0.945  13.513 -0.5641  1.8240 -1.4044
19425TIP3   OH279765   3.897   1.391  13.779 -0.4126 -0.2792  0.0346
19425TIP3    H179766   3.963   1.333  13.741 -0.0772  0.6765 -0.8483
19425TIP3    H279767   3.833   1.405  13.709 -1.8389 -1.6089  1.0417
19426TIP3   OH279768   3.867   3.859  16.928  0.4076 -0.1592 -0.1611
19426TIP3    H179769   3.859   3.919  16.854 -0.3118 -0.6981 -0.5345
19426TIP3    H279770   3.822   3.780  16.899  1.4344 -0.9137  0.2835
19427TIP3   OH279771   4.483   5.685  14.669 -0.5749  0.1338  0.1642
19427TIP3    H179772   4.417   5.745  14.634 -0.9537 -0.5942 -0.4058
19427TIP3    H279773   4.492   5.618  14.601  0.1956 -0.1877  0.5786
19428TIP3   OH279774   6.451   1.210   4.522  0.5068  0.0588 -0.2767
19428TIP3    H179775   6.421   1.292   4.485 -0.9466  0.6967  2.1968
19428TIP3    H279776   6.393   1.143   4.484 -1.7671  0.8473  1.6964
19429TIP3   OH279777   0.593   5.548   6.112 -0.0867  0.3336 -0.0461
19429TIP3    H179778   0.568   5.478   6.051  1.3145 -1.2554  1.1658
19429TIP3    H279779   0.579   5.511   6.199  2.1604  0.9595  0.6302
19430TIP3   OH279780   3.767   5.988  12.277  0.3707 -0.2020 -0.2701
19430TIP3    H179781   3.812   5.924  12.222  0.1902  0.4810 -1.2244
19430TIP3    H279782   3.678   5.994  12.240 -0.4398 -1.3406  1.4245
19431TIP3   OH279783   0.898   5.045   2.248 -0.6269 -0.4161  0.0701
19431TIP3    H179784   0.946   5.089   2.177  0.2022 -0.8820  0.3290
19431TIP3    H279785   0.898   4.953   2.223 -0.9260 -0.4880  0.3389
19432TIP3   OH279786   6.774   2.591   5.117  0.0541 -0.4123  0.2393
19432TIP3    H179787   6.737   2.555   5.036 -1.5002 -0.2706  0.8600
19432TIP3    H279788   6.755   2.684   5.113  3.0039  0.1982 -0.7958
19433TIP3   OH279789   2.103   6.488   2.835 -0.2714  0.3257  0.5768
19433TIP3    H179790   2.137   6.537   2.910  2.9795 -2.5592  1.1495
19433TIP3    H279791   2.025   6.443   2.869 -0.7887  1.6993  1.2282
19434TIP3   OH279792   6.478   1.610   5.281 -0.2085  0.1694 -0.1697
19434TIP3    H179793   6.461   1.546   5.350  0.6082 -0.7407 -0.8065
19434TIP3    H279794   6.400   1.607   5.225  0.6863 -1.7896 -1.3619
19435TIP3   OH279795   4.356   5.306   0.553  0.0317 -0.8526  0.4366
19435TIP3    H179796   4.324   5.331   0.640  1.3315  0.2151  0.6108
19435TIP3    H279797   4.342   5.383   0.498  0.5828 -1.0141  0.0596
19436TIP3   OH279798   5.826   4.181  15.009  0.1914 -0.0137 -0.3559
19436TIP3    H179799   5.880   4.177  15.089 -0.8665  1.0329  0.4223
19436TIP3    H279800   5.890   4.191  14.938  1.0475  1.2819  0.5596
19437TIP3   OH279801   5.216   0.756   4.250  0.3238  0.0735  0.5999
19437TIP3    H179802   5.147   0.692   4.268  1.1036 -0.9583  0.0349
19437TIP3    H279803   5.193   0.795   4.166  0.1216  0.1463  0.6905
19438TIP3   OH279804   2.158   4.728  13.284 -0.0079 -0.2066 -0.3405
19438TIP3    H179805   2.179   4.797  13.346  1.5165 -0.9690  0.0036
19438TIP3    H279806   2.062   4.723  13.285 -0.1837  2.3591 -0.9120
19439TIP3   OH279807   3.616   0.951  13.183 -0.5519  0.1579  0.5084
19439TIP3    H179808   3.615   0.904  13.267  3.0914 -0.6891  0.1595
19439TIP3    H279809   3.585   1.039  13.205  0.0352 -0.1526  2.6717
19440TIP3   OH279810   0.535   6.026   2.511 -0.5631 -0.2942  0.1000
19440TIP3    H179811   0.544   6.035   2.606  2.5555  0.8294 -0.2719
19440TIP3    H279812   0.585   5.947   2.489  1.2200  1.0966 -0.9486
19441TIP3   OH279813   6.727   4.485  11.558  0.0766 -0.3412  0.3081
19441TIP3    H179814   6.653   4.545  11.546 -2.3280 -3.3991 -0.8730
19441TIP3    H279815   6.719   4.455  11.648  1.4095  1.2210  0.9668
19442TIP3   OH279816   6.342   2.213   1.268 -0.9956 -0.2752  0.3391
19442TIP3    H179817   6.423   2.163   1.258 -1.0847 -0.4552  0.5232
19442TIP3    H279818   6.278   2.164   1.217 -0.5872  0.7970 -1.2535
19443TIP3   OH279819   0.482   0.231  14.144 -0.2446  0.5868  0.1592
19443TIP3    H179820   0.538   0.302  14.115 -0.0535  0.5907  0.5345
19443TIP3    H279821   0.498   0.160  14.082  1.5333 -0.0512  1.3168
19444TIP3   OH279822   3.642   0.745  15.762  0.2793  0.0658 -0.5112
19444TIP3    H179823   3.718   0.766  15.708  0.1516  0.0353 -0.7034
19444TIP3    H279824   3.600   0.671  15.718  1.0252 -0.9474  0.4539
19445TIP3   OH279825   5.173   0.427  11.873 -0.1108 -0.2335 -1.0041
19445TIP3    H179826   5.243   0.363  11.868 -0.7638 -1.6037  4.4990
19445TIP3    H279827   5.096   0.382  11.839  0.1758 -1.1362 -0.4507
19446TIP3   OH279828   2.882   3.378   1.336 -0.6031  0.0183 -0.2072
19446TIP3    H179829   2.926   3.432   1.401 -0.7315  1.6819 -1.4764
19446TIP3    H279830   2.911   3.289   1.355 -0.9817  0.3961  2.4034
19447TIP3   OH279831   2.040   6.732  16.279 -0.1963  0.1889 -0.2231
19447TIP3    H179832   2.032   6.786  16.357 -2.0033  1.7257 -1.4303
19447TIP3    H279833   2.098   6.781  16.222 -1.4862  0.6714 -1.1427
19448TIP3   OH279834   4.540   3.385  17.063 -0.1876 -0.4144 -0.2301
19448TIP3    H179835   4.480   3.406  17.134 -0.2757  1.2339 -0.7840
19448TIP3    H279836   4.587   3.307  17.093 -1.1074 -0.4614  1.0886
19449TIP3   OH279837   3.885   6.524   4.547 -0.0440  0.4185  0.2381
19449TIP3    H179838   3.856   6.439   4.582 -1.9783 -0.5786 -3.4998
19449TIP3    H279839   3.826   6.588   4.587 -0.8066 -0.4217  0.4622
19450TIP3   OH279840   1.622   3.705  11.553  0.6896  0.0258  0.8931
19450TIP3    H179841   1.686   3.662  11.609 -0.0236 -1.2215  0.7638
19450TIP3    H279842   1.537   3.684  11.593  0.1465 -1.1344 -0.8181
19451TIP3   OH279843   0.478   1.403   4.176 -0.0065 -0.2851 -0.2179
19451TIP3    H179844   0.430   1.321   4.176 -0.5110  0.0073  0.0283
19451TIP3    H279845   0.454   1.445   4.093 -0.4600  0.0227  0.0666
19452TIP3   OH279846   4.520   1.026   2.491 -0.4176  0.3397  0.0986
19452TIP3    H179847   4.503   1.067   2.407  0.9891 -0.6006 -0.6684
19452TIP3    H279848   4.616   1.020   2.496 -0.5211 -0.4778  1.3328
19453TIP3   OH279849   5.926   2.411  12.063  0.3142  0.1795  0.1920
19453TIP3    H179850   5.953   2.357  12.137  1.7117  0.0741 -0.3747
19453TIP3    H279851   5.855   2.362  12.022  0.2348 -0.2650  0.8533
19454TIP3   OH279852   3.230   2.357   0.608 -0.5842 -0.0554  0.1357
19454TIP3    H179853   3.211   2.451   0.616 -0.0710 -0.0562  1.5097
19454TIP3    H279854   3.194   2.319   0.688  0.0668 -0.8859  0.0321
19455TIP3   OH279855   0.703   2.069   2.242 -0.2800  0.5786  0.9583
19455TIP3    H179856   0.759   2.074   2.165  0.0552 -0.0690  1.1540
19455TIP3    H279857   0.761   2.088   2.316 -0.7349  1.8172  1.0022
19456TIP3   OH279858   1.524   3.906  13.855 -0.0714  0.1792  0.3130
19456TIP3    H179859   1.513   3.993  13.894 -0.3215  0.7702 -1.0650
19456TIP3    H279860   1.577   3.859  13.919 -1.5847  0.6995  2.0053
19457TIP3   OH279861   5.037   2.981   4.702 -0.6666 -0.1292  0.5715
19457TIP3    H179862   5.051   2.973   4.796 -1.3977 -1.8034  0.5747
19457TIP3    H279863   4.947   3.013   4.695 -0.3576  0.7143  0.4482
19458TIP3   OH279864   6.729   0.365  10.980  0.4847 -0.2749 -0.1585
19458TIP3    H179865   6.673   0.294  11.009  2.2498 -1.3846  0.6391
19458TIP3    H279866   6.744   0.348  10.887  0.3739 -0.6015 -0.1180
19459TIP3   OH279867   3.882   5.382   4.753  0.0634 -0.2575 -0.3433
19459TIP3    H179868   3.884   5.418   4.664 -0.4506 -2.1185 -1.1274
19459TIP3    H279869   3.942   5.307   4.750  0.5412  0.0437  1.0695
19460TIP3   OH279870   5.842   6.416   5.011  0.2908 -0.4065 -0.4010
19460TIP3    H179871   5.920   6.410   5.065  0.5175  4.7306  0.0948
19460TIP3    H279872   5.771   6.389   5.069  1.1440 -0.2555  0.7415
19461TIP3   OH279873   1.683   6.803  11.104  0.0338  0.0609 -0.2698
19461TIP3    H179874   1.682   6.893  11.072  0.1910 -0.3284 -1.4039
19461TIP3    H279875   1.598   6.767  11.077  0.3053 -0.3747 -0.5455
19462TIP3   OH279876   6.015   5.234   1.955  0.3096  0.0103  0.1891
19462TIP3    H179877   6.094   5.188   1.983  0.7821  0.0114 -1.1350
19462TIP3    H279878   5.951   5.165   1.938  1.3393 -0.2695 -2.8139
19463TIP3   OH279879   0.411   6.411   1.528  0.5156  0.0473  0.0265
19463TIP3    H179880   0.396   6.371   1.614  2.5120  0.4975  0.6108
19463TIP3    H279881   0.397   6.504   1.543  2.8910  0.3949  0.4175
19464TIP3   OH279882   4.330   0.336  12.004  0.0711 -0.5350  0.0635
19464TIP3    H179883   4.419   0.301  12.011  0.5704  0.7146  0.1621
19464TIP3    H279884   4.297   0.301  11.922  1.2735  0.2904 -0.8094
19465TIP3   OH279885   2.618   1.602   0.163  0.0590 -0.3463  0.6079
19465TIP3    H179886   2.572   1.542   0.105 -0.4304  1.0733 -0.5199
19465TIP3    H279887   2.639   1.677   0.108 -0.1305  0.9103  2.2012
19466TIP3   OH279888   5.498   4.982   4.341 -0.1495 -0.7062 -0.0305
19466TIP3    H179889   5.453   4.979   4.425  0.3867 -2.4998  0.1939
19466TIP3    H279890   5.553   5.061   4.346 -1.7480  0.4055  0.4422
19467TIP3   OH279891   5.448   1.381   1.191  0.1203  0.0219  0.1874
19467TIP3    H179892   5.471   1.391   1.098  1.0507 -0.5142  0.3618
19467TIP3    H279893   5.500   1.448   1.236 -0.2265  0.1887  0.3519
19468TIP3   OH279894   6.049   4.164  13.517 -0.0238  0.4362 -0.0092
19468TIP3    H179895   5.956   4.185  13.509 -0.1166  0.1080  0.2128
19468TIP3    H279896   6.087   4.241  13.560 -0.1254  0.7344 -0.4569
19469TIP3   OH279897   3.022   0.540   2.967  0.2194  0.1854  0.1061
19469TIP3    H179898   3.050   0.582   2.885 -2.2583  0.6617 -0.5337
19469TIP3    H279899   3.060   0.452   2.962  1.8923  0.9096 -0.5213
19470TIP3   OH279900   4.221   5.689  13.662 -0.4422 -0.5658 -0.2074
19470TIP3    H179901   4.282   5.757  13.632 -0.1392 -0.0396  1.5809
19470TIP3    H279902   4.242   5.613  13.607  2.7512 -0.8107  1.2535
19471TIP3   OH279903   0.456   2.594   5.293 -0.0357 -0.2698 -0.4531
19471TIP3    H179904   0.485   2.634   5.211 -0.9003  1.3211  0.0072
19471TIP3    H279905   0.523   2.528   5.313  3.1211  3.0445  0.4038
19472TIP3   OH279906   3.527   3.697   1.770  0.0201 -0.3289 -0.4349
19472TIP3    H179907   3.540   3.725   1.861  2.3637  0.0820 -0.8758
19472TIP3    H279908   3.608   3.652   1.747 -0.8201 -0.9888 -2.1227
19473TIP3   OH279909   0.512   2.476  11.560 -0.2275  0.6784 -0.3176
19473TIP3    H179910   0.570   2.419  11.509  1.0644  0.3854  1.4206
19473TIP3    H279911   0.572   2.535  11.606 -1.4286  1.6354  0.0331
19474TIP3   OH279912   1.814   5.774  14.295 -0.6715  0.2983 -0.1671
19474TIP3    H179913   1.890   5.723  14.265 -0.3772  0.4369  0.3290
19474TIP3    H279914   1.759   5.784  14.218 -0.9920 -1.2428 -0.1390
19475TIP3   OH279915   2.229   2.213  14.200  0.3334 -0.4041 -0.6444
19475TIP3    H179916   2.145   2.227  14.244  1.4782 -0.4285  1.6100
19475TIP3    H279917   2.258   2.127  14.230  1.3177 -0.2603 -1.1626
19476TIP3   OH279918   4.435   5.177   5.092 -0.4939 -0.0488 -0.0468
19476TIP3    H179919   4.452   5.083   5.096  0.1555  0.0012 -1.3848
19476TIP3    H279920   4.354   5.189   5.141 -0.3709 -1.2420  0.4747
19477TIP3   OH279921   0.443   0.801  12.311  0.2215 -0.5336 -0.4556
19477TIP3    H179922   0.410   0.754  12.235 -1.4480 -1.4445  0.8019
19477TIP3    H279923   0.381   0.873  12.323 -0.9336 -1.8308  1.4943
19478TIP3   OH279924   4.505   5.036  11.711  0.0822 -0.4625  0.6966
19478TIP3    H179925   4.420   5.073  11.687  0.5295  0.5662  0.6826
19478TIP3    H279926   4.529   4.981  11.636 -0.0939  0.0589  0.2536
19479TIP3   OH279927   0.427   4.211  16.158  0.1350  0.2394  0.6753
19479TIP3    H179928   0.464   4.128  16.130 -0.3753  0.0348  0.6226
19479TIP3    H279929   0.504   4.264  16.181  0.4596 -0.2366  0.6994
19480TIP3   OH279930   3.683   3.238   3.979  0.0053  0.0667 -0.0958
19480TIP3    H179931   3.661   3.297   3.907  1.2816  0.0591 -0.5126
19480TIP3    H279932   3.746   3.288   4.032 -0.7780 -0.0032  0.9030
19481TIP3   OH279933   5.295   4.800  14.986  0.0060 -0.3787 -0.8343
19481TIP3    H179934   5.327   4.732  14.927 -1.5708  0.1092 -2.2855
19481TIP3    H279935   5.242   4.858  14.931  0.8837  1.7444  0.4711
19482TIP3   OH279936   3.287   3.617   4.684  0.7522  0.2696  0.5840
19482TIP3    H179937   3.335   3.597   4.765  1.5287 -2.2639 -0.4352
19482TIP3    H279938   3.354   3.639   4.621  0.5061 -1.5751 -0.3767
19483TIP3   OH279939   4.673   4.207   4.589  0.1562  0.4513  0.1325
19483TIP3    H179940   4.738   4.276   4.579  1.0706 -0.0604  2.2903
19483TIP3    H279941   4.679   4.157   4.508  1.4643  1.2345 -0.2655
19484TIP3   OH279942   2.633   1.041  11.301 -0.0818  0.4138  0.0694
19484TIP3    H179943   2.570   0.992  11.248 -0.7130  0.9097  0.3473
19484TIP3    H279944   2.691   0.974  11.338  0.3143  0.0584 -1.1713
19485TIP3   OH279945   5.693   2.334   0.671 -0.1477 -0.1445  0.0179
19485TIP3    H179946   5.643   2.407   0.709  1.8894  0.7487  1.0577
19485TIP3    H279947   5.729   2.288   0.746  3.1085  1.0439 -0.7139
19486TIP3   OH279948   0.025   5.147  16.045 -0.4758 -0.6245  0.4617
19486TIP3    H179949  -0.068   5.157  16.064  0.2851  2.2488  2.8288
19486TIP3    H279950   0.044   5.216  15.981 -0.1604 -1.9211 -0.8877
19487TIP3   OH279951   5.298   4.692  12.578 -0.4246 -0.4149  0.1738
19487TIP3    H179952   5.273   4.608  12.540 -1.5892  0.9872 -2.2926
19487TIP3    H279953   5.377   4.718  12.531  1.0627 -1.0295  2.2961
19488TIP3   OH279954   0.075   4.280  14.698 -0.5992  0.2479  0.0837
19488TIP3    H179955   0.058   4.260  14.606 -0.7723 -0.4085  0.2602
19488TIP3    H279956   0.002   4.240  14.745 -0.2200  0.1117  0.5573
19489TIP3   OH279957   5.720   4.675  12.416 -0.7225  0.3094  0.1972
19489TIP3    H179958   5.643   4.618  12.411  0.0887 -0.8765  0.8871
19489TIP3    H279959   5.790   4.618  12.446 -0.0952  1.8771  1.8105
19490TIP3   OH279960   4.465   4.474  15.739  0.1107 -0.5906  0.5438
19490TIP3    H179961   4.470   4.477  15.834 -0.3718  0.3585  0.5421
19490TIP3    H279962   4.554   4.494  15.709  0.4654 -1.7422  0.7992
19491TIP3   OH279963   1.489   1.216   3.223 -0.2077 -0.1320 -0.1786
19491TIP3    H179964   1.461   1.308   3.221  0.6872  0.1653  0.8261
19491TIP3    H279965   1.470   1.184   3.135  1.4532  1.6243 -1.2088
19492TIP3   OH279966   3.851   6.502  11.892  0.2144 -0.2782 -0.3629
19492TIP3    H179967   3.811   6.519  11.977 -0.5375 -1.8117 -0.3993
19492TIP3    H279968   3.935   6.547  11.896  0.3953 -0.7462  1.3675
19493TIP3   OH279969   0.008   6.010  12.995  0.4700 -0.0114 -0.1655
19493TIP3    H179970   0.072   6.023  12.925  0.3359  1.7840  0.0132
19493TIP3    H279971   0.061   6.003  13.075  0.4765  1.0810 -0.0670
19494TIP3   OH279972   3.225   1.180  13.559 -0.0139 -0.6533  0.5857
19494TIP3    H179973   3.208   1.210  13.648 -2.7751 -1.6240  0.4288
19494TIP3    H279974   3.203   1.087  13.561 -0.2967 -0.6359 -1.1718
19495TIP3   OH279975   0.269   4.546  12.688  0.3989  0.6432  0.6491
19495TIP3    H179976   0.194   4.555  12.629  1.1530  1.4601 -0.2090
19495TIP3    H279977   0.244   4.476  12.748  0.3979 -1.5956 -1.8742
19496TIP3   OH279978   3.960   5.348   1.370 -0.0357  0.4508  0.4626
19496TIP3    H179979   3.927   5.391   1.450  1.2009 -0.1483  1.3100
19496TIP3    H279980   3.927   5.403   1.299 -0.6216  1.3665  1.4153
19497TIP3   OH279981   2.211   6.062  14.094 -0.2882  0.1054 -0.4476
19497TIP3    H179982   2.289   6.039  14.144  0.2135 -0.0922 -1.3064
19497TIP3    H279983   2.143   6.075  14.160  0.2409 -0.6324  0.2506
19498TIP3   OH279984   3.447   1.480  16.260  0.0538  0.0444 -0.4690
19498TIP3    H179985   3.407   1.403  16.219  0.1614 -1.1085  1.4761
19498TIP3    H279986   3.540   1.456  16.270  0.5166  1.2831 -1.7732
19499TIP3   OH279987   0.627   4.874   2.533 -0.0626  0.1167  0.5852
19499TIP3    H179988   0.571   4.947   2.563 -0.1253  0.2951  0.0293
19499TIP3    H279989   0.577   4.796   2.557 -0.9877  0.2879 -0.7415
19500TIP3   OH279990   2.774   4.063   1.517  0.2924 -0.1031 -0.1397
19500TIP3    H179991   2.774   4.137   1.578 -0.2855  0.6791 -1.0785
19500TIP3    H279992   2.700   4.009   1.544  0.9649 -0.5655  0.8093
19501TIP3   OH279993   5.476   5.279  16.389 -0.4566  0.5334  0.1606
19501TIP3    H179994   5.491   5.238  16.474  0.1320  1.1281  0.3484
19501TIP3    H279995   5.447   5.367  16.409 -0.9608  0.4637 -0.2523
19502TIP3   OH279996   3.800   0.784   0.872  0.3099  0.4442 -0.3310
19502TIP3    H179997   3.769   0.728   0.800 -1.5357  1.2451 -0.1855
19502TIP3    H279998   3.852   0.851   0.829 -0.4229  0.6652 -0.8854
19503TIP3   OH279999   0.998   0.795   0.978 -0.0844  0.3197  0.1564
19503TIP3    H180000   0.955   0.876   0.949 -0.5768 -0.4797 -1.4385
19503TIP3    H280001   0.926   0.735   0.996  0.3001 -0.6903 -1.5067
19504TIP3   OH280002   1.408   5.823   6.082  0.0965 -0.2887 -0.3299
19504TIP3    H180003   1.386   5.773   6.004 -0.5468 -1.3488  0.5159
19504TIP3    H280004   1.343   5.894   6.085 -0.8571 -1.1702  0.0937
19505TIP3   OH280005   1.543   6.771  13.112 -0.3131  0.0737 -0.6662
19505TIP3    H180006   1.524   6.730  13.027  0.0463  0.5881 -1.0016
19505TIP3    H280007   1.631   6.739  13.134 -1.6561 -2.6091  1.0679
19506TIP3   OH280008   5.235   1.386   2.251 -0.1347 -0.2468 -0.3229
19506TIP3    H180009   5.249   1.473   2.214 -0.5721  0.5017  1.2284
19506TIP3    H280010   5.272   1.391   2.339 -1.0836 -1.3185  0.1538
19507TIP3   OH280011   0.599   3.017   4.320  0.0077 -0.1813  0.4138
19507TIP3    H180012   0.633   2.981   4.402 -0.8616 -2.1293 -0.0405
19507TIP3    H280013   0.589   2.940   4.263 -1.7971  0.8053 -0.6416
19508TIP3   OH280014   0.045   0.227   1.350  0.4423 -0.4142  0.3523
19508TIP3    H180015   0.055   0.284   1.273 -0.4511  1.1541  1.3758
19508TIP3    H280016  -0.003   0.280   1.413  1.1260 -1.7066  1.9947
19509TIP3   OH280017   0.253   3.251   1.317  0.0992 -0.1021 -0.2351
19509TIP3    H180018   0.235   3.320   1.381  0.3412 -0.1821 -0.0820
19509TIP3    H280019   0.278   3.299   1.238  2.7645 -0.0360  0.5953
19510TIP3   OH280020   1.194   1.457  16.633 -0.4884 -0.4172  0.6333
19510TIP3    H180021   1.189   1.458  16.537  0.7810 -0.2930  0.5582
19510TIP3    H280022   1.103   1.453  16.662 -1.0045  1.8239 -0.5675
19511TIP3   OH280023   4.113   4.297   4.311  0.0175 -0.2468  0.1232
19511TIP3    H180024   4.178   4.349   4.263 -0.0228 -0.4158 -0.1161
19511TIP3    H280025   4.036   4.354   4.314 -0.7303 -1.0911 -1.9797
19512TIP3   OH280026   4.148   3.802   2.615 -0.1011  0.0012  0.4131
19512TIP3    H180027   4.198   3.720   2.613  1.8409  1.1675 -0.1071
19512TIP3    H280028   4.126   3.814   2.707  1.6971  0.1072  0.8563
19513TIP3   OH280029   5.107   0.044  15.781 -0.7536  0.1631 -0.2624
19513TIP3    H180030   5.145   0.083  15.702 -0.9153 -0.3932 -0.6163
19513TIP3    H280031   5.033  -0.008  15.749  0.4108 -1.7209  0.0395
19514TIP3   OH280032   5.603   3.603  16.965  0.2367 -0.2972  0.2212
19514TIP3    H180033   5.517   3.585  17.003  1.3683  0.7110  3.3822
19514TIP3    H280034   5.653   3.522  16.979  0.5282 -0.0696  0.4943
19515TIP3   OH280035   2.338   1.827  12.646 -0.1990  0.3304  0.5477
19515TIP3    H180036   2.369   1.904  12.598 -0.0604  1.0111  1.7308
19515TIP3    H280037   2.412   1.766  12.644  0.0292  0.6109  0.4510
19516TIP3   OH280038   3.223   3.740  14.411 -0.8069 -0.0744  0.1332
19516TIP3    H180039   3.266   3.791  14.342 -0.5112 -0.4296  0.0540
19516TIP3    H280040   3.198   3.805  14.477 -2.3332  0.4551 -0.9365
19517TIP3   OH280041   1.594   3.688   3.129 -0.0491 -0.1324 -0.1703
19517TIP3    H180042   1.632   3.672   3.215 -0.5015 -0.4576 -0.0281
19517TIP3    H280043   1.644   3.761   3.094 -1.3660  1.5455  1.3265
19518TIP3   OH280044   4.022   1.265  13.409  0.0629  0.7123 -0.0261
19518TIP3    H180045   3.955   1.228  13.352  2.1884 -1.1482 -1.4162
19518TIP3    H280046   4.022   1.359  13.388 -0.9205  0.4593 -1.2477
19519TIP3   OH280047   2.882   5.279  11.172  0.0582  0.3469  0.1198
19519TIP3    H180048   2.813   5.275  11.105  0.8058 -0.0142 -0.6336
19519TIP3    H280049   2.950   5.335  11.133 -0.1831  1.4277  1.2144
19520TIP3   OH280050   5.871   0.681   4.524  0.8148 -0.0214 -0.1326
19520TIP3    H180051   5.893   0.689   4.617  0.4055 -0.7216  0.0294
19520TIP3    H280052   5.820   0.759   4.505  1.7134  0.5985 -0.0057
19521TIP3   OH280053   3.980   1.362   0.847 -0.0570  0.3519  0.0356
19521TIP3    H180054   3.886   1.366   0.826 -0.0756  0.0902  0.0636
19521TIP3    H280055   4.022   1.344   0.763 -0.1739 -1.2137  0.2975
19522TIP3   OH280056   1.776   0.481  10.498 -0.2325 -0.3321 -0.0128
19522TIP3    H180057   1.840   0.410  10.495  0.6165  0.4465 -0.4434
19522TIP3    H280058   1.809   0.541  10.565 -1.1946 -0.5720  0.6845
19523TIP3   OH280059   6.300   0.892  16.659  0.1879  0.1489 -0.1771
19523TIP3    H180060   6.328   0.965  16.604 -0.4043  0.7649  0.3315
19523TIP3    H280061   6.210   0.914  16.685 -0.1082 -0.9068 -0.2733
19524TIP3   OH280062   1.656   0.204  11.712  0.0111  0.2955 -0.9176
19524TIP3    H180063   1.681   0.210  11.620 -0.3506 -0.4187 -1.0712
19524TIP3    H280064   1.623   0.291  11.735  1.0483  0.7633 -1.1791
19525TIP3   OH280065   2.260   2.275  14.984 -0.5423 -0.2282  0.3982
19525TIP3    H180066   2.249   2.252  15.076 -1.3308 -0.9779  0.1219
19525TIP3    H280067   2.315   2.354  14.985 -0.9338  0.0359  1.5308
19526TIP3   OH280068   0.840   1.954   5.117  0.2414  0.5843  0.3366
19526TIP3    H180069   0.816   1.941   5.208 -1.1649 -2.5926 -0.4178
19526TIP3    H280070   0.775   2.015   5.083 -0.1699  0.5639  1.0810
19527TIP3   OH280071   2.659   3.713   4.595 -0.1074  0.0880 -0.4127
19527TIP3    H180072   2.622   3.785   4.543  0.2385  0.5118 -0.0713
19527TIP3    H280073   2.753   3.723   4.586 -0.0627 -1.2426 -1.6187
19528TIP3   OH280074   1.915   3.207  15.230  0.0147 -0.3070 -0.7658
19528TIP3    H180075   1.887   3.275  15.291  0.2594 -1.3491  0.5227
19528TIP3    H280076   1.835   3.184  15.182 -0.1588  0.5925 -0.9073
19529TIP3   OH280077   1.652   0.439   5.241 -0.0936 -0.3341 -0.2235
19529TIP3    H180078   1.714   0.476   5.304  1.9102 -1.2209 -1.6377
19529TIP3    H280079   1.602   0.374   5.292  0.5322 -0.0249  0.7954
19530TIP3   OH280080   4.082   6.324   2.794 -0.1835  0.2195 -0.0142
19530TIP3    H180081   4.022   6.362   2.858 -0.9695  0.6330 -1.0049
19530TIP3    H280082   4.166   6.321   2.840 -0.6482  0.9190  0.8968
19531TIP3   OH280083   0.353   0.126   0.689 -0.0321  0.2474  0.4702
19531TIP3    H180084   0.296   0.063   0.646  1.9646 -0.7288 -0.8355
19531TIP3    H280085   0.342   0.109   0.782 -0.0748 -1.5667  0.1589
19532TIP3   OH280086   0.316   0.114  16.806 -0.1421 -0.2364  0.3241
19532TIP3    H180087   0.278   0.166  16.736  2.2010  0.4075 -0.5276
19532TIP3    H280088   0.289   0.158  16.887  0.0582  1.0834 -0.3144
19533TIP3   OH280089   3.513   2.783   4.639  0.7674 -0.0679  0.5345
19533TIP3    H180090   3.477   2.870   4.625  0.7490  0.1560  1.8547
19533TIP3    H280091   3.592   2.780   4.586  0.5077  0.5707  0.1029
19534TIP3   OH280092   1.603   4.198  16.562  0.4851  0.1566 -0.2958
19534TIP3    H180093   1.658   4.155  16.497 -0.5181  1.1112 -1.7944
19534TIP3    H280094   1.597   4.289  16.533  1.0388  0.8914  1.8157
19535TIP3   OH280095   5.277   1.639  15.881  0.3201  0.8087  0.2471
19535TIP3    H180096   5.278   1.704  15.810  1.2452  0.8368  0.2740
19535TIP3    H280097   5.369   1.627  15.904  0.1480 -0.3645  0.3828
19536TIP3   OH280098   2.155   0.002  12.458  0.1434 -0.1849 -0.1277
19536TIP3    H180099   2.161  -0.042  12.543  0.7886  0.0089 -0.0697
19536TIP3    H280100   2.115   0.086  12.477 -1.9066 -1.0863 -0.3669
19537TIP3   OH280101   1.098   5.588   2.042  0.0596  0.2284 -0.2387
19537TIP3    H180102   1.182   5.550   2.068  0.0835  0.3783 -0.0926
19537TIP3    H280103   1.067   5.633   2.120 -1.3746 -1.9351  0.4638
19538TIP3   OH280104   4.582   6.012  17.212 -0.4586  0.2751  0.4603
19538TIP3    H180105   4.523   6.030  17.139 -2.1602 -0.9347  1.4981
19538TIP3    H280106   4.637   6.091  17.219  0.1047  0.1816 -2.4398
19539TIP3   OH280107   1.974   2.888   2.806 -0.2051  0.3870 -0.4552
19539TIP3    H180108   1.959   2.794   2.815  0.1306  0.5804  2.5047
19539TIP3    H280109   1.890   2.923   2.775 -0.3876 -0.8402 -1.3726
19540TIP3   OH280110   1.550   5.512  16.106  0.5252  0.1762 -0.5405
19540TIP3    H180111   1.538   5.596  16.062 -0.5608 -0.4497 -1.4644
19540TIP3    H280112   1.568   5.535  16.197 -0.2081  1.4042 -0.6913
19541TIP3   OH280113   4.208   5.158   2.615  0.6800 -0.1347  0.3009
19541TIP3    H180114   4.146   5.165   2.542  1.5913  0.8237 -0.3930
19541TIP3    H280115   4.294   5.173   2.575  1.1198  1.1354  1.6790
19542TIP3   OH280116   0.732   6.550  13.087  0.0518 -0.0998  0.5354
19542TIP3    H180117   0.698   6.461  13.088 -0.5445  0.1241  0.5689
19542TIP3    H280118   0.783   6.556  13.006 -1.2015 -0.0002 -0.2700
19543TIP3   OH280119   6.233   0.931  13.987  0.4232 -0.6871 -0.5538
19543TIP3    H180120   6.154   0.963  13.944  1.1011 -0.5939 -1.7305
19543TIP3    H280121   6.202   0.862  14.045 -1.1013  2.1169  2.1415
19544TIP3   OH280122   1.894   4.725   1.890 -0.1846 -0.5206  0.2437
19544TIP3    H180123   1.871   4.669   1.816 -0.5415  1.2439 -0.9950
19544TIP3    H280124   1.809   4.746   1.930 -0.2785  1.1539 -0.7928
19545TIP3   OH280125   1.422   2.651  13.397 -0.3159  0.7940 -0.3754
19545TIP3    H180126   1.409   2.635  13.304  0.8303  0.8475 -0.5442
19545TIP3    H280127   1.510   2.619  13.415  0.5481  3.3426  0.0980
19546TIP3   OH280128   6.790   6.533   0.379  0.5573  0.0337 -0.1393
19546TIP3    H180129   6.851   6.477   0.330  2.3084  0.1439  1.8878
19546TIP3    H280130   6.814   6.521   0.470 -1.7074  1.0106  0.6187
19547TIP3   OH280131   2.464   4.839  14.603  0.7481 -0.4945 -0.3351
19547TIP3    H180132   2.436   4.811  14.516 -1.2174 -2.0140  0.7362
19547TIP3    H280133   2.406   4.791  14.663  0.3619  2.4736  1.7334
19548TIP3   OH280134   2.524   2.848  13.989 -0.4830 -0.8471 -0.7606
19548TIP3    H180135   2.467   2.783  13.946  0.1229 -0.9260 -1.4575
19548TIP3    H280136   2.529   2.818  14.080  0.2874 -2.1361 -1.2118
19549TIP3   OH280137   2.670   4.260  13.133 -0.4064  0.5105 -0.8044
19549TIP3    H180138   2.612   4.334  13.149  1.2334  1.6303  0.2228
19549TIP3    H280139   2.635   4.190  13.188  0.1214  1.6858  1.1092
19550TIP3   OH280140   1.475   6.786  11.664  0.1415  0.0506 -0.0599
19550TIP3    H180141   1.557   6.793  11.713  0.9431 -1.1210 -1.2099
19550TIP3    H280142   1.442   6.698  11.683 -1.0537  0.6317  0.6708
19551TIP3   OH280143   6.259   6.524  13.066 -0.4096  0.0654  0.0057
19551TIP3    H180144   6.223   6.561  13.147 -3.3962 -1.3439 -0.6073
19551TIP3    H280145   6.219   6.577  12.997  0.1054 -0.4033 -0.6526
19552TIP3   OH280146   5.870   0.316  11.506  0.7839  0.3371 -0.3898
19552TIP3    H180147   5.892   0.224  11.524 -0.7044 -0.3447 -1.9003
19552TIP3    H280148   5.885   0.326  11.412  0.4033  1.4948 -0.3281
19553TIP3   OH280149   4.399   2.165   2.199  0.5658 -0.1249  0.9745
19553TIP3    H180150   4.359   2.102   2.139 -0.3326  0.6203  0.7892
19553TIP3    H280151   4.325   2.203   2.246  0.7135  3.7933 -1.7903
19554TIP3   OH280152   4.625   3.011  13.398 -0.2566  0.0298 -0.3708
19554TIP3    H180153   4.662   3.091  13.437  0.3111 -0.2332 -0.3627
19554TIP3    H280154   4.611   3.034  13.306 -2.0330  0.8016  0.0738
19555TIP3   OH280155   4.485   2.903  17.246 -0.0143 -0.5335 -0.5000
19555TIP3    H180156   4.449   2.860  17.168 -1.3495 -0.9722  0.3379
19555TIP3    H280157   4.445   2.990  17.244 -0.7541 -0.8486  0.1575
19556TIP3   OH280158   0.792   0.965  11.383 -0.1712 -0.1580 -0.2559
19556TIP3    H180159   0.703   0.931  11.375 -0.6129  1.4342 -2.6835
19556TIP3    H280160   0.840   0.896  11.429 -1.9505 -2.3935 -1.6225
19557TIP3   OH280161   4.277   6.251  16.527 -0.3465  0.4487 -0.1250
19557TIP3    H180162   4.351   6.311  16.536 -1.8869  2.2000  1.1509
19557TIP3    H280163   4.200   6.306  16.536 -1.8092 -1.6265  0.4857
19558TIP3   OH280164   3.757   2.635  12.907 -0.3705 -0.0099 -0.2540
19558TIP3    H180165   3.751   2.548  12.948  0.6223 -0.0144 -0.0961
19558TIP3    H280166   3.668   2.670  12.911 -0.8643 -1.1912 -0.6881
19559TIP3   OH280167   0.061   6.663   5.596 -0.3496  0.1179  0.7142
19559TIP3    H180168  -0.007   6.696   5.654 -1.6944 -4.1973  1.7826
19559TIP3    H280169   0.141   6.666   5.649 -0.6667  0.4705  1.1789
19560TIP3   OH280170   3.342   5.640   0.927  0.0407 -0.1084 -0.4283
19560TIP3    H180171   3.369   5.682   1.009  0.1592 -0.8589 -0.0813
19560TIP3    H280172   3.246   5.642   0.929  0.0360 -0.6515  0.0047
19561TIP3   OH280173   3.884   2.315   0.520  0.2741 -0.2394 -0.0049
19561TIP3    H180174   3.843   2.382   0.465  2.0722 -0.1756 -1.3494
19561TIP3    H280175   3.877   2.234   0.468  1.0199 -0.4006  0.1358
19562TIP3   OH280176   5.602   0.030  11.645 -0.2510 -0.7830 -0.8806
19562TIP3    H180177   5.632  -0.018  11.567 -0.8750 -0.8754 -1.0686
19562TIP3    H280178   5.529  -0.021  11.678 -1.1539  0.2102 -1.2865
19563TIP3   OH280179   4.561   0.048  12.700 -0.5754 -0.1613  0.3946
19563TIP3    H180180   4.586   0.044  12.607  0.3758  0.1927  0.6276
19563TIP3    H280181   4.617  -0.017  12.742 -0.9306 -0.2430  0.7407
19564TIP3   OH280182   1.614   5.343   1.409 -0.0448 -0.2222 -0.5050
19564TIP3    H180183   1.701   5.316   1.437  0.4701  1.6069 -0.2891
19564TIP3    H280184   1.554   5.288   1.460  0.9271  0.4153  1.3572
19565TIP3   OH280185   5.203   5.797   6.023 -0.2515  0.6117 -0.3628
19565TIP3    H180186   5.298   5.798   6.030 -0.3970 -0.9775  2.4609
19565TIP3    H280187   5.178   5.705   6.035 -2.1950  1.1728  0.1302
19566TIP3   OH280188   0.246   3.885   3.842  0.0720  0.0307 -0.5403
19566TIP3    H180189   0.262   3.881   3.748 -0.4029  1.7472 -0.7111
19566TIP3    H280190   0.309   3.950   3.874  1.8000 -2.1534  0.7045
19567TIP3   OH280191   1.865   3.729  15.473 -0.6319  0.2618  0.0819
19567TIP3    H180192   1.881   3.799  15.410  0.5877 -0.1506 -0.0869
19567TIP3    H280193   1.905   3.652  15.434 -0.2359 -0.0946  1.1669
19568TIP3   OH280194   5.856   4.046   4.493 -0.1774 -0.0396  0.0173
19568TIP3    H180195   5.800   3.970   4.504 -2.1944  1.2701 -0.8977
19568TIP3    H280196   5.908   4.049   4.573 -2.5238 -0.4083  1.6139
19569TIP3   OH280197   1.051   6.052   2.210  0.1731 -0.0079 -0.5829
19569TIP3    H180198   1.088   6.105   2.281  0.2922  0.9599 -1.3532
19569TIP3    H280199   1.127   6.005   2.173 -0.1493 -1.8188  1.0076
19570TIP3   OH280200   6.799   4.186   2.142 -0.2235 -0.3289 -0.8268
19570TIP3    H180201   6.876   4.133   2.119 -0.9389 -0.8130 -2.1719
19570TIP3    H280202   6.740   4.125   2.185  0.1227  0.0424  0.1989
19571TIP3   OH280203   0.239   2.506   5.120 -0.0587 -0.1134  0.0977
19571TIP3    H180204   0.277   2.509   5.208 -0.9894 -0.8999  0.5420
19571TIP3    H280205   0.145   2.504   5.135 -0.2388  0.3208 -0.9411
19572TIP3   OH280206   2.491   5.554   4.359  0.5476 -0.3579  0.6047
19572TIP3    H180207   2.555   5.529   4.425  1.4010 -1.0672 -0.4703
19572TIP3    H280208   2.460   5.471   4.323  0.1752  0.0219  0.0445
19573TIP3   OH280209   2.123   2.694   6.906 -0.7991 -0.0871  0.3037
19573TIP3    H180210   2.078   2.665   6.827 -1.0023  0.8025  0.0828
19573TIP3    H280211   2.184   2.623   6.927 -0.0165  0.1183 -1.2441
19574TIP3   OH280212   4.665   3.294   3.214  0.0477  0.0886  0.0828
19574TIP3    H180213   4.607   3.369   3.229 -0.3530 -0.8253  3.2821
19574TIP3    H280214   4.752   3.333   3.206 -0.0842  0.8734  2.2670
19575TIP3   OH280215   0.957   3.977  12.972 -0.1107  0.0492  0.4488
19575TIP3    H180216   0.962   3.893  13.018  2.9192  0.1343  0.3560
19575TIP3    H280217   0.954   4.042  13.042  3.2456  0.1090  0.6209
19576TIP3   OH280218   1.348   6.205   2.346 -0.1266  0.1209 -0.1503
19576TIP3    H180219   1.340   6.264   2.422  1.4006 -0.0198  0.1324
19576TIP3    H280220   1.397   6.255   2.282  1.3922 -0.9115  0.1815
19577TIP3   OH280221   3.744   6.712   0.207 -0.0378 -0.0999 -0.4414
19577TIP3    H180222   3.792   6.631   0.223 -1.7490 -0.8034  1.2618
19577TIP3    H280223   3.662   6.684   0.165 -0.3313  0.7977 -0.4933
19578TIP3   OH280224   6.003   4.411   0.323  0.0581 -0.0037 -0.5806
19578TIP3    H180225   6.028   4.496   0.358 -0.8661  0.8933 -2.0721
19578TIP3    H280226   6.062   4.396   0.250 -0.5306 -0.1278 -1.0299
19579TIP3   OH280227   1.241   4.049  12.862 -0.1115  0.3350 -0.0517
19579TIP3    H180228   1.180   4.004  12.921  0.4357 -2.0716 -1.2480
19579TIP3    H280229   1.195   4.129  12.836 -1.0685  0.5697  2.2337
19580TIP3   OH280230   6.187   1.932   0.840 -0.1254  0.1300  0.6272
19580TIP3    H180231   6.236   1.987   0.901  1.5836  0.6191 -1.1545
19580TIP3    H280232   6.253   1.889   0.787 -1.5764 -0.7201 -0.5400
19581TIP3   OH280233   3.351   0.656   6.264 -0.2346 -0.1075 -0.2337
19581TIP3    H180234   3.316   0.577   6.224  0.4196  0.7536 -2.5617
19581TIP3    H280235   3.287   0.679   6.332 -1.5559 -1.3788 -1.0253
19582TIP3   OH280236   0.092   0.315  13.848  0.1919 -0.4669 -0.5634
19582TIP3    H180237   0.078   0.261  13.925  0.7150  1.3641  0.8708
19582TIP3    H280238   0.006   0.353  13.830  0.3822  0.2630  0.0379
19583TIP3   OH280239   6.751   2.691   0.583  0.2205  0.6136 -0.1476
19583TIP3    H180240   6.713   2.604   0.571 -0.4199  0.9429 -0.5417
19583TIP3    H280241   6.845   2.677   0.579  0.1092  0.3451 -3.3615
19584TIP3   OH280242   2.750   1.060   0.612 -0.3384 -0.1987 -0.4474
19584TIP3    H180243   2.667   1.108   0.604  0.8555  2.1193  0.5846
19584TIP3    H280244   2.725   0.975   0.648 -2.2665  0.4573 -0.1752
19585TIP3   OH280245   6.539   5.719   4.784 -0.0136  0.0812 -0.5503
19585TIP3    H180246   6.459   5.692   4.740  0.4031 -0.6038 -0.9038
19585TIP3    H280247   6.556   5.650   4.847  0.1685  0.3463 -0.3070
19586TIP3   OH280248   1.745   2.710   5.884 -0.5032 -0.0543 -0.2649
19586TIP3    H180249   1.732   2.683   5.975 -1.7995  1.2360 -0.0660
19586TIP3    H280250   1.706   2.639   5.833 -1.9669  0.3857  0.2273
19587TIP3   OH280251   5.747   4.791  15.370  0.4243  0.0107 -0.3454
19587TIP3    H180252   5.695   4.734  15.313 -2.1019 -0.3135  2.1642
19587TIP3    H280253   5.791   4.731  15.429  1.4599  0.4537 -0.6562
19588TIP3   OH280254   3.720   0.740  17.091  0.3566  0.1949  1.1583
19588TIP3    H180255   3.699   0.798  17.164  0.9611 -0.0901  1.5609
19588TIP3    H280256   3.695   0.653  17.121 -1.4151  0.3470  0.2067
19589TIP3   OH280257   5.038   1.622  16.623 -0.3802 -0.2688 -0.6193
19589TIP3    H180258   5.091   1.549  16.593  0.5307  0.9198 -1.9432
19589TIP3    H280259   5.061   1.631  16.716  1.1888 -0.2363 -0.9944
19590TIP3   OH280260   1.090   0.745  11.355  0.7028  0.6477 -1.1307
19590TIP3    H180261   1.076   0.839  11.367  0.9913  0.5914 -0.3049
19590TIP3    H280262   1.004   0.711  11.331 -0.1892  0.6011  1.9805
19591TIP3   OH280263   5.061   1.960  16.930 -0.1846  0.5659  0.2644
19591TIP3    H180264   5.057   1.976  16.836  0.1166  2.2935  0.5324
19591TIP3    H280265   4.976   1.921  16.951  0.0513 -0.5894 -0.8430
19592TIP3   OH280266   0.357   3.292   3.499 -0.2570  0.2150 -0.0161
19592TIP3    H180267   0.349   3.329   3.411  1.4845  0.7680  0.0207
19592TIP3    H280268   0.321   3.359   3.557  1.9157  1.4449 -0.0371
19593TIP3   OH280269   2.545   0.655  11.915  0.4802 -0.1953 -0.0975
19593TIP3    H180270   2.599   0.584  11.881  1.5099  0.9026 -0.7853
19593TIP3    H280271   2.580   0.734  11.873 -0.4993  0.7469  0.8349
19594TIP3   OH280272   4.521   4.416  12.624  0.3442 -0.3758  0.3795
19594TIP3    H180273   4.597   4.420  12.566 -1.1641  2.1764 -1.5640
19594TIP3    H280274   4.557   4.395  12.710  3.0606 -0.5816 -0.7475
19595TIP3   OH280275   1.860   4.561   1.673 -0.0244  0.3788  0.0646
19595TIP3    H180276   1.922   4.520   1.733  0.2357 -0.3401 -0.6827
19595TIP3    H280277   1.887   4.531   1.586  0.8491  3.0007 -0.6355
19596TIP3   OH280278   4.815   2.447   5.686  0.8185  0.0334 -0.3684
19596TIP3    H180279   4.782   2.535   5.706  0.9826  0.0657 -0.2409
19596TIP3    H280280   4.895   2.439   5.737  1.4191  0.2361 -1.2675
19597TIP3   OH280281   4.033   3.270  14.449  0.5769 -0.4861  0.1214
19597TIP3    H180282   4.018   3.336  14.382  1.2074 -0.3986  0.0618
19597TIP3    H280283   4.037   3.187  14.401  1.4574 -0.3762 -0.0095
19598TIP3   OH280284   4.021   0.120   2.225  0.2186 -0.3599 -0.1119
19598TIP3    H180285   3.958   0.081   2.287  0.8761 -0.0253  0.7714
19598TIP3    H280286   4.089   0.054   2.215  0.1399 -0.3913 -0.4369
19599TIP3   OH280287   3.665   4.317  17.205 -0.2848 -0.1381 -0.2645
19599TIP3    H180288   3.591   4.373  17.184 -0.4305  0.2090  1.1537
19599TIP3    H280289   3.681   4.331  17.298  2.8741  1.3648 -0.9506
19600TIP3   OH280290   0.564   1.143   0.120  0.6100  0.2463 -0.6002
19600TIP3    H180291   0.511   1.212   0.159 -0.1470  0.3019 -1.7168
19600TIP3    H280292   0.631   1.189   0.071  0.7318  0.1809 -0.4950
19601TIP3   OH280293   5.684   2.887   0.659 -0.0749 -0.0451 -0.3125
19601TIP3    H180294   5.685   2.801   0.616  2.2690 -0.2127  0.0590
19601TIP3    H280295   5.654   2.947   0.590 -0.9803 -1.0225 -0.7907
19602TIP3   OH280296   2.117   1.203  11.293 -0.2586 -0.3795 -0.0191
19602TIP3    H180297   2.090   1.289  11.325 -1.6207 -1.2414  1.2223
19602TIP3    H280298   2.191   1.221  11.235  2.0352  1.3454  3.2244
19603TIP3   OH280299   5.716   1.021   4.233  0.2000  0.1280  0.5022
19603TIP3    H180300   5.631   0.977   4.228  0.8938 -1.8433  4.2880
19603TIP3    H280301   5.778   0.956   4.199  0.5854  0.1345  1.1726
19604TIP3   OH280302   3.519   0.305  14.700 -0.3383  0.4145  0.0048
19604TIP3    H180303   3.566   0.356  14.765  0.7130 -1.5384  0.8098
19604TIP3    H280304   3.429   0.300  14.734 -0.1786  0.7532  0.4799
19605TIP3   OH280305   1.306   0.179   0.464 -0.5441  0.1591 -0.4589
19605TIP3    H180306   1.335   0.233   0.537 -0.2231  0.9371 -1.1506
19605TIP3    H280307   1.211   0.175   0.473 -0.3469 -1.3712  1.1097
19606TIP3   OH280308   0.638   2.270  13.605 -0.7962  0.3523 -0.1173
19606TIP3    H180309   0.551   2.284  13.569 -0.9356  1.4498  0.6011
19606TIP3    H280310   0.653   2.176  13.597 -1.0565  0.4823 -2.4341
19607TIP3   OH280311   4.009   5.621   3.488  0.0540  0.0933 -0.9724
19607TIP3    H180312   3.983   5.549   3.546 -0.6593  1.4810  0.4998
19607TIP3    H280313   3.954   5.611   3.411  1.4127 -2.1293 -1.6907
19608TIP3   OH280314   1.336   0.943   1.788  0.1528  0.2680 -0.1641
19608TIP3    H180315   1.363   1.006   1.721  1.8482 -0.2730 -0.0214
19608TIP3    H280316   1.367   0.981   1.871 -1.3310  0.6060  0.2433
19609TIP3   OH280317   0.338   1.052  11.341 -0.4198 -0.5354  0.2158
19609TIP3    H180318   0.325   1.004  11.260 -0.7170 -1.7741  0.9787
19609TIP3    H280319   0.432   1.073  11.342 -0.2154 -1.4199  0.0452
19610TIP3   OH280320   5.890   3.055   2.808 -0.2148  0.2304  0.0057
19610TIP3    H180321   5.970   3.006   2.791 -0.0115  0.5281  0.1062
19610TIP3    H280322   5.832   2.991   2.851  0.0223  0.0605  0.0742
19611TIP3   OH280323   4.644   5.067   1.726  0.5663 -0.1072  0.6340
19611TIP3    H180324   4.603   4.984   1.753  0.8844  0.1310  1.8985
19611TIP3    H280325   4.683   5.048   1.641 -0.1465 -1.0044  0.5012
19612TIP3   OH280326   1.806   0.539   2.161 -0.1192 -0.5805 -0.2944
19612TIP3    H180327   1.785   0.484   2.237  0.7631 -1.9158 -1.0047
19612TIP3    H280328   1.843   0.478   2.097  1.8573  1.0096 -0.6998
19613TIP3   OH280329   2.305   4.944   3.232 -0.2339 -0.0891 -0.2115
19613TIP3    H180330   2.276   4.866   3.280  2.1220 -1.8318 -1.5261
19613TIP3    H280331   2.370   4.984   3.290 -0.1844 -0.0685 -0.2816
19614TIP3   OH280332   3.610   5.502  15.986  0.8956 -0.3986  0.7476
19614TIP3    H180333   3.568   5.454  16.057  1.4481 -0.0937  1.2856
19614TIP3    H280334   3.538   5.540  15.936  0.5155 -0.4387  1.2669
19615TIP3   OH280335   1.819   2.296  16.689  0.0795  0.3033  0.6069
19615TIP3    H180336   1.895   2.310  16.747 -0.0843 -0.3029  0.9706
19615TIP3    H280337   1.845   2.222  16.634  1.2005  2.3760 -1.7411
19616TIP3   OH280338   5.138   1.128  10.676  0.0717 -0.4339 -0.4195
19616TIP3    H180339   5.216   1.182  10.660  0.6617 -0.7335  1.3804
19616TIP3    H280340   5.157   1.046  10.630  0.6033 -0.3163 -0.4178
19617TIP3   OH280341   5.126   4.247  10.769 -0.0819 -0.2393  0.1108
19617TIP3    H180342   5.108   4.235  10.862 -1.5924 -1.4694 -0.3302
19617TIP3    H280343   5.096   4.336  10.751 -0.0477 -0.0979  0.7344
19618TIP3   OH280344   3.428   0.086  13.290 -0.3893  0.9009 -0.2663
19618TIP3    H180345   3.480   0.117  13.216 -0.5322  0.0545 -0.7321
19618TIP3    H280346   3.461   0.134  13.365  2.9865 -1.5877 -0.0469
19619TIP3   OH280347   4.167   0.359   2.478 -0.2304 -0.7482 -0.1624
19619TIP3    H180348   4.116   0.361   2.397  0.2203 -0.5350 -0.4401
19619TIP3    H280349   4.101   0.347   2.547 -0.4535 -3.0396 -0.7171
19620TIP3   OH280350   1.662   5.009  11.265 -0.3218  0.3627  0.7735
19620TIP3    H180351   1.705   5.058  11.335  0.7342  0.7988 -0.1708
19620TIP3    H280352   1.647   5.073  11.196 -0.2157 -0.3325  0.0926
19621TIP3   OH280353   1.275   4.965   0.245 -0.3572  0.5176  0.2008
19621TIP3    H180354   1.298   5.055   0.271  0.9464  0.3363 -0.2943
19621TIP3    H280355   1.185   4.954   0.275  0.1655  1.2807  2.1029
19622TIP3   OH280356   2.681   3.867   0.416 -0.0748  0.2567  0.1209
19622TIP3    H180357   2.700   3.784   0.372  1.5049  0.1125  1.0433
19622TIP3    H280358   2.604   3.901   0.370 -0.7721 -1.7237 -0.2452
19623TIP3   OH280359   1.566   0.405  17.139  0.9153  0.0935  0.0027
19623TIP3    H180360   1.588   0.368  17.225 -0.0390  0.0034  0.2073
19623TIP3    H280361   1.478   0.439  17.150  1.1947  1.0296 -0.6459
19624TIP3   OH280362   5.207   4.304   2.641 -0.5350  0.6884  0.1604
19624TIP3    H180363   5.303   4.305   2.643 -0.4508  0.6627 -1.9508
19624TIP3    H280364   5.181   4.297   2.732  1.4671  1.7393  0.8516
19625TIP3   OH280365   4.390   1.217   2.850  0.3927  0.0535  0.2367
19625TIP3    H180366   4.483   1.197   2.858  0.6734  0.3294 -2.0419
19625TIP3    H280367   4.380   1.303   2.892  1.1143 -0.0793  0.6794
19626TIP3   OH280368   1.918   5.012  12.674 -0.4414 -0.0327  0.1441
19626TIP3    H180369   1.878   5.095  12.647 -0.9968 -1.0408 -2.1663
19626TIP3    H280370   1.869   4.945  12.628  2.0100 -1.4765 -0.4654
19627TIP3   OH280371   6.188   0.666  14.087 -0.5372  0.5085  0.3244
19627TIP3    H180372   6.278   0.639  14.109 -0.3220  0.6121 -0.4094
19627TIP3    H280373   6.133   0.615  14.147  0.1278  2.4955  2.7046
19628TIP3   OH280374   3.980   4.384   4.668  0.7975  0.5028 -0.6696
19628TIP3    H180375   4.036   4.456   4.699 -0.7959  0.8230  1.5584
19628TIP3    H280376   3.900   4.428   4.639 -0.9298 -0.4881  2.4504
19629TIP3   OH280377   0.905   0.276  11.701  0.2458 -0.4936  0.7009
19629TIP3    H180378   0.939   0.187  11.688 -1.5755 -1.2669  1.1292
19629TIP3    H280379   0.948   0.328  11.633 -1.8626 -2.5578 -2.3203
19630TIP3   OH280380   2.251   6.404   2.611 -0.0608  0.0570  0.8971
19630TIP3    H180381   2.328   6.357   2.644 -1.5419 -2.5318  0.7279
19630TIP3    H280382   2.221   6.455   2.686 -0.9742 -2.6354  2.4478
19631TIP3   OH280383   6.344   6.637   5.745 -0.5747 -0.2433 -0.4335
19631TIP3    H180384   6.407   6.630   5.817 -0.2240 -1.9407 -0.8802
19631TIP3    H280385   6.325   6.730   5.739 -0.7515 -0.0993  1.9700
19632TIP3   OH280386   5.376   0.576  15.000 -0.2327  0.0057 -0.6884
19632TIP3    H180387   5.396   0.666  15.023 -0.1625 -0.4398  1.0531
19632TIP3    H280388   5.435   0.523  15.054 -1.4856 -1.1277 -0.3949
19633TIP3   OH280389   4.545   4.278  13.586  0.4583 -0.4523 -0.6034
19633TIP3    H180390   4.451   4.260  13.581  0.0260  1.5622 -0.2290
19633TIP3    H280391   4.553   4.345  13.655  1.8214  1.5463 -2.6223
19634TIP3   OH280392   5.146   1.385   6.424 -0.5363 -0.5842 -0.0044
19634TIP3    H180393   5.212   1.449   6.449 -1.4536  0.1162  0.6522
19634TIP3    H280394   5.196   1.308   6.395  0.6024  0.9829 -2.3695
19635TIP3   OH280395   1.909   1.544   1.709  0.2020 -0.2593  0.2492
19635TIP3    H180396   1.832   1.594   1.681 -0.5764  0.3501  3.2158
19635TIP3    H280397   1.965   1.540   1.632 -1.8794  1.0871 -1.3877
19636TIP3   OH280398   0.217   0.633   6.062  0.2454 -0.1337  0.2306
19636TIP3    H180399   0.232   0.560   6.002 -1.5926 -1.4127  1.2820
19636TIP3    H280400   0.304   0.649   6.101  1.3616  0.4436 -2.3845
19637TIP3   OH280401   0.943   6.800  11.688 -0.7624 -0.1010  0.4062
19637TIP3    H180402   1.008   6.772  11.624  0.3182  1.4467  0.7883
19637TIP3    H280403   0.970   6.758  11.770  0.1265  0.9834  0.6933
19638TIP3   OH280404   4.525   5.379  14.229 -0.2835  0.5408  0.0995
19638TIP3    H180405   4.595   5.356  14.290  1.3939  2.8418 -0.8635
19638TIP3    H280406   4.464   5.432  14.280  1.1350  2.4934 -0.1742
19639TIP3   OH280407   3.685   4.608  12.113 -0.2282 -0.2674  0.2105
19639TIP3    H180408   3.614   4.658  12.075 -0.7319 -1.3591 -0.3063
19639TIP3    H280409   3.655   4.517  12.110  0.8659 -0.6585  0.6837
19640TIP3   OH280410   1.505   6.141  17.144 -0.3253 -0.6475  0.0041
19640TIP3    H180411   1.415   6.170  17.131 -0.2298  0.1274  1.0126
19640TIP3    H280412   1.551   6.220  17.174  0.1999 -1.5554  1.6120
19641TIP3   OH280413   4.900   2.773   1.792  0.6150  0.7929  0.3234
19641TIP3    H180414   4.821   2.789   1.844 -0.2525 -0.3383 -0.6283
19641TIP3    H280415   4.928   2.859   1.763 -2.3427  0.9286 -2.3389
19642TIP3   OH280416   2.557   1.067  15.986 -0.0109 -0.4692  0.1542
19642TIP3    H180417   2.613   1.054  16.063 -0.2398 -1.0299  0.2281
19642TIP3    H280418   2.606   1.128  15.931 -1.4769  2.8894  2.4228
19643TIP3   OH280419   0.888   1.707   4.011  0.0110 -0.2775  0.6144
19643TIP3    H180420   0.981   1.729   4.004 -0.2909  1.0009  0.4778
19643TIP3    H280421   0.887   1.626   4.063  1.2972 -1.3981 -1.0301
19644TIP3   OH280422   1.769   2.588   2.218  0.3117 -0.0059 -0.1488
19644TIP3    H180423   1.825   2.660   2.189 -1.8671  1.6794 -0.2321
19644TIP3    H280424   1.694   2.631   2.260 -1.3969 -2.1913 -0.8805
19645TIP3   OH280425   5.577   5.573  13.791  0.2465 -0.4387  0.5378
19645TIP3    H180426   5.624   5.647  13.831 -1.5774  0.5939  0.8180
19645TIP3    H280427   5.488   5.581  13.824 -0.1960 -2.2270 -0.1936
19646TIP3   OH280428   0.974   5.517  14.812  0.0069  0.3714  0.2063
19646TIP3    H180429   1.052   5.463  14.798  1.0252  1.5834  1.0968
19646TIP3    H280430   0.986   5.555  14.899 -0.8699  1.7096 -0.2365
19647TIP3   OH280431   2.099   6.233   3.283 -0.7241 -0.9322 -0.1622
19647TIP3    H180432   2.013   6.259   3.315 -0.8775 -0.3690 -1.0132
19647TIP3    H280433   2.081   6.180   3.206 -0.2905 -0.3892 -0.6355
19648TIP3   OH280434   0.040   5.123  17.271 -0.0773 -0.1062  0.0614
19648TIP3    H180435  -0.021   5.124  17.197 -0.2570  1.8981  0.2090
19648TIP3    H280436   0.099   5.196  17.254 -0.5331  0.7888  2.2377
19649TIP3   OH280437   3.590   2.688  15.649 -0.1243  0.2148 -0.3581
19649TIP3    H180438   3.671   2.730  15.679 -0.3305  1.3678 -1.3860
19649TIP3    H280439   3.612   2.656  15.561 -0.8900  0.8228 -0.7679
19650TIP3   OH280440   1.109   5.212  12.920  0.6375 -0.0643  0.5932
19650TIP3    H180441   1.188   5.250  12.882 -0.6138  1.9143 -0.1027
19650TIP3    H280442   1.138   5.128  12.957  2.8109  0.1027 -0.6457
19651TIP3   OH280443   3.471   1.978   1.457  0.7503 -0.5247  0.4233
19651TIP3    H180444   3.450   2.004   1.368  0.1693 -1.3995  0.2931
19651TIP3    H280445   3.555   2.020   1.476 -0.8039  2.6008  0.7357
19652TIP3   OH280446   3.337   0.257   0.266 -0.1648  0.3343 -0.2493
19652TIP3    H180447   3.359   0.174   0.308 -0.0720  0.5278  0.0809
19652TIP3    H280448   3.391   0.259   0.187 -0.5844 -0.1824 -0.5604
19653TIP3   OH280449   5.981   2.566   3.707  0.0262  0.2878 -0.1029
19653TIP3    H180450   5.959   2.524   3.623 -2.2986  0.0627  0.5794
19653TIP3    H280451   6.068   2.534   3.727  0.0001 -0.8679 -1.6983
19654TIP3   OH280452   0.675   3.679   0.636  0.2978  0.4274 -0.2371
19654TIP3    H180453   0.733   3.710   0.567  1.6836 -0.0116  0.6896
19654TIP3    H280454   0.611   3.748   0.648  0.4827  0.8087 -1.4710
19655TIP3   OH280455   3.141   0.291   2.716  0.0871 -0.0757  0.2618
19655TIP3    H180456   3.158   0.374   2.672  0.1886  0.5068  1.3825
19655TIP3    H280457   3.046   0.288   2.726  0.1681  0.3973  1.1684
19656TIP3   OH280458   6.310   5.268   4.603  0.3954 -0.0071 -0.5632
19656TIP3    H180459   6.291   5.355   4.568  2.1581  0.0684 -1.3780
19656TIP3    H280460   6.387   5.238   4.555 -0.3207 -2.1299 -0.4671
19657TIP3   OH280461   3.834   3.773  14.800 -0.4304 -0.8627  0.4189
19657TIP3    H180462   3.912   3.751  14.851  0.1787 -1.6681 -0.8598
19657TIP3    H280463   3.790   3.841  14.852 -0.3622 -2.3826  2.5263
19658TIP3   OH280464   4.234   1.944  16.085  0.4161 -0.0772 -0.4023
19658TIP3    H180465   4.225   1.871  16.146  0.6309 -1.0151 -1.4523
19658TIP3    H280466   4.156   1.997  16.097  0.0496 -0.7257  0.0742
19659TIP3   OH280467   3.108   2.303   1.346  1.0032  0.1119 -0.1068
19659TIP3    H180468   3.135   2.370   1.408  0.4644  1.3592 -1.1780
19659TIP3    H280469   3.184   2.293   1.288  0.8209  0.3700 -0.3994
19660TIP3   OH280470   3.258   2.623  13.696 -0.8966 -0.0183  0.2878
19660TIP3    H180471   3.253   2.560  13.768 -0.0323 -1.4846 -0.8879
19660TIP3    H280472   3.191   2.594  13.635  1.1628 -1.3668 -1.4185
19661TIP3   OH280473   5.770   4.238  13.539 -0.0809  0.0952 -0.4002
19661TIP3    H180474   5.757   4.285  13.622  1.3762  2.0752 -1.2509
19661TIP3    H280475   5.724   4.291  13.474 -1.2933 -1.4942 -0.8890
19662TIP3   OH280476   3.664   3.260  15.275  0.0996 -0.7609 -0.2849
19662TIP3    H180477   3.682   3.170  15.302  2.0403 -0.7747 -1.5499
19662TIP3    H280478   3.738   3.311  15.310  0.6750 -0.1848 -2.3005
19663TIP3   OH280479   2.052   4.154   2.505  0.2431 -0.1076  0.1266
19663TIP3    H180480   2.067   4.248   2.505  0.1572 -0.0443 -3.2896
19663TIP3    H280481   1.974   4.142   2.559  0.4848  1.7288  0.9096
19664TIP3   OH280482   2.846   0.724   4.916 -0.3074 -0.1282 -0.1693
19664TIP3    H180483   2.798   0.803   4.893  2.1853  1.6713  0.5662
19664TIP3    H280484   2.855   0.729   5.011  2.1589  0.1021 -0.3904
19665TIP3   OH280485   5.271   5.491   1.832 -0.1607 -0.2882  0.3223
19665TIP3    H180486   5.238   5.405   1.857  0.5081 -0.3840  0.8712
19665TIP3    H280487   5.366   5.485   1.842 -0.2034  0.8871  1.5592
19666TIP3   OH280488   0.740   0.519   4.261  0.1725  0.5979  0.1142
19666TIP3    H180489   0.647   0.511   4.238 -0.1339 -0.2718  1.6117
19666TIP3    H280490   0.759   0.612   4.252 -0.1291  0.4320 -2.8240
19667TIP3   OH280491   1.034   3.627   2.258  0.4224 -0.0899  0.1417
19667TIP3    H180492   1.090   3.593   2.328  0.4274  1.4480  0.9040
19667TIP3    H280493   1.091   3.686   2.209  0.3409 -0.9599 -1.0077
19668TIP3   OH280494   4.508   6.194  15.687 -0.9229 -0.1209  0.0338
19668TIP3    H180495   4.444   6.159  15.748 -1.9925 -1.3142 -1.7152
19668TIP3    H280496   4.528   6.121  15.629  3.2232 -0.2149  1.4683
19669TIP3   OH280497   2.187   2.136   4.957 -0.1734  0.3090  0.3080
19669TIP3    H180498   2.239   2.195   4.904  3.2944 -3.2573 -0.5013
19669TIP3    H280499   2.104   2.128   4.911  0.0611  2.9149 -0.6069
19670TIP3   OH280500   4.656   3.900   0.148 -0.3411 -0.3377  0.4907
19670TIP3    H180501   4.592   3.926   0.082 -0.4782 -1.1077  0.3148
19670TIP3    H280502   4.728   3.962   0.138 -0.2822 -0.5621 -0.5030
19671TIP3   OH280503   0.432   3.070  17.225  0.4250  0.4212  0.1475
19671TIP3    H180504   0.426   2.980  17.193  1.4920  0.0753  0.9045
19671TIP3    H280505   0.398   3.123  17.153 -1.4099 -0.6725  0.1774
19672TIP3   OH280506   6.465   4.810   2.876 -0.2019 -0.3825  0.1086
19672TIP3    H180507   6.546   4.825   2.828 -1.6077  1.2910 -1.8708
19672TIP3    H280508   6.437   4.898   2.903 -2.4779 -0.6729 -1.1692
19673TIP3   OH280509   6.504   3.523   1.152 -0.3279  0.4006 -1.2669
19673TIP3    H180510   6.492   3.436   1.189  1.6266 -0.4488 -2.5801
19673TIP3    H280511   6.424   3.539   1.101 -0.4725 -0.8185 -1.4307
19674TIP3   OH280512   4.735   4.190  14.320 -0.1442 -0.7210 -0.0610
19674TIP3    H180513   4.674   4.240  14.265  0.4692 -0.1881 -0.2629
19674TIP3    H280514   4.772   4.124  14.261 -0.9282 -1.4089  0.1980
19675TIP3   OH280515   4.464   0.259   6.457  0.1431 -0.1941  0.4551
19675TIP3    H180516   4.466   0.220   6.544 -0.8826 -3.9692 -1.1347
19675TIP3    H280517   4.373   0.286   6.445 -0.1898 -1.5704 -0.2107
19676TIP3   OH280518   4.712   3.648   0.064  0.1951  0.4591  0.0038
19676TIP3    H180519   4.730   3.604   0.147  2.9738 -0.1095 -0.8794
19676TIP3    H280520   4.705   3.741   0.088  0.4393  0.2445  0.9362
19677TIP3   OH280521   0.896   3.017   4.867 -0.2976 -0.5442 -0.4136
19677TIP3    H180522   0.974   2.998   4.919 -0.1038 -0.5147 -0.6872
19677TIP3    H280523   0.924   3.085   4.806 -0.9653  0.5230  0.4782
19678TIP3   OH280524   3.185   2.067  12.836  0.2901 -0.0259  0.3064
19678TIP3    H180525   3.251   2.004  12.809  0.1097  0.4297 -1.2465
19678TIP3    H280526   3.221   2.152  12.811 -0.5166  0.2929  0.1968
19679TIP3   OH280527   2.284   4.973  14.200 -0.6216  0.2872  0.0873
19679TIP3    H180528   2.217   5.009  14.142 -0.8474  0.0698  0.2109
19679TIP3    H280529   2.259   5.003  14.288 -0.1449  0.8185  0.0452
19680TIP3   OH280530   1.657   5.497  17.135 -0.0081  0.3899  0.4966
19680TIP3    H180531   1.608   5.507  17.054  0.2518  0.7915  0.3886
19680TIP3    H280532   1.747   5.481  17.106  0.4196  2.3099  0.7124
19681TIP3   OH280533   3.858   1.530  11.969 -0.5135  0.7763  0.4712
19681TIP3    H180534   3.817   1.466  11.911 -0.7576 -0.1963  1.6972
19681TIP3    H280535   3.927   1.570  11.916 -1.4984  0.7504 -0.8528
19682TIP3   OH280536   0.521   4.039   3.372 -0.4037  0.6133  0.3493
19682TIP3    H180537   0.438   4.014   3.329  0.0044 -3.2000  1.5375
19682TIP3    H280538   0.588   3.993   3.321  0.5907  0.4237  1.8153
19683TIP3   OH280539   5.124   0.304  12.776  0.8507  0.1188 -0.0001
19683TIP3    H180540   5.056   0.365  12.804 -0.1116 -1.3179  0.8369
19683TIP3    H280541   5.080   0.249  12.711  1.3453 -0.5424  0.2327
19684TIP3   OH280542   3.919   0.731  16.478  0.2597 -0.0428 -0.2615
19684TIP3    H180543   3.846   0.782  16.442  0.0749 -0.7057 -0.8243
19684TIP3    H280544   3.989   0.795  16.490 -0.3623  0.5788  0.1588
19685TIP3   OH280545   5.217   0.509  11.106  0.1889  0.0361 -0.1951
19685TIP3    H180546   5.208   0.526  11.013 -3.0256  1.6429  0.3432
19685TIP3    H280547   5.244   0.593  11.143  0.2777 -0.2918  0.4945
19686TIP3   OH280548   6.658   6.646   0.003  0.1225 -0.4722 -0.6803
19686TIP3    H180549   6.722   6.579  -0.021  1.5928  0.9105 -0.7047
19686TIP3    H280550   6.577   6.598   0.016  1.0691 -2.2127 -1.0497
19687TIP3   OH280551   5.653   2.442   4.159 -0.5462 -0.4280  0.3537
19687TIP3    H180552   5.623   2.416   4.071  1.3776  0.3360 -0.5588
19687TIP3    H280553   5.657   2.537   4.156 -0.5822 -0.3963  1.3143
19688TIP3   OH280554   4.891   0.139  11.562 -0.7394 -0.1264  0.3488
19688TIP3    H180555   4.906   0.178  11.648 -0.3130  1.4307 -0.4200
19688TIP3    H280556   4.797   0.125  11.558 -0.8570  0.5114  0.7884
19689TIP3   OH280557   2.869   1.228   3.247 -0.0880  0.6888  0.1843
19689TIP3    H180558   2.820   1.217   3.166  1.5317 -3.1669 -0.4004
19689TIP3    H280559   2.821   1.174   3.311  1.1818 -0.0173  0.5673
19690TIP3   OH280560   4.540   5.427   4.039  0.0981 -0.0496  0.5500
19690TIP3    H180561   4.486   5.497   4.077 -0.8458 -0.4249 -0.0943
19690TIP3    H280562   4.630   5.461   4.045 -0.3658  1.2731  0.1305
19691TIP3   OH280563   2.392   4.870  16.345  0.1047  0.2608  0.2312
19691TIP3    H180564   2.416   4.936  16.410 -0.2412  0.9348 -0.3253
19691TIP3    H280565   2.444   4.793  16.369  1.2285  1.0356  0.2962
19692TIP3   OH280566   3.701   6.194   0.807  0.1004 -0.4222 -0.1471
19692TIP3    H180567   3.787   6.162   0.836  0.0075 -0.5819 -0.0449
19692TIP3    H280568   3.657   6.219   0.888  0.4082  0.5617 -0.2783
19693TIP3   OH280569   3.197   0.105  16.132 -0.4192  0.1004 -0.0753
19693TIP3    H180570   3.206   0.200  16.142 -1.4781  0.5203 -2.6596
19693TIP3    H280571   3.131   0.094  16.063 -0.3915 -2.5208  0.2515
19694TIP3   OH280572   5.727   2.349  14.315 -0.0375 -0.0851 -0.2573
19694TIP3    H180573   5.735   2.390  14.229 -0.0619  0.3801 -0.0367
19694TIP3    H280574   5.801   2.288  14.320  0.6619  0.7724 -0.1245
19695TIP3   OH280575   0.477   1.399  14.159  0.0763  0.3805  0.8986
19695TIP3    H180576   0.459   1.401  14.253  1.5545  0.4155  1.1938
19695TIP3    H280577   0.495   1.307  14.140  0.9423  0.5500  0.8823
19696TIP3   OH280578   2.946   4.949   3.264 -0.3799  0.3081 -0.0490
19696TIP3    H180579   2.920   4.958   3.173 -0.5353  3.5688  0.2699
19696TIP3    H280580   2.948   4.854   3.279 -1.1014 -0.2558 -3.1894
19697TIP3   OH280581   4.783   3.828  11.368  0.3814  0.0600  0.5535
19697TIP3    H180582   4.863   3.830  11.422  0.3550 -0.2266  0.6058
19697TIP3    H280583   4.742   3.745  11.390  1.0497 -0.6567 -0.9056
19698TIP3   OH280584   6.573   3.633   1.708 -0.2283 -0.7160  0.4844
19698TIP3    H180585   6.547   3.627   1.617 -0.2870  0.9250  0.3764
19698TIP3    H280586   6.669   3.639   1.706 -0.2261 -0.7207  0.5457
19699TIP3   OH280587   2.610   3.644  14.382  0.1284 -0.3381  0.2876
19699TIP3    H180588   2.546   3.693  14.433 -0.2559 -0.7427  0.1957
19699TIP3    H280589   2.625   3.564  14.432 -1.0695 -1.2496 -0.7542
19700TIP3   OH280590   3.200   6.032  15.531 -0.3693  0.8624  0.0674
19700TIP3    H180591   3.280   5.986  15.504 -1.3170 -1.2884  0.7785
19700TIP3    H280592   3.183   6.001  15.620 -2.9641 -0.1055 -0.7202
19701TIP3   OH280593   2.243   2.435  17.088  0.1868 -0.7790  0.1707
19701TIP3    H180594   2.265   2.348  17.055  0.4943 -0.4565 -0.4918
19701TIP3    H280595   2.154   2.425  17.124  0.0262 -1.2513 -0.3475
19702TIP3   OH280596   0.250   1.431  17.124  0.4827  0.0828 -0.1831
19702TIP3    H180597   0.317   1.429  17.056  0.7307 -0.4313  0.0718
19702TIP3    H280598   0.274   1.360  17.183  0.9879  1.3394  1.1389
19703TIP3   OH280599   4.431   5.661   1.701 -0.0863 -0.1297  0.2822
19703TIP3    H180600   4.519   5.688   1.676 -0.3352  1.2387  0.8511
19703TIP3    H280601   4.374   5.730   1.666 -0.6553  0.5614  2.5120
19704TIP3   OH280602   6.147   1.089  12.942 -0.1610 -0.1627  0.0794
19704TIP3    H180603   6.161   0.998  12.969  0.0279 -0.5633 -1.3240
19704TIP3    H280604   6.154   1.087  12.847  1.5761  1.6243  0.1349
19705TIP3   OH280605   0.892   4.314   4.113  0.1945  0.4823 -0.0198
19705TIP3    H180606   0.901   4.375   4.186 -0.6830  0.6822 -0.0696
19705TIP3    H280607   0.964   4.335   4.054  0.2003  1.1218  0.2134
19706TIP3   OH280608   3.228   2.009   2.088  0.0456  0.3819 -0.1714
19706TIP3    H180609   3.191   2.051   2.011 -1.6865  1.4140  1.1880
19706TIP3    H280610   3.177   1.929   2.100  2.8367 -1.8280 -2.3000
19707TIP3   OH280611   5.860   4.797   2.383  0.5790 -0.7454  0.1337
19707TIP3    H180612   5.853   4.706   2.411  0.0470 -0.5309  0.6824
19707TIP3    H280613   5.775   4.836   2.403  1.5956  0.5057  2.1628
19708TIP3   OH280614   2.873   6.537   5.002  0.6568  0.1275 -0.2230
19708TIP3    H180615   2.924   6.472   4.953 -0.0348 -0.3454 -0.3338
19708TIP3    H280616   2.870   6.503   5.091  0.6134  0.1919 -0.2003
19709TIP3   OH280617   1.326   5.040  14.846  0.6233  0.2126  0.3195
19709TIP3    H180618   1.294   5.117  14.892  0.2309 -0.6749  1.5829
19709TIP3    H280619   1.410   5.020  14.887 -0.1336 -1.0975  1.2868
19710TIP3   OH280620   3.379   5.277   3.605 -0.3687  0.1839  0.0988
19710TIP3    H180621   3.313   5.330   3.560  1.2378  0.1510 -2.4226
19710TIP3    H280622   3.380   5.310   3.694 -1.0305  2.8698 -0.8435
19711TIP3   OH280623   3.032   2.984   2.597  0.1908  0.2902  1.1075
19711TIP3    H180624   2.998   3.000   2.685 -3.2046 -0.5117 -0.0083
19711TIP3    H280625   3.078   2.900   2.604 -1.5544 -0.6311  1.7465
19712TIP3   OH280626   4.048   6.560  11.432  0.0189  0.4398 -0.2191
19712TIP3    H180627   4.112   6.494  11.458 -1.0532 -0.1262  1.0330
19712TIP3    H280628   4.005   6.522  11.355  0.0222  0.0887 -0.0470
19713TIP3   OH280629   4.205   2.490   0.805  0.6718 -0.0108  0.4730
19713TIP3    H180630   4.199   2.399   0.778  0.7795 -0.6258  2.4517
19713TIP3    H280631   4.268   2.529   0.744  0.6767 -1.2632 -0.3393
19714TIP3   OH280632   5.869   6.080   0.739  0.1601 -0.3590 -0.1258
19714TIP3    H180633   5.803   6.129   0.689  0.7426  1.2162  0.6039
19714TIP3    H280634   5.945   6.076   0.681 -0.0095 -0.7084 -0.3237
19715TIP3   OH280635   1.178   1.802  16.141  1.4848  0.5613  0.5269
19715TIP3    H180636   1.266   1.808  16.179  1.3816 -1.4765  1.1318
19715TIP3    H280637   1.159   1.708  16.140  0.3964  0.7884 -2.1248
19716TIP3   OH280638   5.629   5.131   1.221  0.4442 -0.3654 -0.4571
19716TIP3    H180639   5.695   5.069   1.250 -0.2067 -1.2823 -0.8892
19716TIP3    H280640   5.569   5.079   1.168 -1.0996  0.2603  0.6215
19717TIP3   OH280641   5.951   3.391   1.885  0.2040  0.1994  0.3253
19717TIP3    H180642   5.869   3.431   1.915  0.6674  1.4250 -0.0215
19717TIP3    H280643   6.019   3.451   1.914  0.8758 -0.1183 -0.5800
19718TIP3   OH280644   2.793   3.731  15.881 -0.3539  0.0113 -0.4828
19718TIP3    H180645   2.715   3.688  15.845  0.0374  0.7561 -2.2791
19718TIP3    H280646   2.852   3.659  15.904 -1.1052 -0.5187 -0.2032
19719TIP3   OH280647   5.593   0.378  11.932  0.1808  0.8688 -0.2434
19719TIP3    H180648   5.560   0.454  11.980  0.6491  0.4926  0.6715
19719TIP3    H280649   5.686   0.396  11.918  0.6216 -0.1526  1.2011
19720TIP3   OH280650   5.778   0.510  12.371 -0.0114 -0.2933  0.3680
19720TIP3    H180651   5.750   0.551  12.453  1.3322 -0.1073  0.7476
19720TIP3    H280652   5.821   0.580  12.322 -0.9004 -0.3811 -0.5495
19721TIP3   OH280653   3.352   0.418  14.447 -0.0209  0.0928  0.5270
19721TIP3    H180654   3.333   0.492  14.504  0.3923  0.5972  0.0154
19721TIP3    H280655   3.389   0.352  14.506 -2.6531 -0.6580  1.4121
19722TIP3   OH280656   0.100   2.001   2.022 -0.0161 -0.1716  0.5106
19722TIP3    H180657   0.151   1.968   1.948  0.6428  0.4799  0.6715
19722TIP3    H280658   0.075   1.922   2.070  0.7856 -0.5039  0.3978
19723TIP3   OH280659   3.410   1.064   1.393 -0.7467 -0.3245  0.5871
19723TIP3    H180660   3.460   1.092   1.316  1.9033 -0.7547  2.0871
19723TIP3    H280661   3.362   0.987   1.364  1.7657 -1.6746 -0.1656
19724TIP3   OH280662   1.912   5.201  13.313  0.1729  0.0110 -0.0321
19724TIP3    H180663   1.963   5.275  13.279 -0.9740 -0.0987 -2.0638
19724TIP3    H280664   1.837   5.242  13.356 -0.6574  0.0410 -1.4825
19725TIP3   OH280665   6.763   4.301   3.572 -0.0322  0.4168  0.4772
19725TIP3    H180666   6.773   4.371   3.507  2.1526  0.8133  1.2190
19725TIP3    H280667   6.669   4.279   3.569 -0.1818  1.2507 -1.9398
19726TIP3   OH280668   1.065   3.740  13.027  0.2517  0.0791 -0.5932
19726TIP3    H180669   1.018   3.662  12.997  0.4240  0.3171 -1.5053
19726TIP3    H280670   1.140   3.746  12.969  1.8101 -0.6879  1.2911
19727TIP3   OH280671   0.245   3.169   5.612  0.1541  0.5589 -0.5309
19727TIP3    H180672   0.167   3.113   5.610  0.6947 -0.1860 -1.1710
19727TIP3    H280673   0.318   3.108   5.621  0.6026  1.3238  1.3187
19728TIP3   OH280674   1.279   5.831  12.902 -0.3238 -0.1260  0.0447
19728TIP3    H180675   1.197   5.782  12.907 -0.0849 -0.4516  0.7784
19728TIP3    H280676   1.346   5.764  12.888  0.1540 -0.1322  2.3138
19729TIP3   OH280677   2.420   2.652  11.571  1.0168  0.2254  0.3158
19729TIP3    H180678   2.512   2.627  11.573  0.5110 -2.1427 -1.9569
19729TIP3    H280679   2.374   2.577  11.610  0.0492  1.3729  1.4177
19730TIP3   OH280680   3.614   3.741   0.556 -0.0764  0.8257  0.7643
19730TIP3    H180681   3.621   3.741   0.651  0.6869  0.0313  0.7137
19730TIP3    H280682   3.596   3.833   0.533 -0.6516  0.9531  1.6889
19731TIP3   OH280683   4.455   0.798   5.277  0.7697 -0.3804  0.3903
19731TIP3    H180684   4.447   0.846   5.194 -0.6887  0.9729  1.2840
19731TIP3    H280685   4.457   0.706   5.251  1.9644  0.0887 -1.2517
19732TIP3   OH280686   1.762   3.577  16.559  0.4366  0.0186 -0.1530
19732TIP3    H180687   1.677   3.587  16.516 -0.0813 -2.0098  0.3397
19732TIP3    H280688   1.825   3.609  16.495 -0.6435  1.0576 -0.7237
19733TIP3   OH280689   0.377   2.426  15.092  0.0536 -0.0940 -0.1417
19733TIP3    H180690   0.366   2.448  14.999 -0.0056 -0.0876 -0.1329
19733TIP3    H280691   0.434   2.349  15.091 -0.6403 -0.6137 -0.2206
19734TIP3   OH280692   3.591   5.858   1.897 -0.0847 -0.2354 -0.2634
19734TIP3    H180693   3.608   5.932   1.839 -0.1393  0.3206  0.4298
19734TIP3    H280694   3.498   5.866   1.920 -0.5873 -1.6104 -1.7129
19735TIP3   OH280695   1.060   4.764   2.816  1.0386  0.4629 -0.1115
19735TIP3    H180696   1.040   4.838   2.873 -1.0656 -0.0089 -0.1851
19735TIP3    H280697   1.064   4.801   2.728  1.7121  0.7749  0.0530
19736TIP3   OH280698   0.718   3.945   0.196 -0.1382 -0.3042 -0.4178
19736TIP3    H180699   0.656   3.872   0.197 -0.8027  0.2673  0.4438
19736TIP3    H280700   0.779   3.924   0.125  0.1241 -2.0630  0.3125
19737TIP3   OH280701   4.116   6.155  16.984 -0.1004 -0.8051 -0.6767
19737TIP3    H180702   4.166   6.147  16.902 -0.3841 -1.4930 -0.7823
19737TIP3    H280703   4.126   6.247  17.009  0.4011 -0.7086 -1.2227
19738TIP3   OH280704   3.224   5.889  12.606 -0.1153  0.3465  0.0851
19738TIP3    H180705   3.180   5.833  12.541  1.7198 -1.4100  0.3151
19738TIP3    H280706   3.253   5.965  12.555 -1.1961  0.3551 -0.5608
19739TIP3   OH280707   3.121   5.358  11.058  0.0724  0.2053 -0.0940
19739TIP3    H180708   3.216   5.362  11.067  0.0662  0.4433 -0.1251
19739TIP3    H280709   3.107   5.334  10.966  0.0996  0.4256 -0.1558
19740TIP3   OH280710   3.260   3.041   3.366 -0.4146  0.1180 -0.0883
19740TIP3    H180711   3.259   3.133   3.393  0.1221  0.3456 -0.8356
19740TIP3    H280712   3.170   3.023   3.340 -0.7612  0.1265  1.0488
19741TIP3   OH280713   5.581   2.728   0.231  0.3908  0.2555  0.0925
19741TIP3    H180714   5.524   2.795   0.194 -0.1918  0.5313  1.4577
19741TIP3    H280715   5.523   2.656   0.255  1.2748 -1.8262 -3.5733
19742TIP3   OH280716   1.650   3.128   6.365 -0.1721  0.6866 -0.4657
19742TIP3    H180717   1.681   3.048   6.324 -0.8344 -0.0436  0.4451
19742TIP3    H280718   1.563   3.106   6.398  0.4429  1.1973  1.5388
19743TIP3   OH280719   4.864   2.089   2.484 -0.4283  0.6490 -0.6708
19743TIP3    H180720   4.827   2.080   2.572 -0.7926  0.8647 -0.8011
19743TIP3    H280721   4.835   2.175   2.455 -2.1367 -0.3157 -1.8614
19744TIP3   OH280722   3.658   0.061  15.220 -0.1880  0.7697  0.0344
19744TIP3    H180723   3.720  -0.010  15.238  2.4052  2.3813 -2.0102
19744TIP3    H280724   3.596   0.024  15.158  1.3265  0.3143 -1.2618
19745TIP3   OH280725   2.526   2.842  13.010  0.3688 -0.6515  0.6399
19745TIP3    H180726   2.563   2.763  12.971 -1.5272 -2.6396  2.7570
19745TIP3    H280727   2.602   2.888  13.047  1.2950 -2.2943  0.8151
19746TIP3   OH280728   4.131   0.937  13.635 -0.4515  0.2588 -0.3052
19746TIP3    H180729   4.044   0.899  13.626 -0.4665  0.4125 -0.8267
19746TIP3    H280730   4.164   0.945  13.545  0.0416  0.3360 -0.1240
19747TIP3   OH280731   0.835   5.251   0.008 -0.1414 -0.3873 -0.7808
19747TIP3    H180732   0.833   5.231   0.102  1.8566 -0.7366 -0.7841
19747TIP3    H280733   0.825   5.167  -0.035  0.4060 -0.4238 -0.8497
19748TIP3   OH280734   3.946   0.473   0.939 -0.3383  0.8726  0.0034
19748TIP3    H180735   3.907   0.551   0.977 -0.1410  1.6313 -1.3208
19748TIP3    H280736   3.881   0.444   0.874 -1.5236 -1.4569  2.1404
19749TIP3   OH280737   0.747   3.742   2.689 -0.1937 -0.0978 -0.6118
19749TIP3    H180738   0.690   3.690   2.745 -0.2055  0.3297 -0.2212
19749TIP3    H280739   0.829   3.692   2.684 -0.1827 -0.1203 -0.1857
19750TIP3   OH280740   0.545   5.166   5.326 -0.2922 -0.0122  0.2133
19750TIP3    H180741   0.601   5.240   5.304  1.1589 -1.2022 -0.2441
19750TIP3    H280742   0.598   5.089   5.305 -0.9550 -1.2013  2.6024
19751TIP3   OH280743   4.186   2.873  12.886 -0.1613  0.2062 -0.5910
19751TIP3    H180744   4.223   2.917  12.810  0.8076 -0.9929 -0.8216
19751TIP3    H280745   4.105   2.833  12.854  0.9289 -1.4450 -1.3538
19752TIP3   OH280746   4.957   4.098  14.845  0.5403  0.2294 -0.1968
19752TIP3    H180747   5.052   4.085  14.849  0.3746 -0.4372  1.6428
19752TIP3    H280748   4.920   4.016  14.876 -0.5983  1.4813  1.8568
19753TIP3   OH280749   4.463   5.971  13.405  0.2552  0.2334  0.4411
19753TIP3    H180750   4.516   6.048  13.424  0.3263  0.7869 -1.8449
19753TIP3    H280751   4.436   5.982  13.314 -0.3968 -2.0556  0.3204
19754TIP3   OH280752   1.839   3.809   5.776  0.1475 -0.4655 -0.2791
19754TIP3    H180753   1.812   3.784   5.865  0.2129  0.2108 -0.0671
19754TIP3    H280754   1.847   3.904   5.779 -1.6719 -0.2493 -1.5093
19755TIP3   OH280755   1.912   5.375   0.669 -0.6395  0.0531  0.5703
19755TIP3    H180756   1.926   5.294   0.620 -0.1614 -0.0489  0.8742
19755TIP3    H280757   1.997   5.395   0.708 -0.3335  1.6079 -0.8492
19756TIP3   OH280758   2.070   1.645  15.219  0.7315 -0.2301 -0.8738
19756TIP3    H180759   2.108   1.732  15.228  2.7367 -1.2123  0.4923
19756TIP3    H280760   2.121   1.604  15.149  0.5880 -0.7180 -0.6936
19757TIP3   OH280761   0.669   3.885  11.545  0.2275 -0.2940  0.2359
19757TIP3    H180762   0.593   3.863  11.599  0.4494  2.5716  1.7949
19757TIP3    H280763   0.674   3.814  11.481 -2.5852 -1.5509  1.3240
19758TIP3   OH280764   0.964   4.604  12.826 -0.4140  0.1133  0.3951
19758TIP3    H180765   1.001   4.552  12.755 -1.6316 -0.2653  0.0360
19758TIP3    H280766   0.987   4.694  12.804 -1.4150  0.0689 -0.8492
19759TIP3   OH280767   5.325   5.581  13.903  0.3834  0.5307 -0.3984
19759TIP3    H180768   5.266   5.534  13.844 -0.1484  0.5281  0.1291
19759TIP3    H280769   5.285   5.667  13.915  0.9745  0.8617 -0.7784
19760TIP3   OH280770   0.657   1.685  15.537  0.4333 -0.6185 -0.2515
19760TIP3    H180771   0.642   1.636  15.457  0.9609  1.7503 -1.8455
19760TIP3    H280772   0.746   1.661  15.564  0.8762 -0.1308 -1.2943
19761TIP3   OH280773   0.064   3.843   1.940  0.3989 -0.0527 -0.0365
19761TIP3    H180774   0.022   3.795   1.868 -0.4181  2.0233 -0.9658
19761TIP3    H280775   0.156   3.847   1.916  0.3068 -0.3074 -0.4344
19762TIP3   OH280776   1.961   2.186  13.782  0.6572 -0.0611 -0.3532
19762TIP3    H180777   1.917   2.245  13.843  1.3835  0.7882 -0.6448
19762TIP3    H280778   2.047   2.171  13.821  0.6129 -0.6257 -0.4749
19763TIP3   OH280779   3.439   3.971  12.613  0.0217 -0.1539  0.4507
19763TIP3    H180780   3.368   4.031  12.591  0.5274 -0.1302 -1.1871
19763TIP3    H280781   3.472   3.941  12.528  2.3842  0.3107  1.1798
19764TIP3   OH280782   5.137   4.648  12.042  0.0662 -0.3061 -0.1598
19764TIP3    H180783   5.075   4.637  11.970  1.8080 -0.7427 -1.6107
19764TIP3    H280784   5.165   4.740  12.035  3.3090 -1.4159 -2.5965
19765TIP3   OH280785   3.003   3.202   1.058 -0.5720 -0.5260 -0.0622
19765TIP3    H180786   3.070   3.136   1.076 -1.7109 -1.4370  0.8701
19765TIP3    H280787   3.039   3.283   1.095 -0.3140 -1.1647  1.1097
19766TIP3   OH280788   5.852   6.661   0.956 -0.6678  0.1811 -0.4528
19766TIP3    H180789   5.813   6.739   0.994 -0.6142  1.0078 -2.0450
19766TIP3    H280790   5.776   6.606   0.933 -0.6631 -1.2201  2.5614
19767TIP3   OH280791   5.602   4.307  13.823  0.1401 -0.0099 -0.1296
19767TIP3    H180792   5.545   4.287  13.749 -1.0755  1.0807  0.5008
19767TIP3    H280793   5.592   4.231  13.881  0.1008 -0.2802 -0.4868
19768TIP3   OH280794   5.830   2.275  13.928  0.2624  0.1261  0.1223
19768TIP3    H180795   5.794   2.299  13.842  1.9368  2.1768 -0.0318
19768TIP3    H280796   5.901   2.214  13.908 -0.2167 -0.4461  0.1490
19769TIP3   OH280797   2.949   4.887   5.568 -0.1219  0.1293 -0.1320
19769TIP3    H180798   2.957   4.983   5.564  1.1178  0.0116 -0.7501
19769TIP3    H280799   3.039   4.856   5.571 -0.4464 -1.1260 -2.4522
19770TIP3   OH280800   4.199   6.723   1.996  0.2482  0.1684  0.3190
19770TIP3    H180801   4.210   6.816   1.975 -1.4288  0.7264  1.7502
19770TIP3    H280802   4.203   6.720   2.092  0.0402 -1.1954  0.2917
19771TIP3   OH280803   3.749   0.966  16.445 -0.0502  0.2272  0.4026
19771TIP3    H180804   3.770   0.977  16.538 -1.1534  2.7084  0.3848
19771TIP3    H280805   3.800   1.035  16.401 -0.2745 -0.3292 -0.7338
19772TIP3   OH280806   6.237   2.348  16.457  0.0763 -0.3450  0.1634
19772TIP3    H180807   6.165   2.288  16.439 -0.7696  0.4516  0.8922
19772TIP3    H280808   6.214   2.428  16.410 -0.2279  0.4020  1.5662
19773TIP3   OH280809   0.281   3.627  14.361 -0.2923  0.1325  0.0582
19773TIP3    H180810   0.188   3.650  14.371  0.2608  2.0122  1.1405
19773TIP3    H280811   0.320   3.650  14.445  1.0014 -1.5073 -0.0748
19774TIP3   OH280812   6.747   4.452   6.536 -0.6177  0.4037  0.1844
19774TIP3    H180813   6.815   4.512   6.568  0.8373 -0.1569 -1.7577
19774TIP3    H280814   6.754   4.376   6.594 -0.3272  0.8163  0.6978
19775TIP3   OH280815   5.792   0.343   5.453 -0.5618  0.4618 -0.2907
19775TIP3    H180816   5.840   0.394   5.518 -0.2220  1.8055 -1.5652
19775TIP3    H280817   5.706   0.385   5.447 -1.7185 -1.5552  1.5268
19776TIP3   OH280818   3.487   1.231  15.415 -0.1733  0.3936 -0.2243
19776TIP3    H180819   3.461   1.159  15.358 -0.8912 -0.2099  0.8321
19776TIP3    H280820   3.444   1.211  15.499  0.0196  1.7941  0.2186
19777TIP3   OH280821   0.236   5.474   5.143 -0.2234 -0.1985 -0.0738
19777TIP3    H180822   0.249   5.394   5.193  2.2640 -0.0007 -0.3180
19777TIP3    H280823   0.200   5.537   5.205 -1.4673 -1.2733  0.3026
19778TIP3   OH280824   1.486   2.834   2.041  0.2136  0.6892 -0.2691
19778TIP3    H180825   1.476   2.910   2.098  0.3479  1.2241 -0.9359
19778TIP3    H280826   1.400   2.822   2.001 -0.2826 -0.6063  1.1544
19779TIP3   OH280827   6.458   4.464   0.762  0.1482 -0.0991 -0.7202
19779TIP3    H180828   6.435   4.374   0.741  0.8784 -0.4866  0.0875
19779TIP3    H280829   6.514   4.457   0.840 -0.5133  1.1078 -0.1184
19780TIP3   OH280830   6.209   1.050   0.511  0.8696  0.1063 -0.4430
19780TIP3    H180831   6.118   1.030   0.532  0.5942  0.8734 -0.8655
19780TIP3    H280832   6.258   1.027   0.590  0.1754  0.6585  0.1564
19781TIP3   OH280833   2.692   1.428  12.593 -0.1655 -0.3411  0.0759
19781TIP3    H180834   2.670   1.335  12.599  0.9851 -0.6304  0.0571
19781TIP3    H280835   2.774   1.430  12.544  1.1032  0.4869  2.1499
19782TIP3   OH280836   2.857   5.985   3.951  0.1897  0.5049 -0.2296
19782TIP3    H180837   2.913   6.051   3.991 -0.6630  0.5809  0.8567
19782TIP3    H280838   2.909   5.904   3.954  1.1333  1.0443 -1.3309
19783TIP3   OH280839   4.278   6.256  12.266 -0.4206  0.1890 -0.3521
19783TIP3    H180840   4.225   6.177  12.249  1.9407 -1.5084 -0.1591
19783TIP3    H280841   4.302   6.249  12.358  1.2270  0.1818 -0.7562
19784TIP3   OH280842   1.005   6.659  16.627 -0.9515 -0.2673  0.2309
19784TIP3    H180843   1.049   6.621  16.703  2.0966 -1.2106 -1.9497
19784TIP3    H280844   1.040   6.748  16.621  0.3470 -0.8577 -1.2151
19785TIP3   OH280845   1.401   3.883  11.378 -0.6820 -0.2420  0.2850
19785TIP3    H180846   1.374   3.795  11.349 -0.1146 -0.7454  1.2835
19785TIP3    H280847   1.496   3.880  11.375 -0.6598  0.2625  0.5711
19786TIP3   OH280848   3.782   4.149  11.736 -0.5738 -0.3365  0.0519
19786TIP3    H180849   3.692   4.138  11.705 -1.4325  1.3635  1.8237
19786TIP3    H280850   3.826   4.197  11.666 -0.9655 -1.3923 -0.9347
19787TIP3   OH280851   3.211   0.566   5.828  0.3096  0.3228  0.3002
19787TIP3    H180852   3.172   0.503   5.768 -1.1895  1.2522  0.2750
19787TIP3    H280853   3.290   0.522   5.861 -0.4951 -1.3927 -0.0097
19788TIP3   OH280854   5.898   1.217  16.003  0.2533  0.3775 -0.1059
19788TIP3    H180855   5.985   1.183  16.021  0.1824  0.3870  0.2621
19788TIP3    H280856   5.839   1.153  16.043  0.0812  0.2248 -0.5927
19789TIP3   OH280857   3.976   3.557  17.082  1.1421 -0.0896  0.0887
19789TIP3    H180858   3.933   3.547  16.997 -1.2512 -0.2208  1.2870
19789TIP3    H280859   4.000   3.650  17.086 -0.0139  0.2246 -0.1535
19790TIP3   OH280860   1.381   6.301  15.685  0.2958  0.4156  0.6992
19790TIP3    H180861   1.291   6.319  15.712  0.7586  2.1927  1.1229
19790TIP3    H280862   1.426   6.277  15.766  0.4062  0.3532  0.6206
19791TIP3   OH280863   4.913   4.832  14.300 -0.1279 -0.4185  0.3274
19791TIP3    H180864   4.859   4.770  14.250 -2.4680  1.2097  0.7411
19791TIP3    H280865   4.900   4.806  14.391 -0.5983  0.2617  0.4584
19792TIP3   OH280866   4.412   1.228   1.370 -0.3708  0.6095  0.6239
19792TIP3    H180867   4.396   1.321   1.357  0.0090  0.4081 -1.4178
19792TIP3    H280868   4.508   1.219   1.366 -0.1812  0.5059  3.6975
19793TIP3   OH280869   3.464   2.528   1.444  0.6183 -0.1854  0.3969
19793TIP3    H180870   3.543   2.476   1.426  1.0646  0.1178  1.4677
19793TIP3    H280871   3.435   2.498   1.530  0.3957  0.7418  0.6510
19794TIP3   OH280872   6.768   6.081  14.596  0.0808  0.7080 -0.3567
19794TIP3    H180873   6.702   6.053  14.533 -2.4503  2.2530  1.5278
19794TIP3    H280874   6.803   6.162  14.560 -2.0419  2.0971  0.6371
19795TIP3   OH280875   0.924   4.914   0.692  0.4691  0.0510  0.3112
19795TIP3    H180876   0.887   4.950   0.612 -0.8958  1.8760  1.7473
19795TIP3    H280877   0.911   4.819   0.683  0.8639  0.1714 -1.8683
19796TIP3   OH280878   1.249   1.970   2.928 -0.3724  0.4553  0.2208
19796TIP3    H180879   1.170   2.001   2.884  0.5489  1.7371 -0.5837
19796TIP3    H280880   1.235   1.876   2.938 -0.7443  0.1425 -2.6354
19797TIP3   OH280881   0.836   0.371   2.245 -0.5524 -0.2115  0.3272
19797TIP3    H180882   0.924   0.362   2.211 -0.1979 -1.7170  1.5551
19797TIP3    H280883   0.783   0.398   2.170  0.6074 -1.1819 -0.8546
19798TIP3   OH280884   2.377   2.040   5.392  0.0306 -0.5560  0.2264
19798TIP3    H180885   2.299   1.997   5.429 -1.4007  0.3447 -1.7037
19798TIP3    H280886   2.346   2.124   5.359  1.4412 -0.9398 -2.2125
19799TIP3   OH280887   4.150   2.160  15.631  0.1329 -0.2466  0.2314
19799TIP3    H180888   4.189   2.173  15.545 -0.4203 -1.6024 -0.2348
19799TIP3    H280889   4.200   2.217  15.689  2.6560 -1.7494 -0.3906
19800TIP3   OH280890   6.492   0.486   1.018  0.6671 -0.1242 -0.2648
19800TIP3    H180891   6.410   0.521   1.053  0.2278 -0.5465 -0.8831
19800TIP3    H280892   6.513   0.412   1.075  1.8525  1.3896  1.3563
19801TIP3   OH280893   0.905   4.851   5.127  0.6681 -0.2457 -1.0683
19801TIP3    H180894   0.859   4.883   5.049  0.6271  0.7109 -0.6531
19801TIP3    H280895   0.930   4.762   5.104 -1.3264 -0.7574 -1.3185
19802TIP3   OH280896   0.897   0.739  15.752  0.6323 -0.0959  0.9429
19802TIP3    H180897   0.879   0.678  15.823 -0.0039  1.2388  1.9633
19802TIP3    H280898   0.937   0.686  15.683 -0.2889 -1.7152  1.6420
19803TIP3   OH280899   1.400   6.609   1.835 -0.5341  0.1490 -0.1619
19803TIP3    H180900   1.343   6.664   1.889  0.4681  0.4941  0.5610
19803TIP3    H280901   1.475   6.590   1.891 -0.9831 -2.1971 -0.3027
19804TIP3   OH280902   3.921   3.737   2.085 -0.0331 -0.0629  0.1034
19804TIP3    H180903   3.882   3.659   2.125 -1.3624  1.4083  1.7489
19804TIP3    H280904   3.964   3.782   2.158 -0.2520  1.3184 -0.6014
19805TIP3   OH280905   0.525   0.858  13.396 -0.3637 -0.1766 -0.1746
19805TIP3    H180906   0.454   0.871  13.334  0.3683 -1.3134 -1.2640
19805TIP3    H280907   0.499   0.781  13.447 -0.1880 -0.2313 -0.1666
19806TIP3   OH280908   0.812   5.334  16.010  0.0010 -0.0007 -0.4030
19806TIP3    H180909   0.897   5.296  16.033 -1.0923 -1.5156  1.3397
19806TIP3    H280910   0.788   5.385  16.087  0.0451  1.7490 -1.5255
19807TIP3   OH280911   5.099   1.718   5.363  0.6165 -0.2347  0.3791
19807TIP3    H180912   5.084   1.793   5.420 -0.3966  0.3358 -0.6096
19807TIP3    H280913   5.021   1.664   5.374  1.2368 -1.0240  0.9082
19808TIP3   OH280914   1.825   0.435  11.991 -0.7083  0.5092  0.3050
19808TIP3    H180915   1.737   0.399  11.984 -0.5036 -0.2526  1.4828
19808TIP3    H280916   1.873   0.371  12.044  1.2341 -0.3066 -2.3658
19809TIP3   OH280917   5.980   4.815  12.616 -0.2549 -0.3268 -0.4913
19809TIP3    H180918   5.958   4.722  12.624  1.3294 -0.6464  0.1986
19809TIP3    H280919   6.036   4.819  12.538 -0.7094  0.1290 -0.7978
19810TIP3   OH280920   0.924   0.053   3.169 -0.0503 -0.1430 -0.3016
19810TIP3    H180921   0.949   0.042   3.261  1.6240 -0.0338 -0.7239
19810TIP3    H280922   0.919  -0.036   3.135 -0.6704 -0.1836 -0.1162
19811TIP3   OH280923   6.057   3.409   5.335  0.8599 -0.0469 -0.3924
19811TIP3    H180924   6.148   3.434   5.352  1.3936 -0.3236 -2.7200
19811TIP3    H280925   6.020   3.393   5.422  3.0080  0.1625  0.5842
19812TIP3   OH280926   4.707   4.397  12.832 -0.7223  0.1064  0.1395
19812TIP3    H180927   4.690   4.326  12.893 -3.1202  0.1778 -0.4024
19812TIP3    H280928   4.707   4.476  12.887 -1.1554 -0.0041  0.2990
19813TIP3   OH280929   4.445   5.110   4.602  0.3299 -0.8640 -0.2350
19813TIP3    H180930   4.428   5.040   4.666 -0.8533 -1.2116 -0.9156
19813TIP3    H280931   4.412   5.075   4.519 -1.5734  1.0332 -0.3317
19814TIP3   OH280932   2.881   0.874   1.895 -0.3209  0.1683  0.2782
19814TIP3    H180933   2.837   0.798   1.857 -1.4853  1.0056 -0.0722
19814TIP3    H280934   2.812   0.939   1.906  0.4992  0.8641  1.4190
19815TIP3   OH280935   1.102   1.589  11.431  0.1308  0.2523 -0.1010
19815TIP3    H180936   1.011   1.616  11.442 -0.3010 -0.6199 -1.4364
19815TIP3    H280937   1.153   1.665  11.461 -1.0247  0.6270  0.9319
19816TIP3   OH280938   4.100   1.485  12.209  0.0630  0.2509  0.4142
19816TIP3    H180939   4.086   1.425  12.136  1.2070 -1.0276  1.2276
19816TIP3    H280940   4.024   1.473  12.266 -0.7623  1.1519 -0.4707
19817TIP3   OH280941   0.177   6.247  15.231  0.4250  0.2749 -0.4381
19817TIP3    H180942   0.082   6.259  15.232  0.0908 -1.9047 -1.9871
19817TIP3    H280943   0.208   6.296  15.308 -1.6992  2.6925 -1.0273
19818TIP3   OH280944   2.868   1.521   3.357 -0.4611 -0.3357  0.0545
19818TIP3    H180945   2.868   1.512   3.452 -1.3393  0.5839  0.1376
19818TIP3    H280946   2.872   1.430   3.325  2.8047 -0.5841  0.9478
19819TIP3   OH280947   4.841   4.697   3.176  0.5419 -0.0592 -0.3402
19819TIP3    H180948   4.820   4.669   3.265  1.0920  0.1487 -0.1464
19819TIP3    H280949   4.766   4.668   3.124  1.6767 -3.1376 -0.3899
19820TIP3   OH280950   6.185   6.562  16.647  0.1540  0.3334 -0.0264
19820TIP3    H180951   6.127   6.487  16.637  0.5423 -0.0716  0.7195
19820TIP3    H280952   6.143   6.615  16.715 -0.9015  1.5465 -1.6111
19821TIP3   OH280953   0.563   2.398  16.922  0.4049  0.1055 -0.0617
19821TIP3    H180954   0.533   2.311  16.895  2.0641 -0.6391  0.4293
19821TIP3    H280955   0.637   2.417  16.864 -0.6864  1.7143 -0.9530
19822TIP3   OH280956   2.378   5.115  11.942  0.9314 -0.2615  0.3369
19822TIP3    H180957   2.454   5.103  11.999  1.9305 -1.0862 -1.1217
19822TIP3    H280958   2.322   5.039  11.960 -0.2839  1.1102  2.4896
19823TIP3   OH280959   6.598   3.749   4.183  0.2454  0.3431 -0.3397
19823TIP3    H180960   6.526   3.715   4.130  0.1017 -0.5149  0.3998
19823TIP3    H280961   6.671   3.758   4.121  0.2961 -1.3510 -0.5273
19824TIP3   OH280962   2.434   5.823   1.755 -0.3511 -0.3108 -0.1620
19824TIP3    H180963   2.483   5.820   1.838 -0.9620  1.6284  0.3062
19824TIP3    H280964   2.502   5.827   1.688  0.1442 -0.6492  0.3063
19825TIP3   OH280965   2.420   5.484   5.195  0.3399 -0.0662  0.1251
19825TIP3    H180966   2.416   5.481   5.291 -2.0197  2.7918  0.2003
19825TIP3    H280967   2.334   5.454   5.167  1.1993 -1.4004 -1.1633
19826TIP3   OH280968   3.830   0.864   2.362 -0.0607  0.1342  0.2616
19826TIP3    H180969   3.866   0.845   2.275  0.5632  0.9350  0.3344
19826TIP3    H280970   3.886   0.934   2.396 -2.2284  2.0413  0.0163
19827TIP3   OH280971   1.199   6.672   1.632  0.3391 -0.3690 -0.1682
19827TIP3    H180972   1.277   6.632   1.669 -0.6039 -0.8639  1.3731
19827TIP3    H280973   1.195   6.641   1.542  2.0274 -0.1517 -0.3242
19828TIP3   OH280974   3.356   0.119   2.711  0.3322  0.2115 -0.0065
19828TIP3    H180975   3.280   0.177   2.711 -0.8998 -1.3843  0.0050
19828TIP3    H280976   3.372   0.101   2.618 -0.5314 -1.0333  0.0817
19829TIP3   OH280977   3.965   4.704   4.537  0.4706  0.3507  0.3984
19829TIP3    H180978   4.030   4.658   4.483  0.5011 -0.1167  0.8156
19829TIP3    H280979   4.015   4.773   4.581  0.5189  0.5033  0.1035
19830TIP3   OH280980   5.755   5.034   0.271 -0.2372  0.3228  0.1137
19830TIP3    H180981   5.706   5.071   0.198  1.3551 -0.6297 -1.4740
19830TIP3    H280982   5.824   5.098   0.289  0.6620 -0.4324 -0.6241
19831TIP3   OH280983   6.707   4.033   6.100  0.0705  0.0439  0.0557
19831TIP3    H180984   6.638   4.099   6.092  2.8830  3.0139 -0.9888
19831TIP3    H280985   6.683   3.964   6.038 -1.1642  1.7934 -1.4629
19832TIP3   OH280986   4.024   5.575  12.518  0.6772  0.2521 -0.6562
19832TIP3    H180987   3.961   5.504  12.529 -1.4323  2.3372  1.2403
19832TIP3    H280988   4.047   5.601  12.607  1.3676  1.9671 -1.3137
19833TIP3   OH280989   3.198   3.889   1.145 -0.1038  0.3166 -0.9109
19833TIP3    H180990   3.266   3.822   1.142 -0.5688 -0.1925 -0.4961
19833TIP3    H280991   3.116   3.839   1.143 -0.4592  0.7694  0.8766
19834TIP3   OH280992   5.101   6.546   3.746 -0.5841  0.5872 -0.3353
19834TIP3    H180993   5.080   6.487   3.674  0.0715  0.4105 -0.3912
19834TIP3    H280994   5.154   6.493   3.805  1.0848  1.4670 -1.0003
19835TIP3   OH280995   0.227   0.612   1.184  0.5406 -0.3674 -0.4569
19835TIP3    H180996   0.232   0.708   1.181  1.8411 -0.4152 -0.3763
19835TIP3    H280997   0.141   0.593   1.221 -0.5824  0.7404 -2.4184
19836TIP3   OH280998   5.191   1.362   0.845  0.3524 -0.1093  0.0070
19836TIP3    H180999   5.132   1.397   0.912  0.7779 -1.4364  1.1099
19836TIP3    H281000   5.174   1.268   0.846  0.1358 -0.0963 -2.0104
19837TIP3   OH281001   1.412   5.530   6.061  0.3883 -0.1521 -0.2864
19837TIP3    H181002   1.371   5.609   6.026  3.9379  0.7148 -2.6632
19837TIP3    H281003   1.504   5.552   6.070  0.9220 -3.0128  2.1309
19838TIP3   OH281004   0.193   4.782   5.874 -0.1237  0.4921  0.9232
19838TIP3    H181005   0.175   4.834   5.952 -0.7978  0.6738  0.6484
19838TIP3    H281006   0.248   4.838   5.819  0.7541  0.1837  1.4715
19839TIP3   OH281007   5.570   4.467  14.495 -0.2690 -0.8017  0.3227
19839TIP3    H181008   5.600   4.430  14.412 -0.5799 -2.1443  0.7955
19839TIP3    H281009   5.482   4.432  14.507 -1.5072  1.9299 -0.3308
19840TIP3   OH281010   0.474   1.442   3.138  0.1173  0.3889 -0.2612
19840TIP3    H181011   0.379   1.440   3.133  0.1626 -0.4462 -0.9909
19840TIP3    H281012   0.497   1.371   3.199  0.3703 -1.1688 -2.1019
19841TIP3   OH281013   6.369   0.829  11.925 -0.2802  0.6065 -0.5234
19841TIP3    H181014   6.311   0.771  11.877  1.0230  0.1923 -1.6288
19841TIP3    H281015   6.331   0.916  11.916 -0.9485  0.2728 -0.8773
19842TIP3   OH281016   0.992   1.669   2.572 -0.2991  0.1687 -0.0252
19842TIP3    H181017   0.932   1.733   2.611 -0.4544  0.1213 -0.1884
19842TIP3    H281018   1.002   1.698   2.481 -1.0940 -0.5598 -0.3576
19843TIP3   OH281019   3.429   0.964   1.879  0.1532 -0.1758 -0.5511
19843TIP3    H181020   3.377   0.890   1.910 -3.0101  2.8906  1.8300
19843TIP3    H281021   3.479   0.992   1.956  0.2076  1.0796 -1.0357
19844TIP3   OH281022   6.700   3.633   0.501  0.6216  0.2258 -0.0832
19844TIP3    H181023   6.742   3.563   0.450  0.6657  0.3969 -0.2816
19844TIP3    H281024   6.757   3.644   0.577  0.4864 -0.1181  0.0724
19845TIP3   OH281025   4.979   4.249  11.365 -0.1039  0.0379  0.6618
19845TIP3    H181026   4.913   4.241  11.296 -0.5228  0.1769  1.0469
19845TIP3    H281027   4.958   4.179  11.427 -0.4175  0.6289  1.2240
19846TIP3   OH281028   6.471   1.686   1.804 -0.0013  0.1716 -0.3749
19846TIP3    H181029   6.465   1.713   1.712  1.5680 -1.8993 -1.1516
19846TIP3    H281030   6.519   1.603   1.801 -1.2152 -0.6914  2.1956
19847TIP3   OH281031   3.664   4.990  11.993  0.2048 -0.1895 -0.6472
19847TIP3    H181032   3.569   4.984  11.981 -0.2650  2.0890  1.4487
19847TIP3    H281033   3.695   5.034  11.914 -0.7537  0.7250 -0.5323
19848TIP3   OH281034   4.818   6.153   5.165  0.1183  0.2648 -0.1830
19848TIP3    H181035   4.870   6.093   5.112  2.3005  1.8273  0.1148
19848TIP3    H281036   4.807   6.231   5.110  1.3031  1.3884  1.1337
19849TIP3   OH281037   2.766   6.529  12.393  0.3415 -0.2551 -0.4477
19849TIP3    H181038   2.781   6.450  12.445  0.6691 -1.1469 -1.8653
19849TIP3    H281039   2.702   6.502  12.328 -1.0252  1.2009  0.2583
19850TIP3   OH281040   3.552   2.833  16.574 -0.6700 -0.5320  0.2254
19850TIP3    H181041   3.463   2.867  16.569 -0.2665  0.4415 -0.6036
19850TIP3    H281042   3.587   2.869  16.655 -0.3552  0.8021 -0.4859
19851TIP3   OH281043   3.899   5.175  16.504  0.1843 -0.1274 -0.4331
19851TIP3    H181044   3.859   5.092  16.476  0.5881 -0.1726 -0.8888
19851TIP3    H281045   3.827   5.236  16.509  0.0357 -0.2384 -1.1445
19852TIP3   OH281046   1.121   1.409   4.334  0.8508  0.5862  0.0396
19852TIP3    H181047   1.198   1.403   4.390  0.6657  1.7596  0.4398
19852TIP3    H281048   1.089   1.498   4.347 -1.7309 -0.4896  1.3878
19853TIP3   OH281049   3.458   5.284   5.305  0.4176 -0.4471  0.3911
19853TIP3    H181050   3.441   5.289   5.399 -2.0811 -2.1587  0.0800
19853TIP3    H281051   3.396   5.346   5.266  0.8610 -0.3568 -0.1798
19854TIP3   OH281052   0.175   2.177  14.980  0.2138  0.4752 -0.1857
19854TIP3    H181053   0.144   2.095  14.942  1.6156 -0.1651 -0.0093
19854TIP3    H281054   0.132   2.182  15.065 -1.4950  0.9763 -1.0770
19855TIP3   OH281055   0.395   0.934  11.102 -0.1337  0.6100  0.0783
19855TIP3    H181056   0.342   0.891  11.035 -2.0021  0.2438  1.7800
19855TIP3    H281057   0.485   0.921  11.073 -0.7632 -2.5362 -0.5752
19856TIP3   OH281058   5.981   1.886  16.682 -0.0622  0.6056 -0.0537
19856TIP3    H181059   6.019   1.808  16.643 -1.2144 -0.3981  0.8140
19856TIP3    H281060   5.915   1.915  16.619 -1.0128 -0.2716  0.5125
19857TIP3   OH281061   2.045   4.737  11.554 -0.2793  0.2135  0.0385
19857TIP3    H181062   2.039   4.832  11.538 -0.4759  0.1119 -0.5232
19857TIP3    H281063   2.054   4.699  11.467  1.4480 -0.1718  0.3741
19858TIP3   OH281064   1.879   6.132  11.928  0.4080  0.5614  0.6597
19858TIP3    H181065   1.938   6.207  11.932 -2.2921  2.9034 -1.3719
19858TIP3    H281066   1.792   6.169  11.944 -0.9237 -2.2564  0.2488
19859TIP3   OH281067   0.652   0.019   0.361  0.2020  0.0551 -0.4351
19859TIP3    H181068   0.590  -0.017   0.297 -1.5624  0.4519  1.0292
19859TIP3    H281069   0.679   0.103   0.323  2.4930 -1.6310 -2.7064
19860TIP3   OH281070   4.647   5.111  13.762 -0.3175  0.3201  0.5182
19860TIP3    H181071   4.594   5.109  13.682 -1.7270 -1.6987  1.4466
19860TIP3    H281072   4.593   5.065  13.826  1.8292 -0.1698  1.9910
19861TIP3   OH281073   1.666   4.786   2.021  0.6485 -0.2292  0.3159
19861TIP3    H181074   1.617   4.803   1.941  2.3609 -1.5266 -1.0239
19861TIP3    H281075   1.649   4.694   2.041  1.6363 -0.3805  0.4707
19862TIP3   OH281076   1.262   6.232  12.846 -0.5295  0.0433  0.4194
19862TIP3    H181077   1.188   6.175  12.828  1.1610 -2.1244  0.1314
19862TIP3    H281078   1.337   6.188  12.805  0.9228  2.1699  0.7046
19863TIP3   OH281079   2.947   6.317   3.239 -0.3201 -0.3779 -0.0038
19863TIP3    H181080   2.921   6.392   3.291  1.7003 -0.8380  1.7572
19863TIP3    H281081   2.868   6.265   3.228 -1.3214  1.0687  0.3311
19864TIP3   OH281082   4.484   4.478  16.283  0.0600  0.0303 -0.0792
19864TIP3    H181083   4.549   4.530  16.330  0.7037 -0.5427 -0.3163
19864TIP3    H281084   4.401   4.499  16.325  0.5805 -0.2421  1.1155
19865TIP3   OH281085   5.578   4.809   5.192 -0.5114 -0.4308  0.1729
19865TIP3    H181086   5.551   4.802   5.284 -1.5697 -0.9142 -0.1669
19865TIP3    H281087   5.567   4.902   5.171 -0.0882 -0.2840  0.5828
19866TIP3   OH281088   2.206   1.002   2.062  0.0341  0.4935  0.0358
19866TIP3    H181089   2.157   0.922   2.082  1.0776 -0.1265  0.1431
19866TIP3    H281090   2.161   1.070   2.111  0.2924 -0.3610  1.4879
19867TIP3   OH281091   4.039   1.179   1.340  0.2407 -0.4977 -0.1847
19867TIP3    H181092   3.957   1.216   1.308 -1.2199 -3.3932  0.0844
19867TIP3    H281093   4.096   1.176   1.263 -0.0035  1.1759 -0.4523
19868TIP3   OH281094   6.581   3.440  15.432  0.4367  0.1140 -0.3839
19868TIP3    H181095   6.534   3.481  15.505 -0.0840  1.1026 -1.2520
19868TIP3    H281096   6.673   3.442  15.458  0.1263 -0.7054  0.7946
19869TIP3   OH281097   2.207   0.537   2.242 -0.0813  0.4026 -0.1824
19869TIP3    H181098   2.148   0.492   2.183  0.3402 -0.0190 -0.2847
19869TIP3    H281099   2.224   0.621   2.201  0.4550 -0.0103 -0.8202
19870TIP3   OH281100   4.625   4.346  11.558 -0.1649  0.2771 -0.3814
19870TIP3    H181101   4.621   4.363  11.652 -0.0480  0.4319 -0.4030
19870TIP3    H281102   4.698   4.400  11.527 -0.4049  0.4746 -0.6118
19871TIP3   OH281103   3.709   6.686  13.428 -0.8534 -0.1487  0.3747
19871TIP3    H181104   3.632   6.633  13.447 -1.0708 -0.1550 -0.4991
19871TIP3    H281105   3.778   6.648  13.483 -1.6727  0.4085  1.8114
19872TIP3   OH281106   6.509   3.843  12.988  0.1449  0.0777 -0.2380
19872TIP3    H181107   6.455   3.847  12.909 -0.5388 -0.9347  0.1742
19872TIP3    H281108   6.548   3.756  12.987  1.2785  0.5681 -0.1907
19873TIP3   OH281109   4.441   3.936  11.258 -0.1182 -0.4229  0.1797
19873TIP3    H181110   4.465   3.982  11.338 -0.1372  1.7525 -1.0431
19873TIP3    H281111   4.509   3.959  11.195 -1.5266  0.0111 -1.2048
19874TIP3   OH281112   2.860   0.515   5.272 -0.5693  0.5992  0.0732
19874TIP3    H181113   2.797   0.490   5.205 -1.2910  1.8172  0.2680
19874TIP3    H281114   2.816   0.585   5.321  1.8260  3.1876 -1.3049
19875TIP3   OH281115   4.466   4.401  14.624 -0.0032  0.2568  0.0104
19875TIP3    H181116   4.447   4.440  14.709  0.1433  0.2782  0.0343
19875TIP3    H281117   4.444   4.470  14.561 -1.9229 -0.4130 -0.0873
19876TIP3   OH281118   6.073   0.429   3.430  0.4817  0.4031 -0.1814
19876TIP3    H181119   6.071   0.334   3.444 -1.6204  0.5212  0.5483
19876TIP3    H281120   6.092   0.465   3.517 -1.5318  0.7215  0.1610
19877TIP3   OH281121   6.401   4.870  10.724  0.1750 -0.0225 -0.0278
19877TIP3    H181122   6.486   4.847  10.759  0.7216  0.6765 -0.8772
19877TIP3    H281123   6.413   4.958  10.687  0.1646 -1.5039 -3.7470
19878TIP3   OH281124   3.058   6.627   0.485  0.5750  0.2728  0.4189
19878TIP3    H181125   3.112   6.624   0.406 -0.0410 -3.1855  0.0660
19878TIP3    H281126   2.976   6.585   0.459 -0.3461  0.8342  2.3872
19879TIP3   OH281127   6.230   0.578   0.566  0.1370  0.2155  0.3620
19879TIP3    H181128   6.162   0.579   0.499 -1.0256 -0.2142  1.5223
19879TIP3    H281129   6.257   0.487   0.572 -0.2737  0.1309  0.9825
19880TIP3   OH281130   1.010   6.799  13.097  0.0170 -0.5913 -0.0642
19880TIP3    H181131   1.017   6.769  13.188  0.7762 -0.0220  0.0675
19880TIP3    H281132   1.071   6.742  13.049 -0.7019 -1.1763 -0.2878
19881TIP3   OH281133   3.141   4.324   5.113  0.3868  0.2965  0.0749
19881TIP3    H181134   3.176   4.335   5.024  1.0197  0.0867  0.2959
19881TIP3    H281135   3.213   4.349   5.170  0.8101 -1.9409  0.5628
19882TIP3   OH281136   5.036   1.725   1.073 -0.1233  0.0103  0.5434
19882TIP3    H181137   5.125   1.754   1.090 -0.2196 -0.0531  1.1421
19882TIP3    H281138   4.990   1.806   1.048  0.4332 -0.1752 -1.1800
19883TIP3   OH281139   2.605   5.141  11.275 -0.0814 -0.3321  0.5160
19883TIP3    H181140   2.692   5.117  11.242 -0.2101 -0.6068  0.3694
19883TIP3    H281141   2.599   5.236  11.262 -0.3520 -0.5100 -0.8174
19884TIP3   OH281142   3.366   6.523   3.215 -0.4370  0.3780 -1.2850
19884TIP3    H181143   3.451   6.507   3.174 -0.2649 -0.7662 -0.5107
19884TIP3    H281144   3.318   6.441   3.203 -1.4549  1.0366 -1.7567
19885TIP3   OH281145   2.632   2.702   4.342  0.5196  0.3257 -0.5955
19885TIP3    H181146   2.539   2.685   4.329  0.2279  0.2332  1.3841
19885TIP3    H281147   2.676   2.646   4.279 -0.6688 -2.0623  0.6490
19886TIP3   OH281148   5.869   2.376   6.147 -0.0948 -0.3026  0.5763
19886TIP3    H181149   5.935   2.319   6.107 -1.0792 -1.2608  0.3201
19886TIP3    H281150   5.894   2.379   6.240 -0.4331 -1.7048  0.7208
19887TIP3   OH281151   3.998   2.355  12.117  0.1351 -0.5256 -0.0925
19887TIP3    H181152   4.076   2.322  12.073  0.8424  0.3411  0.4958
19887TIP3    H281153   3.942   2.388  12.046  1.0965  0.5090 -0.3761
19888TIP3   OH281154   0.900   3.337   2.460 -0.3243 -0.2141  0.0701
19888TIP3    H181155   0.930   3.370   2.376 -3.9295  0.0365 -1.2091
19888TIP3    H281156   0.860   3.252   2.439 -1.0756 -0.2389  1.5370
19889TIP3   OH281157   4.055   5.985   4.863 -0.3370  0.5003 -0.2407
19889TIP3    H181158   4.011   5.921   4.808  2.1881 -1.0632 -0.4805
19889TIP3    H281159   4.142   5.949   4.878  0.3803  2.8170  1.4650
19890TIP3   OH281160   2.449   2.860   3.421  0.2196  0.2799  0.4273
19890TIP3    H181161   2.369   2.871   3.473  0.1283  0.3529  0.2721
19890TIP3    H281162   2.519   2.860   3.485  0.0251 -0.7747  0.6555
19891TIP3   OH281163   2.468   6.362  11.902 -0.1977  0.2751 -0.3065
19891TIP3    H181164   2.393   6.419  11.918  1.7329  2.7499  0.3806
19891TIP3    H281165   2.535   6.421  11.866  0.9226 -2.1497 -2.3497
19892TIP3   OH281166   3.637   0.491  15.404 -0.2317 -0.2906  0.2867
19892TIP3    H181167   3.587   0.542  15.341 -0.1579 -0.5640  0.0053
19892TIP3    H281168   3.616   0.400  15.384  1.3790 -0.4715 -0.6937
19893TIP3   OH281169   3.042   5.251  11.900  0.0522 -0.4756 -0.3214
19893TIP3    H181170   3.011   5.305  11.826 -0.5940 -1.4797 -0.7944
19893TIP3    H281171   3.136   5.240  11.884  0.0408 -0.1343 -0.6397
19894TIP3   OH281172   5.813   6.612  12.053 -0.2523 -0.0111  0.7877
19894TIP3    H181173   5.782   6.685  11.999  0.3114  0.6966  1.4058
19894TIP3    H281174   5.810   6.645  12.143 -2.0802 -1.4944  1.3110
19895TIP3   OH281175   6.746   4.000   4.558 -0.4340  0.2980 -0.3009
19895TIP3    H181176   6.752   4.066   4.627 -1.4210  1.0849 -0.9509
19895TIP3    H281177   6.707   3.924   4.601 -0.4079  0.5476  0.1671
19896TIP3   OH281178   5.951   1.392   5.334 -0.2412  0.4158  0.2304
19896TIP3    H181179   5.950   1.487   5.325  0.1390  0.5014  1.0624
19896TIP3    H281180   6.028   1.364   5.285 -0.9901  0.4203 -0.9908
19897TIP3   OH281181   2.423   1.753  15.460 -0.0995  0.0399 -0.1193
19897TIP3    H181182   2.506   1.772  15.416 -1.3289  1.6981 -1.7902
19897TIP3    H281183   2.425   1.805  15.540  0.3714  0.2425 -0.2661
19898TIP3   OH281184   3.998   3.245  15.340 -0.0553 -1.2479 -0.3208
19898TIP3    H181185   3.943   3.219  15.266  2.0950 -0.8912 -2.0988
19898TIP3    H281186   4.055   3.169  15.354 -0.1424 -1.1302  0.6864
19899TIP3   OH281187   2.793   1.911   6.205  0.1253 -0.5847  0.2865
19899TIP3    H181188   2.824   1.918   6.295  0.8947 -1.6290  0.1053
19899TIP3    H281189   2.845   1.975   6.157 -2.7501  2.6098  1.1802
19900TIP3   OH281190   1.911   1.038  11.911  0.2441 -0.5906  0.0666
19900TIP3    H181191   1.946   1.103  11.972 -0.6296 -0.2291  0.1848
19900TIP3    H281192   1.923   1.077  11.824  0.0879 -0.4509  0.1091
19901TIP3   OH281193   5.988   0.215  12.648  0.5183 -0.2758 -0.2398
19901TIP3    H181194   5.912   0.172  12.607 -0.3161 -0.6983  1.6906
19901TIP3    H281195   6.029   0.146  12.700  0.8442  0.5608  0.6146
19902TIP3   OH281196   1.477   2.777  12.018 -0.2355 -0.3188 -0.1954
19902TIP3    H181197   1.569   2.772  11.991  0.0166  0.0802  0.5857
19902TIP3    H281198   1.468   2.709  12.084 -0.3170  0.1406  0.2667
19903TIP3   OH281199   1.710   5.465   3.347 -0.4035  0.2120 -0.0003
19903TIP3    H181200   1.696   5.426   3.261 -0.2359  0.6273 -0.2181
19903TIP3    H281201   1.783   5.525   3.334  3.1003 -3.4285  1.5454
19904TIP3   OH281202   3.488   5.622   3.694 -0.3223 -1.0195  0.3766
19904TIP3    H181203   3.525   5.543   3.653  0.2926 -0.2169 -0.6367
19904TIP3    H281204   3.559   5.686   3.689 -0.6240 -0.5676  1.7187
19905TIP3   OH281205   5.007   0.073  16.073  0.1515  0.4779  0.2021
19905TIP3    H181206   5.058   0.010  16.125  0.0233  0.2550  0.0606
19905TIP3    H281207   5.034   0.158  16.106  2.9757  0.5163 -2.0204
19906TIP3   OH281208   0.526   3.622  12.353  0.4268 -0.2691 -0.1337
19906TIP3    H181209   0.557   3.696  12.301 -1.0222 -0.4972 -1.3793
19906TIP3    H281210   0.472   3.662  12.422  1.5550 -0.0266  0.6135
19907TIP3   OH281211   3.035   4.478  16.201 -0.1757 -0.2106 -0.0292
19907TIP3    H181212   3.090   4.555  16.219 -0.5361  0.0408  0.0127
19907TIP3    H281213   3.097   4.407  16.189  0.1225 -0.2644  1.5995
19908TIP3   OH281214   3.394   5.716   5.884  0.1591  0.1928 -0.1910
19908TIP3    H181215   3.326   5.660   5.923  1.8549 -1.1342  0.9550
19908TIP3    H281216   3.381   5.707   5.790 -0.4199 -1.1291 -0.0035
19909TIP3   OH281217   1.090   3.606   5.624 -0.0894 -0.0282  0.1279
19909TIP3    H181218   1.053   3.694   5.631 -2.7823 -1.1589  0.4586
19909TIP3    H281219   1.083   3.570   5.713  0.5118 -0.7686 -0.1192
19910TIP3   OH281220   3.998   0.234   5.374  0.2633 -0.2955  0.0649
19910TIP3    H181221   3.922   0.287   5.352  0.1616  0.3692  1.9322
19910TIP3    H281222   3.991   0.219   5.468 -0.1470 -4.3199 -0.5051
19911TIP3   OH281223   4.021   6.622   5.732  0.2610  0.1688  0.1700
19911TIP3    H181224   3.941   6.665   5.703 -0.6224 -0.6482  1.3234
19911TIP3    H281225   3.991   6.559   5.799  1.5437 -1.9320 -1.1689
19912TIP3   OH281226   3.902   4.445  16.119 -0.0416 -0.0993  0.2786
19912TIP3    H181227   3.836   4.500  16.160 -0.9289 -0.8290 -0.1643
19912TIP3    H281228   3.977   4.448  16.179 -0.2358  1.2392  0.4571
19913TIP3   OH281229   2.790   2.079  16.840 -1.1760 -0.2600  0.0054
19913TIP3    H181230   2.781   2.016  16.912 -2.0170  1.4930  1.4610
19913TIP3    H281231   2.877   2.117  16.852 -0.5962 -1.2513 -0.9796
19914TIP3   OH281232   5.519   2.199   6.842 -0.1827 -0.0216  0.5792
19914TIP3    H181233   5.539   2.114   6.880  0.8195  0.5040  1.2541
19914TIP3    H281234   5.589   2.256   6.873 -1.1385  1.1732  0.5691
19915TIP3   OH281235   1.220   0.066   3.282  0.4286 -0.2338 -0.2263
19915TIP3    H181236   1.132   0.090   3.311  1.0819  1.6048  0.3110
19915TIP3    H281237   1.272   0.064   3.362  1.2873  0.5631 -0.7526
19916TIP3   OH281238   3.274   6.558  15.652 -0.3975 -0.3689 -0.0025
19916TIP3    H181239   3.361   6.570  15.690 -0.3436  0.8253 -0.4745
19916TIP3    H281240   3.272   6.466  15.626  1.1039 -0.1734 -0.9006
19917TIP3   OH281241   2.889   5.855  11.373 -0.2455  0.3206 -0.3886
19917TIP3    H181242   2.961   5.793  11.380 -1.1376 -0.5094  1.6126
19917TIP3    H281243   2.917   5.917  11.306  2.0567 -0.3591 -0.0705
19918TIP3   OH281244   4.199   2.966   2.566  0.5528 -0.1372  0.1091
19918TIP3    H181245   4.212   3.042   2.623  0.4495  0.5619 -0.7821
19918TIP3    H281246   4.112   2.934   2.588  0.4588  0.2144  0.2473
19919TIP3   OH281247   1.430   6.390   2.126 -0.7265 -0.3338  0.4595
19919TIP3    H181248   1.390   6.307   2.100  1.2878 -0.8203 -1.2267
19919TIP3    H281249   1.366   6.456   2.101 -0.9921 -1.1659 -1.1214
19920TIP3   OH281250   0.253   4.198   2.215 -0.6051  0.0524 -0.3241
19920TIP3    H181251   0.175   4.227   2.262 -1.1300 -0.9523 -0.5546
19920TIP3    H281252   0.306   4.277   2.205 -1.2708  0.6072  0.4484
19921TIP3   OH281253   2.423   4.188   2.492  0.0226 -0.2408  0.0252
19921TIP3    H181254   2.370   4.170   2.570  0.4726 -0.5765  0.2566
19921TIP3    H281255   2.462   4.104   2.469 -0.7108 -0.2941 -1.0223
19922TIP3   OH281256   1.487   5.680   4.091 -0.1906  0.3065 -0.7529
19922TIP3    H181257   1.565   5.644   4.134 -0.3848  1.0621  0.2718
19922TIP3    H281258   1.506   5.773   4.082 -0.3482  0.2297 -1.9151
19923TIP3   OH281259   2.682   2.612   6.185  0.5497  0.4046  0.8199
19923TIP3    H181260   2.725   2.635   6.103 -0.6587  0.2590  0.1474
19923TIP3    H281261   2.722   2.670   6.250  0.3650  1.6308 -0.1528
19924TIP3   OH281262   5.830   5.091   4.349  0.7653  0.1896 -0.0099
19924TIP3    H181263   5.873   5.140   4.279 -0.8923  0.4624 -0.8585
19924TIP3    H281264   5.790   5.158   4.404 -0.7131 -0.1498 -0.6482
19925TIP3   OH281265   6.244   3.725   0.558 -0.3488 -0.3301  0.1689
19925TIP3    H181266   6.305   3.798   0.547 -0.6157 -0.3668 -1.7817
19925TIP3    H281267   6.289   3.663   0.614  0.9255  0.1970 -0.2681
19926TIP3   OH281268   1.436   6.785   4.374  0.4093  0.2331  0.2720
19926TIP3    H181269   1.353   6.800   4.329  1.1680  0.1293 -1.1886
19926TIP3    H281270   1.459   6.695   4.353  2.7637  1.4194 -2.5066
19927TIP3   OH281271   1.135   2.153   2.119 -0.3336 -0.3751  0.3521
19927TIP3    H181272   1.042   2.136   2.105 -0.2762 -0.3396 -0.0664
19927TIP3    H281273   1.180   2.083   2.073 -0.1088  0.6775 -1.0631
19928TIP3   OH281274   4.226   4.604  10.881  0.9124 -0.0340  0.9170
19928TIP3    H181275   4.239   4.695  10.908  0.1939  0.5009 -0.5166
19928TIP3    H281276   4.202   4.609  10.789 -1.7452 -1.4850  1.4725
19929TIP3   OH281277   2.776   3.796  12.622 -0.1076 -0.0900 -0.3472
19929TIP3    H181278   2.685   3.770  12.607 -1.1190  1.4176  2.6409
19929TIP3    H281279   2.785   3.880  12.577 -0.6729  0.4932  0.6106
19930TIP3   OH281280   5.888   2.212  12.272  0.2628 -0.0240 -0.0468
19930TIP3    H181281   5.912   2.121  12.259  0.2257 -0.0111 -0.2054
19930TIP3    H281282   5.799   2.210  12.305  0.1626 -0.0332 -0.3191
19931TIP3   OH281283   5.304   3.815   3.766 -0.1276 -0.0783 -0.6347
19931TIP3    H181284   5.354   3.897   3.758 -0.3368  0.2264  0.9210
19931TIP3    H281285   5.267   3.800   3.679  0.7999  0.9099 -1.2101
19932TIP3   OH281286   6.170   1.300   5.529  0.0638 -0.0390 -1.3593
19932TIP3    H181287   6.081   1.306   5.563  0.4317 -0.5764 -0.2757
19932TIP3    H281288   6.180   1.207   5.506 -0.3765  0.4236 -3.4963
19933TIP3   OH281289   2.138   2.079  11.872 -0.0888  0.3144  0.1435
19933TIP3    H181290   2.233   2.071  11.867  0.0074  0.9487  0.8580
19933TIP3    H281291   2.112   2.112  11.785  0.3489  0.1992 -0.0304
19934TIP3   OH281292   6.318   1.598   0.463  0.2535 -0.0273  0.3617
19934TIP3    H181293   6.382   1.588   0.534  1.5401 -1.3254 -0.9412
19934TIP3    H281294   6.274   1.513   0.459  0.0098  0.1267 -0.2222
19935TIP3   OH281295   2.574   2.757   1.767  0.4484 -0.0262 -0.3599
19935TIP3    H181296   2.576   2.790   1.856 -0.0275  0.5708 -0.5652
19935TIP3    H281297   2.492   2.709   1.761  0.1646  0.4834 -0.6599
19936TIP3   OH281298   6.625   2.814   2.113  0.0080  0.6659  0.0668
19936TIP3    H181299   6.578   2.891   2.145 -0.3644  0.2988  0.4065
19936TIP3    H281300   6.603   2.809   2.020 -0.9221  0.2876  0.3029
19937TIP3   OH281301   6.484   0.592  17.286 -0.6049 -0.0862 -0.6876
19937TIP3    H181302   6.506   0.541  17.208  2.3055  0.2217 -0.1283
19937TIP3    H281303   6.457   0.677  17.252 -0.4100 -0.3030 -1.3992
19938TIP3   OH281304   1.627   0.374  12.261  0.1801  0.0358 -0.7476
19938TIP3    H181305   1.684   0.446  12.287  0.9957 -0.5700 -0.8350
19938TIP3    H281306   1.538   0.405  12.278  0.4795  1.4017 -1.6122
19939TIP3   OH281307   0.544   3.855  16.796 -0.4506  0.1957 -0.4435
19939TIP3    H181308   0.609   3.847  16.727  1.1934  1.7063  0.8883
19939TIP3    H281309   0.589   3.900  16.868 -2.9180  1.2338  0.5408
19940TIP3   OH281310   4.894   0.592  16.174 -0.3909  0.5034 -0.4263
19940TIP3    H181311   4.819   0.547  16.214 -0.6004  1.0593 -0.1914
19940TIP3    H281312   4.935   0.640  16.247 -2.1106  3.3823 -1.2937
19941TIP3   OH281313   0.019   3.557  13.015  0.5306  0.1406  0.2093
19941TIP3    H181314   0.049   3.558  13.106  0.0133  0.6199  0.3682
19941TIP3    H281315   0.050   3.472  12.982 -1.3568 -1.0921  1.5208
19942TIP3   OH281316   0.330   3.167  13.550 -0.7920  0.2685 -0.7427
19942TIP3    H181317   0.312   3.223  13.625 -0.6893  0.6466 -1.0024
19942TIP3    H281318   0.263   3.098  13.555 -0.2087 -0.2394  0.2260
19943TIP3   OH281319   0.191   4.649  11.161  0.0218  0.2808  0.2574
19943TIP3    H181320   0.223   4.562  11.188 -0.3436 -0.1002 -0.5080
19943TIP3    H281321   0.238   4.666  11.079  2.3224  2.1269  1.8962
19944TIP3   OH281322   2.760   1.675  12.930  0.1469  0.1646 -0.2991
19944TIP3    H181323   2.685   1.725  12.898 -0.6782  0.8631  2.5645
19944TIP3    H281324   2.835   1.711  12.883 -0.8773  1.7604 -0.7595
19945TIP3   OH281325   6.552   5.981  15.549  0.3236 -0.2515  0.1884
19945TIP3    H181326   6.619   6.037  15.510 -1.0197 -0.3943 -2.5023
19945TIP3    H281327   6.545   5.907  15.489 -0.5050 -1.4570  1.7436
19946TIP3   OH281328   0.044   2.254  12.116  0.6105  0.2362  0.5071
19946TIP3    H181329  -0.010   2.306  12.175 -1.1645  0.3878 -1.1935
19946TIP3    H281330   0.057   2.171  12.163  0.0664  0.7262  1.5422
19947TIP3   OH281331   6.746   3.347  16.692 -0.1579  0.2536  0.7680
19947TIP3    H181332   6.709   3.346  16.780  0.5770  1.1579  1.0925
19947TIP3    H281333   6.723   3.262  16.655 -3.2001  1.0656  0.6852
19948TIP3   OH281334   4.561   3.937  14.294 -0.3149 -0.0993 -0.1169
19948TIP3    H181335   4.629   3.998  14.265  0.8989 -0.1718  2.3800
19948TIP3    H281336   4.593   3.905  14.379 -1.5313 -3.2482 -0.7703
19949TIP3   OH281337   3.975   1.937   4.084 -0.0375 -0.1817 -0.3488
19949TIP3    H181338   4.048   1.911   4.141  0.2609  1.6507  0.1312
19949TIP3    H281339   4.017   1.969   4.004 -0.3538  0.1375 -0.3860
19950TIP3   OH281340   0.367   3.217   6.512  0.2370 -0.0246 -0.1174
19950TIP3    H181341   0.408   3.133   6.487  0.6345 -0.2966  1.4410
19950TIP3    H281342   0.296   3.192   6.571 -0.9872  0.6011 -1.2842
19951TIP3   OH281343   2.361   6.514  11.542 -0.3900  0.1088  0.1651
19951TIP3    H181344   2.280   6.463  11.539 -0.6518  0.5341 -0.0462
19951TIP3    H281345   2.422   6.460  11.592 -1.3018  0.4824  1.7225
19952TIP3   OH281346   6.535   1.761  11.318 -0.4849  0.5359 -0.0841
19952TIP3    H181347   6.553   1.849  11.351  0.2876  0.2952  0.1320
19952TIP3    H281348   6.445   1.766  11.285 -0.7273  1.1854  0.6662
19953TIP3   OH281349   5.479   2.029  14.989 -0.2677  0.0857  0.1061
19953TIP3    H181350   5.453   1.975  14.914  0.2322  0.6106 -0.4507
19953TIP3    H281351   5.397   2.059  15.027 -0.5358 -0.5656  0.0507
19954TIP3   OH281352   4.956   2.048   3.720 -0.1653 -0.5924  0.3302
19954TIP3    H181353   4.864   2.025   3.712 -0.0931 -0.2036 -2.1636
19954TIP3    H281354   4.956   2.141   3.742 -0.3656 -0.1663 -1.4435
19955TIP3   OH281355   2.689   4.907   1.894 -0.5317  0.4331 -0.5756
19955TIP3    H181356   2.650   4.955   1.821  0.9029  1.6230 -0.5841
19955TIP3    H281357   2.782   4.903   1.873  0.2137  2.4768  2.0641
19956TIP3   OH281358   4.667   1.871  16.092 -0.8784  0.8131 -0.3840
19956TIP3    H181359   4.578   1.837  16.080 -0.5725 -0.6104  1.1895
19956TIP3    H281360   4.723   1.802  16.056 -0.2753 -0.0776  2.1674
19957TIP3   OH281361   1.898   1.061   0.966  0.5052  0.1317 -0.8167
19957TIP3    H181362   1.844   1.131   0.930  0.7104 -0.7187 -2.8402
19957TIP3    H281363   1.936   1.098   1.046 -1.1395  1.5550 -0.6724
19958TIP3   OH281364   6.090   3.534  12.649 -0.5160 -0.1871 -0.1041
19958TIP3    H181365   6.002   3.568  12.668 -0.2009  1.3241 -1.3064
19958TIP3    H281366   6.092   3.448  12.692 -1.9491  0.5433  1.4676
19959TIP3   OH281367   3.009   0.774   1.618 -0.2096  0.0823 -0.2363
19959TIP3    H181368   2.937   0.828   1.585 -0.4576  0.4450  0.8798
19959TIP3    H281369   2.979   0.684   1.604 -0.4441  0.2261 -0.7001
19960TIP3   OH281370   2.921   6.032   2.482 -0.0124 -0.5813 -0.3038
19960TIP3    H181371   2.849   5.969   2.479  0.5309 -1.1669 -1.5426
19960TIP3    H281372   2.961   6.017   2.568 -0.8118 -0.8738  0.0308
19961TIP3   OH281373   4.650   0.963  12.852 -0.2991 -0.1195 -0.0291
19961TIP3    H181374   4.728   0.979  12.905 -0.1426 -1.8507  0.2989
19961TIP3    H281375   4.640   0.868  12.852  0.1572 -0.2444 -3.7559
19962TIP3   OH281376   3.229   1.852  14.105  0.5374  0.4314  0.5578
19962TIP3    H181377   3.270   1.775  14.065 -1.9612 -0.7859  0.2494
19962TIP3    H281378   3.259   1.926  14.052  0.5435 -0.6965 -1.0239
19963TIP3   OH281379   4.390   6.456  11.049 -0.0899 -0.1137  0.1021
19963TIP3    H181380   4.398   6.361  11.057 -0.8261 -0.1810  0.0992
19963TIP3    H281381   4.446   6.479  10.975  0.8306 -0.4272  0.6935
19964TIP3   OH281382   6.804   3.580   3.717 -0.1422 -0.4921 -0.3356
19964TIP3    H181383   6.841   3.605   3.802 -1.8875 -0.6273  0.4781
19964TIP3    H281384   6.811   3.485   3.715 -1.1748 -0.5852  0.1738
19965TIP3   OH281385   0.442   5.171  12.942  0.1991  0.1775  0.8017
19965TIP3    H181386   0.422   5.236  12.875 -1.1753 -0.9368  0.0899
19965TIP3    H281387   0.437   5.087  12.896 -0.5112 -0.5899  2.2357
19966TIP3   OH281388   3.281   4.157  16.820  0.3941 -0.2380 -0.2207
19966TIP3    H181389   3.234   4.127  16.898 -0.7231 -0.9422 -1.1441
19966TIP3    H281390   3.223   4.134  16.748  2.4014 -1.5768 -1.4403
19967TIP3   OH281391   2.493   1.607  14.818  0.1449 -0.8137  0.0181
19967TIP3    H181392   2.486   1.587  14.725  0.8376 -0.6608 -0.0653
19967TIP3    H281393   2.585   1.627  14.832  0.1905 -1.6078  0.9028
19968TIP3   OH281394   0.724   3.586   0.149  0.1013  0.5367  0.4070
19968TIP3    H181395   0.657   3.569   0.216  0.4892  0.0905  0.6867
19968TIP3    H281396   0.694   3.665   0.104  0.3609  1.4395  1.7973
19969TIP3   OH281397   2.928   0.193  12.246 -0.6490 -0.5242  0.3326
19969TIP3    H181398   2.934   0.285  12.221  1.9737 -0.5482  0.6867
19969TIP3    H281399   2.836   0.170  12.235 -1.4625  2.3190  0.8566
19970TIP3   OH281400   6.499   6.497  11.216 -0.0800  0.1315  0.1035
19970TIP3    H181401   6.492   6.592  11.221 -0.7743  0.0600  0.5419
19970TIP3    H281402   6.580   6.481  11.168 -1.5774  0.9905 -2.8553
19971TIP3   OH281403   3.114   6.356  12.469  0.6268 -0.2789 -0.3279
19971TIP3    H181404   3.129   6.443  12.431  2.7572 -0.1674  0.7049
19971TIP3    H281405   3.036   6.366  12.522 -0.3348  0.4668 -1.8406
19972TIP3   OH281406   5.594   2.647  11.537  0.8714  0.4079  0.1873
19972TIP3    H181407   5.555   2.703  11.470  2.4117 -0.2548 -1.3056
19972TIP3    H281408   5.612   2.706  11.611 -1.0963  1.0877  0.1516
19973TIP3   OH281409   1.030   0.687   1.341 -0.2405  0.2430  0.3583
19973TIP3    H181410   1.100   0.684   1.406 -0.3607 -1.4602  0.4154
19973TIP3    H281411   0.951   0.707   1.391  0.0836  1.5031  0.3816
19974TIP3   OH281412   5.654   5.398   3.589 -0.0491  0.1887 -0.0071
19974TIP3    H181413   5.602   5.331   3.634  0.4687 -1.0489 -1.2462
19974TIP3    H281414   5.593   5.436   3.526  0.3257 -0.7306 -0.9253
19975TIP3   OH281415   5.235   4.479  13.396  0.2583  0.5835 -0.1078
19975TIP3    H181416   5.172   4.534  13.443 -1.3222  0.7426 -2.3583
19975TIP3    H281417   5.297   4.541  13.357  1.4776  0.4587  1.5570
19976TIP3   OH281418   1.035   2.976  11.213 -0.2781 -0.3789 -0.4731
19976TIP3    H181419   1.093   2.920  11.163  2.0077  0.3124  1.3268
19976TIP3    H281420   0.984   2.916  11.267 -2.1650 -1.0666 -2.9253
19977TIP3   OH281421   3.384   3.354  12.030 -0.0688  0.1613  0.5286
19977TIP3    H181422   3.477   3.370  12.015  0.0485 -0.8449  0.1097
19977TIP3    H281423   3.339   3.406  11.964  0.2705 -0.6635 -0.3660
19978TIP3   OH281424   0.453   0.468   1.147  0.0299  0.0033  0.0645
19978TIP3    H181425   0.371   0.517   1.150  0.3122  0.5615 -1.2590
19978TIP3    H281426   0.429   0.382   1.114  0.1422  0.5372 -1.4435
19979TIP3   OH281427   1.189   5.629   3.548  0.1443  0.4773 -0.5359
19979TIP3    H181428   1.095   5.633   3.533 -0.5156 -1.8491  2.3269
19979TIP3    H281429   1.219   5.556   3.493 -0.1775 -0.3188  0.3232
19980TIP3   OH281430   3.680   4.511   1.443  0.8640  0.5348 -0.2208
19980TIP3    H181431   3.605   4.467   1.483 -0.3712  2.0957 -0.7884
19980TIP3    H281432   3.755   4.454   1.464 -0.4808 -1.1207  0.2138
19981TIP3   OH281433   6.072   5.981   4.483  0.1865 -0.0245 -0.0334
19981TIP3    H181434   6.126   6.056   4.505 -1.8227  1.1483  1.1292
19981TIP3    H281435   6.050   5.992   4.391 -1.8277  2.0003  0.6493
19982TIP3   OH281436   4.153   0.724  14.569 -0.3245 -0.0235  0.2430
19982TIP3    H181437   4.180   0.744  14.658  1.4511  0.3460 -0.3676
19982TIP3    H281438   4.221   0.666  14.534  0.0746  1.4409 -1.5144
19983TIP3   OH281439   1.963   5.021  12.970 -0.0847 -0.1299  0.7608
19983TIP3    H181440   1.955   5.028  12.875 -1.1945  1.8535  0.9642
19983TIP3    H281441   1.943   4.929  12.990  1.2245 -0.8205 -0.9934
19984TIP3   OH281442   4.597   5.309  17.106  0.2241 -0.4168  0.5217
19984TIP3    H181443   4.540   5.233  17.105  0.3877 -0.5325 -1.1854
19984TIP3    H281444   4.631   5.316  17.017  3.4081 -0.7290  1.6315
19985TIP3   OH281445   2.313   0.539   6.108 -0.1740  0.1070  0.1233
19985TIP3    H181446   2.218   0.551   6.115 -0.3701 -2.0298  1.5790
19985TIP3    H281447   2.347   0.627   6.090 -2.5039  0.7149 -1.4084
19986TIP3   OH281448   1.910   4.495   4.716 -0.6489  0.1904  0.4581
19986TIP3    H181449   1.830   4.443   4.710 -1.6724  1.8834 -0.9744
19986TIP3    H281450   1.909   4.532   4.804 -0.1320 -1.8309  1.3364
19987TIP3   OH281451   1.584   5.277  14.740 -0.0019 -0.0232 -0.4684
19987TIP3    H181452   1.575   5.213  14.810 -0.6955 -1.0135 -1.4539
19987TIP3    H281453   1.525   5.348  14.765 -1.2955 -0.9960 -0.7310
19988TIP3   OH281454   4.481   4.392   4.408  0.4040 -0.4266 -0.0774
19988TIP3    H181455   4.470   4.304   4.445  1.8342 -1.3327 -1.7821
19988TIP3    H281456   4.476   4.379   4.313 -1.2709  1.6101 -0.2972
19989TIP3   OH281457   5.935   2.371  15.974  0.4029 -0.3553 -0.4020
19989TIP3    H181458   5.905   2.386  15.885  0.5172 -0.9064 -0.5348
19989TIP3    H281459   5.855   2.365  16.026  0.3694  2.3847 -0.0518
19990TIP3   OH281460   1.908   0.297  14.397  0.1233 -0.3519 -0.2311
19990TIP3    H181461   1.884   0.205  14.402 -0.5151 -0.2374 -1.0478
19990TIP3    H281462   2.002   0.299  14.416  0.0137 -1.0979  0.3854
19991TIP3   OH281463   4.672   1.236   1.535  0.1294 -0.0451  0.0731
19991TIP3    H181464   4.758   1.253   1.496  0.2322  2.5223  1.3440
19991TIP3    H281465   4.633   1.322   1.545 -2.8167 -1.2233 -0.8862
19992TIP3   OH281466   0.688   3.203  14.610  0.2019  0.0259 -0.4004
19992TIP3    H181467   0.632   3.237  14.540 -1.2947  0.5111  1.0110
19992TIP3    H281468   0.713   3.280  14.661  3.2348 -0.0035 -1.7344
19993TIP3   OH281469   6.752   2.397   1.393 -0.2389 -0.4948 -0.2946
19993TIP3    H181470   6.740   2.360   1.306  0.3316 -0.1208 -0.5323
19993TIP3    H281471   6.816   2.466   1.382 -1.1562  0.4479  0.1983
19994TIP3   OH281472   3.397   4.182  15.253 -0.6166  0.2012  0.0493
19994TIP3    H181473   3.428   4.092  15.248  0.5250  0.6015 -0.1220
19994TIP3    H281474   3.473   4.236  15.232 -1.4857  1.1906 -0.6642
19995TIP3   OH281475   4.377   2.040   0.295  0.3279  0.0082 -0.0716
19995TIP3    H181476   4.458   1.991   0.302 -0.1964 -1.2544 -2.4484
19995TIP3    H281477   4.376   2.074   0.206 -1.8215 -0.1575 -0.1568
19996TIP3   OH281478   2.740   2.407   5.849  0.0483  0.3591 -0.2506
19996TIP3    H181479   2.825   2.451   5.845 -0.4989  1.3670 -0.9087
19996TIP3    H281480   2.732   2.363   5.764 -0.2408  0.5300 -0.3101
19997TIP3   OH281481   4.601   5.120  14.133 -0.5551  0.0658  0.0150
19997TIP3    H181482   4.594   5.093  14.225  0.5560 -0.0042  0.0841
19997TIP3    H281483   4.545   5.197  14.127 -2.1135 -1.0241  0.3039
19998TIP3   OH281484   2.328   1.213  15.965 -0.2810 -0.3237 -0.4976
19998TIP3    H181485   2.288   1.145  15.911 -1.3075 -1.3668  1.5273
19998TIP3    H281486   2.416   1.179  15.985 -1.4010 -1.9449  1.9635
19999TIP3   OH281487   0.482   0.320   3.209 -0.2682 -0.5162  0.4546
19999TIP3    H181488   0.575   0.295   3.215 -1.2825 -4.7843 -0.0224
19999TIP3    H281489   0.470   0.344   3.117  0.5884  1.2613  0.7767
20000TIP3   OH281490   0.686   1.325  15.601 -0.6274 -0.1692  0.2594
20000TIP3    H181491   0.644   1.252  15.556 -0.8186  0.8469 -1.2632
20000TIP3    H281492   0.614   1.375  15.639 -0.7426  0.7966 -1.1614
20001TIP3   OH281493   6.069   6.201  14.878  0.4025  0.1713 -0.0120
20001TIP3    H181494   6.061   6.242  14.964 -0.4782 -0.5864  0.2717
20001TIP3    H281495   6.109   6.269  14.823 -1.2859  1.5347  0.3914
20002TIP3   OH281496   3.950   5.081  13.431  0.0988 -0.1355 -0.3214
20002TIP3    H181497   3.886   5.044  13.371 -0.8666 -0.6738  1.0225
20002TIP3    H281498   3.972   5.166  13.393  0.4852 -0.9950 -2.1131
20003TIP3   OH281499   2.203   1.100  12.627  0.0812  0.3461  0.2486
20003TIP3    H181500   2.261   1.026  12.640 -4.6210 -3.7732 -0.6002
20003TIP3    H281501   2.157   1.109  12.711 -0.7429  1.0259 -0.2636
20004TIP3   OH281502   6.096   1.074   3.902  0.1032  0.0547 -0.4585
20004TIP3    H181503   6.174   1.038   3.943 -0.0750  1.7710  1.4708
20004TIP3    H281504   6.104   1.168   3.912 -1.4675  0.3442 -1.6363
20005TIP3   OH281505   5.601   2.381  12.457  0.0639  0.5373 -0.1377
20005TIP3    H181506   5.507   2.391  12.441  0.2385 -0.7417 -2.2956
20005TIP3    H281507   5.633   2.470  12.471 -1.2847  1.1189 -0.6485
20006TIP3   OH281508   2.858   0.918  12.680 -0.2735 -0.0593 -0.8014
20006TIP3    H181509   2.787   0.882  12.627 -0.3699  0.6586 -1.1568
20006TIP3    H281510   2.871   1.006  12.647 -0.4097  0.4376  0.4485
20007TIP3   OH281511   2.809   1.793   1.346 -0.5216  0.4051 -0.1515
20007TIP3    H181512   2.819   1.800   1.251 -1.8948  3.9065 -0.1270
20007TIP3    H281513   2.754   1.868   1.369 -0.4648 -0.5696  3.3849
20008TIP3   OH281514   0.122   0.780   2.779 -0.7060  0.5615 -0.1508
20008TIP3    H181515   0.181   0.841   2.735 -1.5853  1.0432 -0.6685
20008TIP3    H281516   0.165   0.761   2.863 -0.1697  1.4680 -0.2164
20009TIP3   OH281517   1.694   3.079  14.260  0.1053  0.5551  0.0430
20009TIP3    H181518   1.688   3.046  14.171 -0.9076  2.4340 -0.6036
20009TIP3    H281519   1.633   3.025  14.310  0.7590 -0.5704 -0.3651
20010TIP3   OH281520   1.618   6.205   4.170  0.2336 -0.0021  0.4617
20010TIP3    H181521   1.547   6.149   4.201 -0.2442 -0.6236 -1.6770
20010TIP3    H281522   1.636   6.174   4.081  0.0486  3.1337 -0.7365
20011TIP3   OH281523   5.093   2.309  17.085  0.0307  0.1531  0.1783
20011TIP3    H181524   5.059   2.333  17.171  0.7471 -0.2104  0.5670
20011TIP3    H281525   5.091   2.213  17.085  0.0474  0.1530 -0.2054
20012TIP3   OH281526   1.653   6.605  10.735  0.0799  0.3317  0.0981
20012TIP3    H181527   1.593   6.589  10.807 -0.2929 -2.4988 -0.7826
20012TIP3    H281528   1.740   6.594  10.773 -0.0515  0.6861  0.5091
20013TIP3   OH281529   0.773   3.418   5.422 -0.1135  0.5421  0.1710
20013TIP3    H181530   0.850   3.407   5.367  0.5515 -1.7021  1.4718
20013TIP3    H281531   0.708   3.358   5.386  0.4973 -1.3279  2.0567
20014TIP3   OH281532   5.074   1.539   2.946 -0.2072 -0.4325  0.1993
20014TIP3    H181533   5.023   1.473   2.994  0.7591 -1.3645 -0.0202
20014TIP3    H281534   5.009   1.602   2.916 -1.0689 -0.8743  1.0687
20015TIP3   OH281535   0.062   0.752   1.503  0.4528  0.4825  0.2721
20015TIP3    H181536   0.026   0.705   1.428 -1.8081 -0.7604  2.0738
20015TIP3    H281537   0.117   0.687   1.547  0.6835  0.7994  0.4536
20016TIP3   OH281538   3.604   1.100  12.866  0.0977  0.1069 -0.5827
20016TIP3    H181539   3.586   1.171  12.927  1.1096 -0.1256 -0.0053
20016TIP3    H281540   3.567   1.130  12.783 -0.0627  1.0225 -0.1872
20017TIP3   OH281541   0.116   2.552  14.595 -0.2903 -0.2001  0.2621
20017TIP3    H181542   0.089   2.476  14.646 -0.7554  1.1718  2.1261
20017TIP3    H281543   0.209   2.563  14.615 -0.3325  0.0019  0.3424
20018TIP3   OH281544   2.543   6.220   4.457  0.4722  0.0714  0.3960
20018TIP3    H181545   2.631   6.242   4.426 -0.8173  2.4399 -1.6994
20018TIP3    H281546   2.501   6.178   4.383 -0.4207 -0.4404  1.1797
20019TIP3   OH281547   5.887   0.081  16.665  0.3600 -0.0291  0.3409
20019TIP3    H181548   5.887   0.051  16.574 -1.0431 -1.1036  0.6813
20019TIP3    H281549   5.939   0.016  16.711  2.8263  1.6215 -0.0098
20020TIP3   OH281550   1.149   4.008  16.219  0.0229 -0.0545 -0.8838
20020TIP3    H181551   1.062   4.037  16.245  0.8924  0.8499  1.1234
20020TIP3    H281552   1.164   3.929  16.270  1.0765  0.8060  0.1797
20021TIP3   OH281553   3.488   0.942  11.240 -1.2031  0.6854 -0.1330
20021TIP3    H181554   3.450   0.857  11.264  0.1134  0.4379  1.1564
20021TIP3    H281555   3.526   0.928  11.153 -1.1400  0.0002  0.0018
20022TIP3   OH281556   3.410   4.237  16.214 -0.2637 -0.3382  0.0235
20022TIP3    H181557   3.400   4.148  16.248 -0.6257 -0.8725 -1.4252
20022TIP3    H281558   3.482   4.274  16.264  0.2891 -1.6630  0.2312
20023TIP3   OH281559   3.686   4.994  14.637 -0.2689 -0.1183  0.5997
20023TIP3    H181560   3.722   4.985  14.549 -3.2431 -1.3700 -0.5479
20023TIP3    H281561   3.714   4.914  14.682 -0.4361 -0.4207  0.1696
20024TIP3   OH281562   1.814   0.239  13.100  0.4666  1.0311 -0.5931
20024TIP3    H181563   1.769   0.202  13.176  1.1624 -0.4924 -0.9113
20024TIP3    H281564   1.898   0.194  13.096  0.0363  0.3529 -2.8467
20025TIP3   OH281565   1.404   5.279   0.805  0.6053  0.4570 -0.1771
20025TIP3    H181566   1.423   5.369   0.833  1.3673  0.6034 -1.1653
20025TIP3    H281567   1.486   5.248   0.766  0.6436 -1.0130  1.0325
20026TIP3   OH281568   3.857   1.997  13.096 -0.1556 -0.0477 -0.3241
20026TIP3    H181569   3.765   2.022  13.089  0.1152  0.9699 -0.3587
20026TIP3    H281570   3.866   1.960  13.183  0.1755  3.2683  1.1426
20027TIP3   OH281571   5.576   5.481  16.813 -0.1337  0.4240 -0.2772
20027TIP3    H181572   5.582   5.424  16.736  0.3702  1.7303 -1.2170
20027TIP3    H281573   5.667   5.492  16.842 -0.3107  0.0173  0.4546
20028TIP3   OH281574   2.935   0.526   0.032 -0.4827  0.1101 -0.3402
20028TIP3    H181575   2.959   0.613   0.000 -1.2868  0.3196 -0.3897
20028TIP3    H281576   2.934   0.471  -0.046 -0.5444  0.1926 -0.3970
20029TIP3   OH281577   5.868   0.071   0.618  0.1675  0.1131 -0.9121
20029TIP3    H181578   5.813   0.076   0.696  0.8578 -1.9686 -0.2649
20029TIP3    H281579   5.807   0.052   0.547 -0.2475  0.3053 -0.6057
20030TIP3   OH281580   4.241   2.004   4.536 -0.1704  0.2010 -0.1622
20030TIP3    H181581   4.193   1.924   4.515 -2.2099  0.8545  1.8134
20030TIP3    H281582   4.267   1.993   4.628  0.3960  1.3811 -0.1710
20031TIP3   OH281583   1.343   4.796  11.847 -0.0286 -0.1233 -0.2366
20031TIP3    H181584   1.330   4.870  11.906  1.5960  0.2744 -0.3534
20031TIP3    H281585   1.312   4.827  11.762 -2.2778 -0.6646  0.3566
20032TIP3   OH281586   2.201   4.824   1.000 -0.2359 -0.1674  0.3173
20032TIP3    H181587   2.170   4.910   0.971  1.3057 -0.7243 -3.2716
20032TIP3    H281588   2.163   4.763   0.937  0.0757 -1.9592  1.8280
20033TIP3   OH281589   1.219   1.230  14.107 -0.6142 -0.2296 -0.3352
20033TIP3    H181590   1.308   1.228  14.073  0.3288  1.5708  1.8872
20033TIP3    H281591   1.179   1.307  14.066 -0.3291  0.4162  0.5966
20034TIP3   OH281592   1.541   6.365   0.031  0.1182 -0.2730 -0.6876
20034TIP3    H181593   1.522   6.454   0.063 -1.0802 -0.5698 -0.5795
20034TIP3    H281594   1.457   6.320   0.034  0.7479 -1.4454 -0.6615
20035TIP3   OH281595   3.532   0.178  13.937  0.0027 -0.1908 -0.2510
20035TIP3    H181596   3.573   0.264  13.935 -0.3526 -0.0232 -0.4886
20035TIP3    H281597   3.551   0.143  14.025 -1.3750  0.8863  0.5061
20036TIP3   OH281598   4.120   3.707  15.576  0.4193 -0.4875  0.0511
20036TIP3    H181599   4.115   3.731  15.669  0.6925  0.9781 -0.2951
20036TIP3    H281600   4.213   3.689  15.561  0.2821 -1.3240  0.2042
20037TIP3   OH281601   3.641   0.234   5.608  0.2062  0.2922  0.1965
20037TIP3    H181602   3.708   0.200   5.668 -0.8593 -0.0450  1.2042
20037TIP3    H281603   3.560   0.191   5.635 -0.7697  2.0262  0.1182
20038TIP3   OH281604   0.786   2.473   4.094 -0.0005  0.0427  0.5070
20038TIP3    H181605   0.751   2.385   4.102  0.8497 -0.4746 -1.1209
20038TIP3    H281606   0.778   2.494   4.000  1.4195  0.9842  0.5712
20039TIP3   OH281607   1.423   1.501  15.868  0.4606  0.2287 -0.0952
20039TIP3    H181608   1.402   1.589  15.836  1.9049  0.3314 -0.7657
20039TIP3    H281609   1.480   1.463  15.801 -0.7694 -1.5182 -0.2059
20040TIP3   OH281610   0.747   0.762  16.516  0.3560 -0.1744 -0.4413
20040TIP3    H181611   0.699   0.680  16.527  0.2397 -0.0246  0.2160
20040TIP3    H281612   0.718   0.817  16.590 -0.1193  0.7189 -1.2824
20041TIP3   OH281613   1.113   4.518  14.085  0.1658  0.2586 -0.3113
20041TIP3    H181614   1.112   4.473  14.169 -0.4308  0.7390 -0.0532
20041TIP3    H281615   1.139   4.451  14.022  0.3548 -0.1694  0.2157
20042TIP3   OH281616   5.915   5.239   0.336  0.4562 -0.0674 -0.2015
20042TIP3    H181617   5.999   5.278   0.307  1.0377  0.5876  2.2704
20042TIP3    H281618   5.861   5.315   0.359 -0.5299 -0.5324 -0.9498
20043TIP3   OH281619   3.870   6.444  12.463  0.7535 -0.0328  0.0113
20043TIP3    H181620   3.781   6.451  12.428  0.3669 -0.2298  0.9265
20043TIP3    H281621   3.898   6.355  12.439  0.1128 -0.5320  1.0239
20044TIP3   OH281622   0.303   4.105   2.937 -0.0976 -0.1063 -0.5050
20044TIP3    H181623   0.214   4.134   2.920 -0.5477 -1.1047  0.0712
20044TIP3    H281624   0.336   4.166   3.003 -0.0131  0.8604 -1.4449
20045TIP3   OH281625   6.451   2.306   2.745  0.3551  0.4276  0.6216
20045TIP3    H181626   6.510   2.381   2.755  0.9535  0.4199 -2.3790
20045TIP3    H281627   6.380   2.338   2.690 -0.7475 -0.4784  1.5029
20046TIP3   OH281628   3.297   0.926   2.549 -0.4301  0.4251 -0.0471
20046TIP3    H181629   3.341   0.853   2.593  1.3475  1.1053 -0.6764
20046TIP3    H281630   3.244   0.884   2.482  1.0162 -0.2757 -0.7740
20047TIP3   OH281631   4.455   5.396  16.774  0.2538  0.0990  0.3242
20047TIP3    H181632   4.484   5.437  16.693 -0.8349  2.1927  0.9510
20047TIP3    H281633   4.380   5.342  16.748  1.0539 -0.7270 -0.3311
20048TIP3   OH281634   0.210   0.942   0.752  0.6724 -0.7078 -0.0357
20048TIP3    H181635   0.116   0.957   0.745  0.7763 -0.6983 -1.4878
20048TIP3    H281636   0.219   0.875   0.820 -0.2869  0.2342  1.0536
20049TIP3   OH281637   3.430   0.365  10.953  0.2872 -0.0173 -0.4993
20049TIP3    H181638   3.436   0.459  10.971 -0.8355 -0.0110 -0.1281
20049TIP3    H281639   3.484   0.352  10.876  1.7888  0.6591  0.4114
20050TIP3   OH281640   4.763   3.228   5.147  0.0098  0.7591  0.5113
20050TIP3    H181641   4.731   3.313   5.116 -1.4357  0.5656  1.4390
20050TIP3    H281642   4.689   3.168   5.134  1.0687 -0.3979 -0.2709
20051TIP3   OH281643   4.869   3.013  12.672  0.2461 -0.2713  0.9007
20051TIP3    H181644   4.888   3.064  12.751 -0.0283 -1.4754  1.7588
20051TIP3    H281645   4.955   2.996  12.633  0.6317 -1.9891  2.4286
20052TIP3   OH281646   4.350   1.573  14.745  0.1140 -0.2130 -1.2206
20052TIP3    H181647   4.363   1.549  14.837  0.9061  0.5072 -1.1387
20052TIP3    H281648   4.438   1.593  14.713 -0.2624  0.3996 -1.8879
20053TIP3   OH281649   1.883   0.765   5.215 -0.1312  0.7943  0.2450
20053TIP3    H181650   1.804   0.803   5.175 -0.4413  1.0619  1.0960
20053TIP3    H281651   1.849   0.701   5.278  0.3635  0.0792 -0.2063
20054TIP3   OH281652   0.475   3.958  16.071 -0.0759  0.0869  0.1703
20054TIP3    H181653   0.485   3.869  16.037 -1.4452 -0.9560  2.3792
20054TIP3    H281654   0.383   3.963  16.098 -0.0279  2.2043  0.0202
20055TIP3   OH281655   2.853   1.277   4.598  0.1495  0.1555  0.4152
20055TIP3    H181656   2.914   1.210   4.629  1.1312  0.8637  0.0420
20055TIP3    H281657   2.884   1.299   4.510 -0.8118  0.3284  0.1166
20056TIP3   OH281658   3.016   0.916  11.244  0.6260  0.0836 -0.3092
20056TIP3    H181659   3.085   0.973  11.277 -0.3032  1.8759 -1.3566
20056TIP3    H281660   2.967   0.890  11.322  0.3790  1.6615  0.0757
20057TIP3   OH281661   5.937   5.299   4.141 -0.5108 -0.2659 -0.3948
20057TIP3    H181662   5.951   5.364   4.209  2.2827 -0.8291 -0.3679
20057TIP3    H281663   5.943   5.349   4.059  1.0918 -0.3758 -0.3587
20058TIP3   OH281664   4.239   6.634   1.741 -0.5845  0.3863 -1.0348
20058TIP3    H181665   4.328   6.656   1.715 -0.4671  2.0556  0.6893
20058TIP3    H281666   4.242   6.630   1.836 -2.6255  1.6369 -0.9025
20059TIP3   OH281667   6.751   0.077  16.720  0.7647  0.2184 -0.2663
20059TIP3    H181668   6.804   0.059  16.642  0.0117 -0.1684 -0.6932
20059TIP3    H281669   6.717  -0.008  16.747  0.0564  0.5120 -0.2153
20060TIP3   OH281670   1.542   5.382  16.478  0.2037 -0.7514  0.3395
20060TIP3    H181671   1.461   5.340  16.450 -0.7060 -0.1483  2.0592
20060TIP3    H281672   1.545   5.464  16.428 -1.4410  0.3449  2.0302
20061TIP3   OH281673   4.493   4.444   5.257  0.7085 -0.3031  0.3224
20061TIP3    H181674   4.474   4.359   5.296  0.9067 -0.7478 -0.5471
20061TIP3    H281675   4.442   4.446   5.176  2.5873 -0.6106 -0.9019
20062TIP3   OH281676   6.159   2.751  14.584 -0.0105 -0.1008 -0.2554
20062TIP3    H181677   6.100   2.817  14.549 -0.5556 -0.8400 -0.7539
20062TIP3    H281678   6.161   2.682  14.517  0.4096 -0.6696  0.3273
20063TIP3   OH281679   6.073   1.239  16.270 -0.1621  0.8601 -0.0188
20063TIP3    H181680   6.131   1.257  16.344 -1.4508 -3.0533  2.0995
20063TIP3    H281681   5.992   1.283  16.292  0.1468  1.5382 -0.2080
20064TIP3   OH281682   1.303   5.151  14.336 -0.1110 -0.0684 -0.2136
20064TIP3    H181683   1.342   5.116  14.416 -0.6790  1.4082  0.7200
20064TIP3    H281684   1.220   5.103  14.327  1.2910 -2.3508 -1.5524
20065TIP3   OH281685   4.124   6.491  12.097  0.2860 -0.1167 -0.9672
20065TIP3    H181686   4.145   6.402  12.126  0.6227  0.5010  0.7282
20065TIP3    H281687   4.140   6.489  12.002  1.9608 -1.3798 -0.6878
20066TIP3   OH281688   5.668   0.513  16.283  0.2881 -0.1664  0.5721
20066TIP3    H181689   5.588   0.501  16.233  0.4742  2.5680 -0.4598
20066TIP3    H281690   5.646   0.485  16.371 -1.4389 -0.6191  0.0059
20067TIP3   OH281691   4.315   3.418  14.258  0.3735  0.0600  0.4729
20067TIP3    H181692   4.226   3.384  14.266  0.3687 -0.2973 -0.9240
20067TIP3    H281693   4.308   3.511  14.275  0.0392 -0.2858  2.2609
20068TIP3   OH281694   0.747   0.166   1.999 -0.1579 -0.3174 -0.4697
20068TIP3    H181695   0.810   0.145   1.930  0.1473 -0.6732 -0.0853
20068TIP3    H281696   0.674   0.105   1.984  1.0363 -2.1954  1.0750
20069TIP3   OH281697   1.948   0.603   3.561 -0.3307  0.2313  0.5397
20069TIP3    H181698   1.874   0.626   3.617  0.0626  1.5156  0.5605
20069TIP3    H281699   2.024   0.607   3.618 -0.3639 -2.3506  0.8211
20070TIP3   OH281700   2.616   6.064   1.265 -0.2174  0.1527  0.0010
20070TIP3    H181701   2.692   6.048   1.210  0.7237  0.1113  1.3001
20070TIP3    H281702   2.581   6.147   1.234 -1.2099 -1.1011 -2.3484
20071TIP3   OH281703   3.474   2.107   3.653  0.3408 -0.7497 -0.1185
20071TIP3    H181704   3.392   2.121   3.702 -0.2977 -0.0651 -1.3566
20071TIP3    H281705   3.516   2.193   3.652  1.1701 -1.1442  0.6706
20072TIP3   OH281706   2.092   6.045  17.182 -0.2013 -0.7215 -0.3547
20072TIP3    H181707   2.019   5.988  17.156 -1.1649 -0.7010  2.1640
20072TIP3    H281708   2.134   5.997  17.253  1.3026 -0.0020 -0.7587
20073TIP3   OH281709   5.076   0.339   0.633 -0.7127 -0.6487 -0.8648
20073TIP3    H181710   5.115   0.315   0.549  1.9588  0.5809 -0.0110
20073TIP3    H281711   5.101   0.430   0.646 -0.1056 -1.1626  1.8042
20074TIP3   OH281712   1.345   4.891  17.005 -0.5981 -0.0646 -0.0569
20074TIP3    H181713   1.321   4.909  17.096 -0.5955  0.3080 -0.1273
20074TIP3    H281714   1.339   4.976  16.962  0.1856 -0.1001 -0.2304
20075TIP3   OH281715   5.894   6.134   5.115 -0.3902  0.7966 -0.2838
20075TIP3    H181716   5.970   6.168   5.067  2.0105 -0.4554  2.4427
20075TIP3    H281717   5.889   6.189   5.194 -0.4021 -1.0452  1.0317
20076TIP3   OH281718   2.443   4.186   1.532  0.2765  0.1705 -0.6518
20076TIP3    H181719   2.438   4.281   1.543  0.7323  0.2620 -1.2019
20076TIP3    H281720   2.355   4.155   1.550 -0.2457  0.8607 -1.9684
20077TIP3   OH281721   6.510   5.054   5.628 -0.7295 -0.1851  0.4503
20077TIP3    H181722   6.604   5.035   5.622 -0.6055 -0.0320  1.8227
20077TIP3    H281723   6.468   4.969   5.622 -0.5188 -0.2428 -0.3099
20078TIP3   OH281724   0.175   4.378  13.389  0.5151  0.2145 -0.1541
20078TIP3    H181725   0.232   4.396  13.314 -0.9075  2.7978 -0.6899
20078TIP3    H281726   0.107   4.320  13.354  1.0299 -0.2751 -0.3391
20079TIP3   OH281727   4.532   0.670   4.816  0.7632 -0.0924 -0.1170
20079TIP3    H181728   4.536   0.610   4.891  0.6675 -0.0261 -0.0591
20079TIP3    H281729   4.618   0.663   4.775  0.9893  0.2569  0.2948
20080TIP3   OH281730   4.923   0.809  15.356 -0.8600  0.0110 -0.1095
20080TIP3    H181731   4.981   0.877  15.322 -4.0518  3.4456  0.8487
20080TIP3    H281732   4.873   0.779  15.280  1.6620 -2.5375 -0.8308
20081TIP3   OH281733   6.565   4.763   0.999 -0.0725 -0.3645 -0.6568
20081TIP3    H181734   6.477   4.744   1.032  0.1132 -0.1992 -0.0515
20081TIP3    H281735   6.596   4.680   0.964 -0.1973 -0.6015 -0.2160
20082TIP3   OH281736   2.671   1.910   5.665 -0.1258 -0.2081 -0.3000
20082TIP3    H181737   2.766   1.919   5.671 -0.1216  0.4079 -1.2326
20082TIP3    H281738   2.654   1.893   5.573 -1.0195  0.9750 -0.3629
20083TIP3   OH281739   5.869   4.547   3.287 -0.1644 -0.2997  0.4841
20083TIP3    H181740   5.811   4.619   3.313  2.0818  2.0940 -0.8990
20083TIP3    H281741   5.834   4.517   3.203  0.0776  0.5626  0.0722
20084TIP3   OH281742   4.257   6.615   6.231  0.2997  0.3873 -0.4720
20084TIP3    H181743   4.339   6.648   6.270 -0.2676 -0.8033  1.7803
20084TIP3    H281744   4.285   6.544   6.174  0.7323 -0.9724  1.3984
20085TIP3   OH281745   6.389   3.845   1.278  0.2074  0.0791 -0.2545
20085TIP3    H181746   6.325   3.911   1.307  1.4676  1.4045 -0.4456
20085TIP3    H281747   6.344   3.761   1.291 -0.4554  0.7993  2.5351
20086TIP3   OH281748   6.008   1.547   2.751  0.6559  0.2331 -0.1382
20086TIP3    H181749   5.970   1.593   2.676  2.2155  0.8686 -0.5535
20086TIP3    H281750   6.022   1.615   2.817  2.5213  0.3084 -0.5746
20087TIP3   OH281751   2.876   1.473  13.634 -0.2380 -0.6434  0.2578
20087TIP3    H181752   2.823   1.549  13.608  0.4904 -0.5491 -0.9949
20087TIP3    H281753   2.966   1.499  13.617 -0.0470 -2.1807 -1.2492
20088TIP3   OH281754   5.592   4.272  14.302  0.8184  0.2487  0.1666
20088TIP3    H181755   5.546   4.250  14.383 -0.2206  2.8775  0.3381
20088TIP3    H281756   5.535   4.239  14.233 -0.3094  1.5720  0.4369
20089TIP3   OH281757   6.388   4.388   2.337 -0.2636 -0.4652  0.1761
20089TIP3    H181758   6.294   4.404   2.326 -0.0799  0.6452  0.2608
20089TIP3    H281759   6.394   4.336   2.417 -0.8351 -0.8700 -0.0384
20090TIP3   OH281760   4.378   0.495  13.623 -0.3643  0.3388 -0.1266
20090TIP3    H181761   4.334   0.419  13.585  1.4853 -0.4540 -0.6970
20090TIP3    H281762   4.328   0.512  13.703 -1.3738 -0.8886 -0.4612
20091TIP3   OH281763   2.701   0.028   4.833  0.1171 -0.8711  0.0487
20091TIP3    H181764   2.738   0.108   4.869 -2.1809 -0.6965  2.1650
20091TIP3    H281765   2.669   0.054   4.746 -1.6689  0.8703  1.1754
20092TIP3   OH281766   2.362   5.025  13.705  0.7896  0.2105 -0.3185
20092TIP3    H181767   2.395   4.959  13.644  1.0114  0.0064  0.0168
20092TIP3    H281768   2.366   5.107  13.656  0.4464 -0.0338 -0.7617
20093TIP3   OH281769   0.820   2.458  13.496 -0.0119 -0.0688  0.8584
20093TIP3    H181770   0.749   2.418  13.546 -1.6701 -0.8953 -2.0447
20093TIP3    H281771   0.868   2.384  13.459 -0.0141  0.5425 -0.3823
20094TIP3   OH281772   4.062   5.969  10.922  0.0751 -0.6686 -0.2156
20094TIP3    H181773   4.101   6.008  10.844  0.4763 -1.2928 -0.3286
20094TIP3    H281774   3.968   5.983  10.912  0.1680 -0.2866 -0.5551
20095TIP3   OH281775   5.322   4.805   3.138  0.0462 -0.3779 -0.0966
20095TIP3    H181776   5.389   4.871   3.122  0.6524 -0.8537  0.4488
20095TIP3    H281777   5.301   4.813   3.231 -0.2481 -0.6037 -0.1415
20096TIP3   OH281778   3.081   3.849  15.146 -0.0075 -0.3064 -0.1439
20096TIP3    H181779   3.085   3.936  15.186  1.0969  0.3906 -1.6996
20096TIP3    H281780   3.114   3.790  15.214 -0.4652  0.5265  0.8218
20097TIP3   OH281781   3.932   3.487  11.642  0.5261  0.9761 -0.0651
20097TIP3    H181782   3.989   3.520  11.711  1.4820 -0.4045 -0.1675
20097TIP3    H281783   3.990   3.472  11.568 -0.0780  0.1730 -0.3858
20098TIP3   OH281784   1.755   1.129  16.332 -0.1274 -0.6229 -0.3890
20098TIP3    H181785   1.741   1.035  16.340  0.4084 -0.7242 -0.5985
20098TIP3    H281786   1.848   1.141  16.349 -0.6162  0.1381  1.8301
20099TIP3   OH281787   0.044   4.006   2.343 -0.2387  0.1931  0.1721
20099TIP3    H181788   0.066   4.099   2.350 -2.5235  0.7675 -0.0874
20099TIP3    H281789   0.129   3.963   2.333  1.0919  1.9536  3.0443
20100TIP3   OH281790   2.860   4.518   4.558  0.1617 -0.2839  0.5765
20100TIP3    H181791   2.838   4.586   4.495 -1.9350 -1.3709  0.0970
20100TIP3    H281792   2.900   4.565   4.631  0.5328  1.2321 -0.5780
20101TIP3   OH281793   5.962   2.266  11.487  0.2780 -0.3572 -0.1866
20101TIP3    H181794   6.048   2.273  11.444  0.2973  0.0372 -0.0850
20101TIP3    H281795   5.914   2.343  11.456  0.3253 -0.0229  0.5751
20102TIP3   OH281796   1.340   0.663   3.757  0.1044  0.0261 -0.5423
20102TIP3    H181797   1.370   0.752   3.740 -0.7641 -0.0487 -2.5945
20102TIP3    H281798   1.285   0.670   3.836 -1.0792  1.5648 -1.4823
20103TIP3   OH281799   6.320   6.723  12.443  0.2665  0.0695  0.1131
20103TIP3    H181800   6.330   6.799  12.500  0.2407  0.2900 -0.1733
20103TIP3    H281801   6.404   6.677  12.449  0.4264  0.3402 -0.0267
20104TIP3   OH281802   3.063   0.081  11.504 -0.5664  0.5429 -0.3138
20104TIP3    H181803   3.035   0.000  11.547 -2.2450  0.0644 -2.1925
20104TIP3    H281804   3.153   0.063  11.476 -0.7336 -0.4716 -0.2163
20105TIP3   OH281805   4.196   5.262  15.017 -0.1979  0.5883 -0.0463
20105TIP3    H181806   4.284   5.275  14.983  0.9285 -0.7264  2.2568
20105TIP3    H281807   4.186   5.328  15.086 -0.3361 -0.4116  0.9088
20106TIP3   OH281808   0.418   3.590   0.796  0.3707 -0.1586  0.3942
20106TIP3    H181809   0.398   3.569   0.705  0.9134 -0.1808  0.2813
20106TIP3    H281810   0.332   3.602   0.837 -0.0218 -3.7260  0.7386
20107TIP3   OH281811   1.966   6.563  16.720 -0.8311  0.2911  0.0491
20107TIP3    H181812   1.878   6.573  16.682 -1.2401 -2.5792  0.1692
20107TIP3    H281813   1.953   6.580  16.814 -1.3874 -0.8404  0.1733
20108TIP3   OH281814   6.660   5.410   0.767  0.3493 -0.3881 -0.2778
20108TIP3    H181815   6.664   5.416   0.863 -1.4487 -1.1567 -0.1193
20108TIP3    H281816   6.639   5.318   0.750 -0.4188 -0.0302 -1.3459
20109TIP3   OH281817   3.360   2.320   1.244 -0.1908  0.3051  0.7089
20109TIP3    H181818   3.423   2.359   1.305  0.1718  1.3764 -0.3288
20109TIP3    H281819   3.370   2.371   1.164 -2.3349  0.4195  0.5017
20110TIP3   OH281820   6.233   4.688  17.278  0.0829 -0.2088  0.1776
20110TIP3    H181821   6.294   4.761  17.291 -1.6435  0.8337  2.7666
20110TIP3    H281822   6.281   4.611  17.309  1.6202 -0.0949 -1.8049
20111TIP3   OH281823   4.569   2.117   2.419 -0.3611 -0.2956 -0.5225
20111TIP3    H181824   4.606   2.036   2.382  0.9503  0.4593 -0.8707
20111TIP3    H281825   4.527   2.160   2.344  1.2232  0.6295 -0.8851
20112TIP3   OH281826   2.820   5.624   5.344 -0.2132 -0.0203 -0.0427
20112TIP3    H181827   2.821   5.687   5.273 -1.7820 -0.3688 -0.3905
20112TIP3    H281828   2.838   5.676   5.423  1.0170  0.4430 -0.6224
20113TIP3   OH281829   5.886   3.956  13.896 -0.1300 -0.5913  0.0229
20113TIP3    H181830   5.908   3.871  13.934  0.5377 -1.0540 -1.3339
20113TIP3    H281831   5.970   4.001  13.888 -0.4940  0.2292  0.8158
20114TIP3   OH281832   1.955   4.631  12.403 -0.0474 -0.1623  0.4970
20114TIP3    H181833   1.960   4.537  12.418  0.1963 -0.1236  0.6499
20114TIP3    H281834   1.956   4.670  12.491 -0.8186 -0.0495  0.4620
20115TIP3   OH281835   0.688   1.476  10.894  0.1968  0.6619  0.2492
20115TIP3    H181836   0.637   1.522  10.961  0.3868  1.2164  0.0189
20115TIP3    H281837   0.756   1.538  10.869  3.0575 -1.2543  2.9131
20116TIP3   OH281838   0.389   2.544  11.002  0.7818  0.7815 -0.3924
20116TIP3    H181839   0.397   2.584  10.915  2.8797  0.3724 -0.4156
20116TIP3    H281840   0.343   2.462  10.987 -0.6264  1.6253 -0.8146
20117TIP3   OH281841   6.517   3.922   2.967 -0.0735  0.7501 -0.3879
20117TIP3    H181842   6.455   3.865   2.921  1.6233 -1.7057  0.2640
20117TIP3    H281843   6.487   4.011   2.947 -3.3912 -0.3440 -0.6111
20118TIP3   OH281844   1.751   3.034  14.009  0.4702 -0.1336  0.1232
20118TIP3    H181845   1.682   3.044  13.943  0.3393 -0.5745  0.1920
20118TIP3    H281846   1.832   3.054  13.962  0.2379  1.0548  0.2112
20119TIP3   OH281847   5.025   5.699   0.727  0.4365  0.2333 -0.5656
20119TIP3    H181848   5.111   5.719   0.691 -0.0366 -2.7110 -3.5887
20119TIP3    H281849   5.023   5.603   0.732 -3.0443  0.1823 -1.5997
20120TIP3   OH281850   4.670   5.193  16.509  0.2690  0.4610 -0.4676
20120TIP3    H181851   4.592   5.240  16.482 -0.5215  0.3579  1.5418
20120TIP3    H281852   4.731   5.262  16.536  0.4334  0.4913 -0.9204
20121TIP3   OH281853   5.035   5.117  16.560  0.3320 -0.2649  0.4686
20121TIP3    H181854   5.072   5.067  16.487  1.9684  0.8644  0.5049
20121TIP3    H281855   5.023   5.053  16.630  1.7990 -0.7532  0.2880
20122TIP3   OH281856   6.685   0.449   3.299 -0.1135  0.6394 -0.4110
20122TIP3    H181857   6.652   0.523   3.248  1.9103  1.6117 -0.3457
20122TIP3    H281858   6.739   0.489   3.367  0.2037 -0.8548  0.2318
20123TIP3   OH281859   0.247   4.884  13.570 -0.5176  0.1047  0.4813
20123TIP3    H181860   0.189   4.818  13.531 -0.7681 -1.2219  2.9724
20123TIP3    H281861   0.303   4.834  13.630 -0.7567  2.1222  2.4722
20124TIP3   OH281862   4.593   5.299   0.811  0.4296 -0.8519 -0.2772
20124TIP3    H181863   4.546   5.279   0.892 -0.2624 -0.1173 -0.4984
20124TIP3    H281864   4.554   5.380   0.780  2.5405  0.3342  0.0746
20125TIP3   OH281865   5.661   2.820   3.292  0.0770  0.2577 -0.3690
20125TIP3    H181866   5.720   2.815   3.368  0.1883  2.3671 -0.2917
20125TIP3    H281867   5.623   2.732   3.286 -1.3500  0.5465  3.2786
20126TIP3   OH281868   4.479   6.719   1.586 -0.2711 -0.4441  0.4309
20126TIP3    H181869   4.524   6.708   1.502  2.7142 -2.5699  2.1914
20126TIP3    H281870   4.514   6.800   1.622 -0.2948 -0.4065  0.3685
20127TIP3   OH281871   6.766   6.056   1.978  0.1050 -0.4868  0.0125
20127TIP3    H181872   6.698   6.024   2.038 -0.6724  1.3945  0.1883
20127TIP3    H281873   6.849   6.033   2.019 -0.4323 -1.3443  0.6126
20128TIP3   OH281874   6.159   3.416  12.051 -0.2632  0.1562 -0.6892
20128TIP3    H181875   6.152   3.462  11.967  1.5815 -1.8728 -2.0188
20128TIP3    H281876   6.095   3.345  12.044  0.1845 -0.2588 -0.5417
20129TIP3   OH281877   4.505   1.913  13.209  0.0777 -0.1195 -0.3414
20129TIP3    H181878   4.500   1.932  13.302  0.6595 -0.1522 -0.3016
20129TIP3    H281879   4.577   1.850  13.201  2.0497  2.1821 -1.1776
20130TIP3   OH281880   0.724   4.195  12.995 -1.0854  0.4642 -0.4032
20130TIP3    H181881   0.744   4.164  13.083  0.6851 -0.5390 -1.1440
20130TIP3    H281882   0.669   4.126  12.957  0.5086 -0.4706 -1.0599
20131TIP3   OH281883   0.659   5.256   1.970 -0.0246 -0.3237 -0.3201
20131TIP3    H181884   0.628   5.200   1.899 -1.5202 -0.1052  0.1342
20131TIP3    H281885   0.741   5.293   1.938  0.2680 -1.6852 -1.1802
20132TIP3   OH281886   2.672   0.466  11.761 -0.2568 -0.3072 -0.1233
20132TIP3    H181887   2.740   0.471  11.694 -1.2511  1.8411 -1.0181
20132TIP3    H281888   2.591   0.453  11.713 -1.0773  1.9998  0.5405
20133TIP3   OH281889   1.307   5.830  11.190  0.9967 -0.0624 -0.2630
20133TIP3    H181890   1.257   5.749  11.176  1.4947 -0.9460  2.7293
20133TIP3    H281891   1.242   5.900  11.182 -0.1553 -1.0086  0.5806
20134TIP3   OH281892   5.528   1.856   5.687  0.1495  0.2542  0.0213
20134TIP3    H181893   5.617   1.824   5.697  0.2274  0.3426 -0.3626
20134TIP3    H281894   5.490   1.800   5.619  0.1013  0.5928 -0.2344
20135TIP3   OH281895   0.048   1.233  12.063 -0.3430  0.4497 -0.2409
20135TIP3    H181896   0.109   1.259  12.132 -0.7430  0.3081  0.1779
20135TIP3    H281897  -0.030   1.203  12.111 -1.3464  2.1192 -0.7940
20136TIP3   OH281898   2.787   1.234   2.030 -0.5647 -0.4316 -0.5102
20136TIP3    H181899   2.797   1.197   2.118 -1.3583 -1.8966 -1.0173
20136TIP3    H281900   2.857   1.299   2.024 -0.9472  0.2221  1.4645
20137TIP3   OH281901   5.561   1.689  15.929  0.1436  1.0922 -0.0531
20137TIP3    H181902   5.629   1.650  15.873  0.5057  1.9678 -0.2344
20137TIP3    H281903   5.610   1.745  15.989 -0.4929  2.5040 -0.8246
20138TIP3   OH281904   5.645   3.837   6.672  0.1644 -0.3776  0.0772
20138TIP3    H181905   5.574   3.773   6.670  0.8076 -1.1063  0.3542
20138TIP3    H281906   5.646   3.874   6.584 -0.2825 -0.6655 -0.0513
20139TIP3   OH281907   4.220   2.380  11.512 -0.4176 -0.0097  0.3513
20139TIP3    H181908   4.129   2.398  11.485 -0.1603  0.2138 -0.3701
20139TIP3    H281909   4.252   2.464  11.545  0.0673  0.3335 -0.9630
20140TIP3   OH281910   4.895   0.924   5.119 -0.0394 -0.2564  0.3448
20140TIP3    H181911   4.904   0.884   5.033 -0.7396 -1.0016  0.6179
20140TIP3    H281912   4.927   1.014   5.107  0.1903 -0.4599 -0.5994
20141TIP3   OH281913   0.866   2.496  11.530  0.0495 -0.2748 -0.0748
20141TIP3    H181914   0.815   2.419  11.505 -1.0393  0.4211 -0.0367
20141TIP3    H281915   0.847   2.508  11.623 -2.5027  1.9995 -0.8016
20142TIP3   OH281916   0.764   4.513   2.909 -0.4083 -0.6281  0.3733
20142TIP3    H181917   0.684   4.528   2.959 -0.7913 -0.5649 -0.2538
20142TIP3    H281918   0.740   4.532   2.818  0.8582  1.3798  0.4362
20143TIP3   OH281919   4.777   0.253   2.638 -0.0165 -0.5845  0.0664
20143TIP3    H181920   4.719   0.326   2.620  0.7418 -0.3236 -1.4807
20143TIP3    H281921   4.739   0.179   2.590  0.8175 -0.4585 -0.7986
20144TIP3   OH281922   3.910   0.226  15.437 -0.6765  0.4115  0.4148
20144TIP3    H181923   3.902   0.233  15.342  0.4200  1.7411  0.3926
20144TIP3    H281924   3.823   0.247  15.471 -0.9046  0.5783 -0.2725
20145TIP3   OH281925   6.151   4.258   0.852 -0.3128 -0.2427 -0.2864
20145TIP3    H181926   6.195   4.309   0.920 -0.9784 -0.0587  0.0052
20145TIP3    H281927   6.063   4.296   0.846 -1.1276 -1.9515  0.5889
20146TIP3   OH281928   0.349   6.638   1.683 -0.5638  0.4098 -0.1435
20146TIP3    H181929   0.356   6.589   1.765 -1.3947 -0.0132 -0.3220
20146TIP3    H281930   0.410   6.711   1.694  0.6848 -0.6364  0.1270
20147TIP3   OH281931   5.801   5.590  15.865  0.0656  0.2080  0.0596
20147TIP3    H181932   5.807   5.566  15.958 -0.7177 -0.1293  0.0314
20147TIP3    H281933   5.892   5.600  15.837  0.4060 -1.7825  0.3367
20148TIP3   OH281934   2.286   2.301   0.139 -0.0546 -0.4685  0.5328
20148TIP3    H181935   2.218   2.274   0.077  0.4499 -0.8415  0.1451
20148TIP3    H281936   2.362   2.320   0.084  0.0182  0.3878  0.9260
20149TIP3   OH281937   4.643   6.075   5.569 -0.4042  0.4790  0.1907
20149TIP3    H181938   4.599   6.039   5.646  0.8850 -0.7945  0.3386
20149TIP3    H281939   4.645   6.003   5.507  1.7229  0.4371  0.2911
20150TIP3   OH281940   1.284   4.066  16.507  0.0827  0.4200 -0.0195
20150TIP3    H181941   1.346   4.012  16.557  1.2471  0.2898 -1.5724
20150TIP3    H281942   1.245   4.007  16.443  0.3030  1.0912 -0.7797
20151TIP3   OH281943   1.192   5.904  10.851 -0.2457 -0.0500 -0.3559
20151TIP3    H181944   1.228   5.819  10.825 -2.8140 -1.4712  0.5387
20151TIP3    H281945   1.128   5.924  10.783 -0.8577  0.3509  0.3423
20152TIP3   OH281946   4.342   5.282  11.924 -0.3231 -0.6053  0.5506
20152TIP3    H181947   4.413   5.334  11.886  0.2554 -0.8895  1.2449
20152TIP3    H281948   4.367   5.270  12.015 -0.7919 -1.5292  0.5556
20153TIP3   OH281949   1.820   1.682  15.346 -0.0148  0.5369 -0.1994
20153TIP3    H181950   1.886   1.682  15.276 -1.5897 -1.1646 -1.7444
20153TIP3    H281951   1.823   1.592  15.381 -0.6564  0.8076  0.5672
20154TIP3   OH281952   3.890   3.958   2.338  0.5229 -0.1858 -0.3152
20154TIP3    H181953   3.899   4.027   2.404  0.9452  0.5862 -1.1730
20154TIP3    H281954   3.978   3.919   2.332 -0.0431 -1.7593  1.1909
20155TIP3   OH281955   0.343   2.323  12.416 -0.1277 -0.0318 -0.7864
20155TIP3    H181956   0.287   2.266  12.362 -2.3566  2.6649 -1.4194
20155TIP3    H281957   0.414   2.349  12.357  0.5872 -1.5999 -0.6674
20156TIP3   OH281958   4.986   5.592  16.685  0.3791 -0.5899  0.2739
20156TIP3    H181959   5.077   5.591  16.714  0.4224 -0.1593  0.1537
20156TIP3    H281960   4.935   5.604  16.765  0.4300 -0.7585  0.3300
20157TIP3   OH281961   3.392   5.493   2.297 -0.2425  0.2720  0.3344
20157TIP3    H181962   3.340   5.435   2.352 -0.3722 -1.8807 -1.9267
20157TIP3    H281963   3.329   5.556   2.262 -0.5388  0.3548  1.0187
20158TIP3   OH281964   1.335   2.476   0.875 -0.3279  0.3919 -0.2076
20158TIP3    H181965   1.299   2.445   0.792  0.2068  0.3376 -0.4243
20158TIP3    H281966   1.363   2.396   0.920  0.1360  0.4838 -0.3313
20159TIP3   OH281967   4.225   5.867   0.476  0.1742  0.1459 -0.5780
20159TIP3    H181968   4.202   5.831   0.562  2.5012  0.2838  0.1619
20159TIP3    H281969   4.256   5.791   0.426  0.3236  0.3177 -0.7482
20160TIP3   OH281970   5.486   5.022  12.115 -0.1277  0.0217 -0.1647
20160TIP3    H181971   5.497   5.117  12.116  0.2134  0.0039 -1.2713
20160TIP3    H281972   5.477   4.998  12.207  0.6829  1.0201  0.1910
20161TIP3   OH281973   3.544   5.066   3.799 -0.2985 -0.8539 -0.3727
20161TIP3    H181974   3.474   5.099   3.743  0.8910  0.3406 -1.1779
20161TIP3    H281975   3.542   4.971   3.786 -0.1409 -0.6017 -2.3154
20162TIP3   OH281976   0.544   1.864   0.196  0.1519 -0.1211  0.0559
20162TIP3    H181977   0.502   1.880   0.281  0.5304 -1.7799  0.5610
20162TIP3    H281978   0.514   1.778   0.170  1.6475 -0.4761 -0.5355
20163TIP3   OH281979   6.279   0.776   0.771  0.5388  0.1956 -0.2193
20163TIP3    H181980   6.269   0.734   0.686  2.1671 -0.2166 -0.2240
20163TIP3    H281981   6.374   0.781   0.784  0.3262  1.3718  1.0154
20164TIP3   OH281982   3.191   2.616   0.015  0.0128 -0.8073 -0.0489
20164TIP3    H181983   3.209   2.526   0.043  1.0067 -0.6546 -0.1692
20164TIP3    H281984   3.277   2.651  -0.009 -0.3461  0.2324  0.1558
20165TIP3   OH281985   5.346   1.936  16.763 -0.1821 -0.2053  0.2385
20165TIP3    H181986   5.322   1.913  16.673 -1.8081 -0.7350  0.7891
20165TIP3    H281987   5.275   1.992  16.793 -1.2372 -2.4681  2.1863
20166TIP3   OH281988   2.395   0.577  16.176 -0.0506  1.0786 -0.5338
20166TIP3    H181989   2.349   0.659  16.161  0.7864  1.4594 -1.0562
20166TIP3    H281990   2.364   0.519  16.107  2.1950  2.1583 -2.5329
20167TIP3   OH281991   3.965   4.461   6.002  0.0151  0.1596 -0.2556
20167TIP3    H181992   3.912   4.385   5.978  0.4962 -0.0684 -0.6210
20167TIP3    H281993   3.973   4.456   6.097 -2.0174  1.1417 -0.0128
20168TIP3   OH281994   0.066   5.537   3.613  0.2391  0.5740  0.0216
20168TIP3    H181995   0.015   5.489   3.678 -0.0600 -0.9715 -1.3033
20168TIP3    H281996   0.079   5.474   3.542  1.4347  1.8966 -0.9642
20169TIP3   OH281997   6.618   5.338   3.052 -0.1738 -0.0548 -0.4808
20169TIP3    H181998   6.693   5.362   3.106 -0.2413  1.1130 -0.8967
20169TIP3    H281999   6.550   5.312   3.115 -0.4304  1.7860  0.0516
20170TIP3   OH282000   3.355   1.832  11.789 -0.2403  0.2773  0.4656
20170TIP3    H182001   3.322   1.763  11.846  0.4756 -0.0553  0.4895
20170TIP3    H282002   3.411   1.885  11.847 -0.0717  0.3467  0.2415
20171TIP3   OH282003   5.131   5.854  15.689 -0.3933  0.5020 -0.2817
20171TIP3    H182004   5.200   5.861  15.756 -1.0259  0.3555  0.3867
20171TIP3    H282005   5.109   5.761  15.688 -0.1993  0.4548 -0.8970
20172TIP3   OH282006   0.663   5.081  15.128  0.0094 -0.1808 -0.8348
20172TIP3    H182007   0.583   5.036  15.152  0.3907 -0.7261 -0.5823
20172TIP3    H282008   0.635   5.147  15.064 -0.7751  0.2662 -0.0396
20173TIP3   OH282009   5.577   1.838  11.770  0.0786 -0.7420  0.0709
20173TIP3    H182010   5.505   1.796  11.818 -1.3408 -0.5583 -1.8249
20173TIP3    H282011   5.542   1.924  11.745  1.2603 -0.3132 -0.1536
20174TIP3   OH282012   1.628   2.000   0.123  0.1843 -0.5931  0.3455
20174TIP3    H182013   1.699   2.019   0.184  0.2400 -1.0618  0.4320
20174TIP3    H282014   1.574   2.079   0.122 -0.5395 -1.0403  1.9828
20175TIP3   OH282015   6.240   6.705   2.758 -0.0154 -0.3258  0.0774
20175TIP3    H182016   6.170   6.645   2.731 -0.4942 -0.3996  1.4061
20175TIP3    H282017   6.249   6.689   2.852 -1.1641  2.6911  0.7464
20176TIP3   OH282018   2.721   5.582   4.796  0.4204 -0.2843  0.1066
20176TIP3    H182019   2.635   5.604   4.834  0.8730 -0.5512  1.2974
20176TIP3    H282020   2.781   5.585   4.870  1.3088 -0.8763 -0.5856
20177TIP3   OH282021   3.497   6.013   2.195 -0.0570 -0.3998 -0.7327
20177TIP3    H182022   3.403   6.031   2.206  0.0298 -0.6068  0.4723
20177TIP3    H282023   3.504   5.918   2.205  0.4985 -0.1983  1.0758
20178TIP3   OH282024   4.213   3.720  12.709 -0.1085  0.1469 -0.5173
20178TIP3    H182025   4.287   3.767  12.670 -1.0683  0.3442 -2.1292
20178TIP3    H282026   4.230   3.723  12.803  1.9749  0.1306 -0.8633
20179TIP3   OH282027   0.896   1.377  14.502 -0.0046  0.3788 -0.3471
20179TIP3    H182028   0.824   1.437  14.522 -0.7095  0.2313 -2.2999
20179TIP3    H282029   0.923   1.402  14.413  1.8244 -0.0874  0.0715
20180TIP3   OH282030   5.802   0.807   0.520  0.2695 -0.4130 -0.1954
20180TIP3    H182031   5.849   0.745   0.577 -0.8283 -2.3173 -1.3255
20180TIP3    H282032   5.716   0.768   0.508 -0.6013  1.5700 -0.5961
20181TIP3   OH282033   6.329   6.086  17.264 -0.2520  0.3257 -0.0440
20181TIP3    H182034   6.345   6.134  17.183 -1.1891 -1.5673 -1.4084
20181TIP3    H282035   6.260   6.023  17.241 -0.1608 -0.5955  2.0856
20182TIP3   OH282036   6.509   6.596   0.813  0.3341 -0.3142  0.2384
20182TIP3    H182037   6.434   6.537   0.820 -0.0893  0.2468  0.4609
20182TIP3    H282038   6.471   6.681   0.793  0.7812  0.3193  1.9739
20183TIP3   OH282039   2.199   0.683  14.524  0.2964  0.3119  0.0644
20183TIP3    H182040   2.187   0.772  14.555 -1.1563  0.6903 -1.5169
20183TIP3    H282041   2.126   0.634  14.563  0.8655 -0.1017  0.6155
20184TIP3   OH282042   6.338   1.648   2.615 -0.3132 -0.0874  0.0862
20184TIP3    H182043   6.303   1.584   2.677 -0.6683  0.5619  0.5508
20184TIP3    H282044   6.405   1.695   2.664 -0.4088  0.2482 -0.1046
20185TIP3   OH282045   1.846   5.267   2.329  0.4016 -0.0609  0.0797
20185TIP3    H182046   1.834   5.230   2.416  0.7889  2.1203  1.0981
20185TIP3    H282047   1.775   5.331   2.320 -0.8029 -1.6219 -2.0004
20186TIP3   OH282048   4.290   5.188  16.016 -0.1040  0.1248 -0.5674
20186TIP3    H182049   4.229   5.249  16.057  1.2289  0.0305  1.6736
20186TIP3    H282050   4.240   5.107  16.006 -0.9131  0.6111 -0.4965
20187TIP3   OH282051   2.602   1.958  17.232  0.2108  0.0720 -0.0289
20187TIP3    H182052   2.620   2.020  17.302  1.6270 -0.3945  0.0328
20187TIP3    H282053   2.523   1.912  17.261  1.0715 -0.4688  1.5123
20188TIP3   OH282054   5.455   3.504  14.949  0.2681  0.1054 -0.3462
20188TIP3    H182055   5.545   3.488  14.976 -0.6459 -0.6279  2.4920
20188TIP3    H282056   5.432   3.428  14.895  0.9806 -0.2991 -0.0803
20189TIP3   OH282057   1.443   4.158   3.050  0.3068  0.2499  0.0094
20189TIP3    H182058   1.450   4.247   3.017 -0.8840  0.8216  1.2253
20189TIP3    H282059   1.473   4.164   3.141  0.6650 -0.6845 -0.0411
20190TIP3   OH282060   6.066   6.396   5.138 -0.4063 -0.0063 -0.6236
20190TIP3    H182061   6.135   6.337   5.108 -1.2388 -0.5325 -1.5641
20190TIP3    H282062   6.096   6.429   5.222  1.0539 -0.1198 -1.0887
20191TIP3   OH282063   6.072   6.533   3.712 -0.4212 -0.1698 -0.4640
20191TIP3    H182064   6.116   6.449   3.697 -0.1273 -0.3507  1.2504
20191TIP3    H282065   6.058   6.569   3.624 -0.9396 -2.1984 -1.2460
20192TIP3   OH282066   4.823   6.667  13.200  0.2877 -0.2625 -0.5047
20192TIP3    H182067   4.808   6.575  13.221  2.3538 -0.4863  0.0638
20192TIP3    H282068   4.864   6.666  13.114  0.8897  0.0842 -0.2250
20193TIP3   OH282069   1.163   3.323   1.942 -0.6678  0.3821  0.6577
20193TIP3    H182070   1.131   3.414   1.937 -1.7652 -0.0044  0.3667
20193TIP3    H282071   1.253   3.331   1.971  0.2862  1.7977 -2.4053
20194TIP3   OH282072   1.366   1.047   2.981 -0.3349  0.0184 -0.7328
20194TIP3    H182073   1.316   0.985   3.034  2.3160 -1.4104  0.1891
20194TIP3    H282074   1.299   1.095   2.931 -2.5715 -2.1524  0.0477
20195TIP3   OH282075   4.533   0.139  14.319 -0.2664 -0.7353  0.5124
20195TIP3    H182076   4.543   0.045  14.305 -0.6545 -0.8719  1.1033
20195TIP3    H282077   4.445   0.148  14.357 -0.5057 -0.0672 -0.1870
20196TIP3   OH282078   0.144   0.067  15.304  0.0018  0.0139  0.0887
20196TIP3    H182079   0.174   0.156  15.320  0.4625  0.1493 -1.4787
20196TIP3    H282080   0.218   0.012  15.328 -0.0095  0.0891  0.3024
20197TIP3   OH282081   4.677   5.229   4.923  0.1431 -0.1638  0.2525
20197TIP3    H182082   4.664   5.319   4.893  3.1763  0.1977 -0.0831
20197TIP3    H282083   4.608   5.215   4.989 -2.4939  1.2097 -2.1102
20198TIP3   OH282084   3.949   5.777   0.408  0.1463  0.2693  0.1565
20198TIP3    H182085   4.027   5.832   0.398  0.9126 -0.6829  0.6854
20198TIP3    H282086   3.923   5.788   0.499 -0.8044  1.1805 -0.2241
20199TIP3   OH282087   1.610   3.112  14.609 -0.4301  0.1061 -0.1338
20199TIP3    H182088   1.535   3.127  14.666  0.6423  1.0141  1.0977
20199TIP3    H282089   1.671   3.183  14.631  2.5176 -2.8531  1.8892
20200TIP3   OH282090   3.261   0.552   5.441 -0.3030 -0.0740 -0.8278
20200TIP3    H182091   3.216   0.553   5.357  0.5050 -0.2585 -1.2685
20200TIP3    H282092   3.326   0.482   5.432 -0.1625 -0.0418 -0.0795
20201TIP3   OH282093   3.514   3.826  13.000 -0.3890  0.3749 -0.0699
20201TIP3    H182094   3.511   3.902  12.942 -2.0666  0.8703  0.6358
20201TIP3    H282095   3.592   3.778  12.973 -0.9254  0.8025 -2.4662
20202TIP3   OH282096   0.020   6.485   2.453  0.3668  0.1133 -0.2478
20202TIP3    H182097   0.012   6.441   2.368  0.3440 -3.7226  1.6252
20202TIP3    H282098  -0.052   6.449   2.505  1.6530  0.7946  2.0700
20203TIP3   OH282099   0.193   5.106  10.401 -0.8234 -0.2413  0.3016
20203TIP3    H182100   0.243   5.056  10.336  1.4592  0.2950  1.6041
20203TIP3    H282101   0.184   5.193  10.362  0.2162 -0.0275  0.5362
20204TIP3   OH282102   3.261   1.297  14.019 -0.2842 -0.8678  0.0194
20204TIP3    H182103   3.233   1.360  14.084 -3.3849 -1.5670 -0.5254
20204TIP3    H282104   3.216   1.216  14.043 -0.9738 -1.3122 -2.5604
20205TIP3   OH282105   5.009   3.778  11.528 -0.2617  0.0765 -0.0445
20205TIP3    H182106   5.096   3.818  11.520 -0.4258  0.3595 -0.4125
20205TIP3    H282107   5.027   3.686  11.551  0.1709 -0.1709 -1.3375
20206TIP3   OH282108   4.704   3.988   6.744  0.8365 -0.3681 -0.5508
20206TIP3    H182109   4.713   3.932   6.821  0.2187 -0.5698 -0.6202
20206TIP3    H282110   4.628   3.953   6.698 -0.3626  1.3500  0.0842
20207TIP3   OH282111   2.329   3.894  13.663 -0.3039 -0.2584  0.2058
20207TIP3    H182112   2.415   3.868  13.630  0.7808  1.4605  1.5655
20207TIP3    H282113   2.315   3.839  13.740  1.2694  1.9528  2.1409
20208TIP3   OH282114   1.505   0.022  15.855  0.2729 -0.0144  0.4282
20208TIP3    H182115   1.496   0.042  15.948  0.8109  1.5192  0.1668
20208TIP3    H282116   1.597  -0.005  15.845  0.1748 -0.3255  0.3724
20209TIP3   OH282117   2.756   6.727   0.503  0.6659  0.4892 -0.1944
20209TIP3    H182118   2.777   6.637   0.480 -0.4234  0.9506 -3.2816
20209TIP3    H282119   2.730   6.723   0.595 -1.8725 -2.8173 -0.9428
20210TIP3   OH282120   2.613   2.622   0.435  0.0197  0.1526  0.6296
20210TIP3    H182121   2.520   2.642   0.447  0.5234  2.2204  1.3121
20210TIP3    H282122   2.632   2.555   0.500 -1.6801 -2.5940 -1.5754
20211TIP3   OH282123   5.083   2.889   3.899  0.2032 -0.1975  0.4226
20211TIP3    H182124   5.163   2.907   3.849 -0.3179  1.9789  0.3452
20211TIP3    H282125   5.109   2.900   3.990 -0.4001  2.2074  0.3253
20212TIP3   OH282126   2.877   6.485   1.909 -0.2937  0.5797  0.3016
20212TIP3    H182127   2.905   6.573   1.884 -0.8541  0.6223 -0.2021
20212TIP3    H282128   2.812   6.499   1.978 -2.1339  0.6938 -1.4017
20213TIP3   OH282129   6.709   6.443  13.679  0.4032  0.2959 -0.5401
20213TIP3    H182130   6.779   6.381  13.701 -0.1633  0.2347  1.1499
20213TIP3    H282131   6.726   6.519  13.736 -1.3668 -0.0519  0.4796
20214TIP3   OH282132   5.063   6.054  12.235  0.4756  0.0756 -0.3846
20214TIP3    H182133   5.081   5.973  12.282 -0.0742  0.1047 -0.1277
20214TIP3    H282134   5.117   6.120  12.280 -0.0090  0.0923  0.1728
20215TIP3   OH282135   6.277   4.193  13.198  0.5244 -0.6098 -0.1432
20215TIP3    H182136   6.328   4.266  13.163 -1.6091 -0.0246 -2.1663
20215TIP3    H282137   6.214   4.173  13.129 -1.8447 -1.4546  2.1865
20216TIP3   OH282138   5.634   4.289   5.458  0.8836  0.0852 -0.3954
20216TIP3    H182139   5.562   4.259   5.514  0.9425 -1.2594 -1.0242
20216TIP3    H282140   5.596   4.358   5.404  0.0031 -0.7450 -0.8534
20217TIP3   OH282141   1.728   6.732   0.228 -0.1769  0.1558  0.3638
20217TIP3    H182142   1.663   6.711   0.160 -0.6861 -1.0303  1.1987
20217TIP3    H282143   1.742   6.649   0.273  0.2839  0.9038  1.5986
20218TIP3   OH282144   6.472   2.203  16.482 -0.2256 -0.6121 -0.1326
20218TIP3    H182145   6.454   2.173  16.393  1.9882  1.8047 -1.4626
20218TIP3    H282146   6.400   2.262  16.502  0.1418  0.1220 -0.9576
20219TIP3   OH282147   4.791   5.563   2.311 -0.3684  0.0194  0.5450
20219TIP3    H182148   4.829   5.622   2.246  0.1003  0.6992  1.4275
20219TIP3    H282149   4.699   5.587   2.316 -0.6336 -0.7168 -0.6035
20220TIP3   OH282150   1.609   4.253  12.282  0.3702  0.4096  0.0533
20220TIP3    H182151   1.614   4.339  12.240  2.6523  0.8080  1.0568
20220TIP3    H282152   1.656   4.194  12.223 -0.5520 -0.0082 -0.2692
20221TIP3   OH282153   3.681   3.900   3.955 -0.4530 -0.7585 -0.1896
20221TIP3    H182154   3.724   3.831   4.006  2.1487  0.2474 -0.9573
20221TIP3    H282155   3.739   3.976   3.964 -2.8334  1.0872 -0.0595
20222TIP3   OH282156   4.569   5.937   0.283  0.5526  0.2653  0.1781
20222TIP3    H182157   4.605   6.026   0.290  1.2491  0.3295 -3.4554
20222TIP3    H282158   4.504   5.943   0.213  0.9861 -2.2068 -0.4650
20223TIP3   OH282159   3.489   0.986   0.790  0.1486  0.2479  0.0540
20223TIP3    H182160   3.512   0.939   0.871  1.6401 -0.1502 -0.5946
20223TIP3    H282161   3.509   0.924   0.720  0.0796  1.0698 -0.6988
20224TIP3   OH282162   2.934   6.730   1.296 -0.1193 -0.0463  0.5348
20224TIP3    H182163   2.840   6.734   1.280 -0.3749 -2.4055  1.2927
20224TIP3    H282164   2.944   6.759   1.387 -0.1398  0.1155  0.4844
20225TIP3   OH282165   2.807   0.416   4.209 -0.4694  0.2265 -0.2744
20225TIP3    H182166   2.870   0.377   4.270  1.6970 -0.6579 -2.9353
20225TIP3    H282167   2.771   0.341   4.161  0.3911  1.0899 -2.3511
20226TIP3   OH282168   5.524   5.983  13.900  0.0194  0.7345 -0.5430
20226TIP3    H182169   5.495   5.948  13.984  0.7743 -0.7866 -0.9019
20226TIP3    H282170   5.558   6.070  13.921  0.5770  0.2109  0.8101
20227TIP3   OH282171   5.816   1.969   5.416 -0.2274  0.7038 -0.0410
20227TIP3    H182172   5.764   1.894   5.445 -1.1163  1.4179  0.2327
20227TIP3    H282173   5.879   1.932   5.354 -0.2665 -0.3612  0.5401
20228TIP3   OH282174   4.490   5.534   0.704  0.0470  0.1673  0.6680
20228TIP3    H182175   4.472   5.555   0.612  1.8675  0.2184  0.2990
20228TIP3    H282176   4.421   5.578   0.753 -0.7371  0.4383 -0.6485
20229TIP3   OH282177   2.279   1.186   0.692  0.6594  0.0175  0.3718
20229TIP3    H182178   2.228   1.114   0.655 -1.1199  0.8312  1.1880
20229TIP3    H282179   2.248   1.263   0.646  0.8074  0.5889  1.2186
20230TIP3   OH282180   0.423   0.771  15.403 -0.1486 -0.5215  0.2571
20230TIP3    H182181   0.372   0.731  15.333  0.9722 -1.2499 -0.1704
20230TIP3    H282182   0.383   0.739  15.484  0.3481 -2.0454 -0.0813
20231TIP3   OH282183   5.817   5.347  12.744  0.3486  0.0737 -0.6068
20231TIP3    H182184   5.883   5.413  12.726 -1.1074  1.1409 -2.1347
20231TIP3    H282185   5.745   5.395  12.785 -0.2693 -0.7643 -0.7007
20232TIP3   OH282186   5.455   3.299   0.559 -0.0463  0.2535 -0.7484
20232TIP3    H182187   5.379   3.265   0.511  0.0662 -0.5711 -0.3458
20232TIP3    H282188   5.459   3.246   0.639  0.0944  1.2512 -0.0737
20233TIP3   OH282189   3.131   4.583   3.741 -0.1010  0.7621  0.1117
20233TIP3    H182190   3.182   4.663   3.732 -0.5157  0.9211 -0.9620
20233TIP3    H282191   3.155   4.548   3.827 -0.3586  2.3446  0.8498
20234TIP3   OH282192   2.269   3.150  15.285 -0.0116 -0.0984  0.1390
20234TIP3    H182193   2.269   3.110  15.372 -1.8835  0.4067  0.4079
20234TIP3    H282194   2.299   3.080  15.227 -2.7080 -1.7820  0.6773
20235TIP3   OH282195   2.748   2.321   6.111 -0.4192  0.0711  0.1364
20235TIP3    H182196   2.738   2.330   6.017 -0.9289 -0.3999  0.1426
20235TIP3    H282197   2.757   2.411   6.143 -0.6546  0.2566 -0.3139
20236LIG     O182198   1.696   2.042  16.234 -0.1182  0.5827  0.0323
20236LIG     O282199   1.687   1.804  16.276 -0.6530 -0.3381 -0.1110
20236LIG     O382200   1.638   1.866  16.487  0.0082  0.0315  0.1537
20236LIG     O482201   1.874   1.940  16.001  0.3479  0.2991  0.7010
20236LIG     O582202   2.057   1.972  16.236  0.1117  0.3026  0.1208
20236LIG     O682203   1.415   1.686  16.254  0.2189  0.3611 -0.0799
20236LIG     O782204   1.648   1.509  16.350 -0.6921 -0.8543 -0.0979
20236LIG     O882205   1.688   1.521  16.632  0.3992  0.1216  0.2017
20236LIG     O982206   1.573   1.757  16.019  0.3225  0.1364  0.0784
20236LIG    O1082207   1.835   2.077  16.499 -0.3685  0.2226 -0.0611
20236LIG    O1182208   1.873   1.698  16.741 -0.0765 -0.0388 -0.0360
20236LIG     C182209   1.689   1.908  16.178  0.1670 -0.5343 -0.4848
20236LIG     C282210   1.842   1.889  16.130  0.7244  0.0929  0.1055
20236LIG     C382211   1.914   1.960  16.242 -0.0231 -0.0324 -0.4487
20236LIG     C482212   1.832   2.084  16.255 -0.3951 -0.0647 -0.0064
20236LIG     C582213   1.579   1.829  16.365 -0.0141 -0.5899 -0.6401
20236LIG     C682214   1.490   1.704  16.376 -0.3531  0.1017 -0.3027
20236LIG     C782215   1.558   1.582  16.441  0.0968 -0.0220 -0.3194
20236LIG     C882216   1.624   1.634  16.571 -0.4738 -0.2859  0.4877
20236LIG     C982217   1.715   1.756  16.541  0.7874  0.1813 -0.4102
20236LIG    C1082218   1.589   1.890  16.065  0.7639 -0.4013  0.1872
20236LIG    C1182219   1.846   2.162  16.386  0.2900 -0.0265 -0.0697
20236LIG    C1282220   1.772   1.789  16.687 -0.2177 -0.2220 -0.0772
20236LIG     H182221   1.872   1.783  16.120 -0.2766 -0.1246 -0.7344
20236LIG     H282222   1.902   1.900  16.334  0.5278 -1.2178 -1.1437
20236LIG     H382223   1.848   2.150  16.169 -0.8527 -2.6494 -2.1500
20236LIG     H482224   1.514   1.910  16.324 -0.4846  0.3474  1.8630
20236LIG     H582225   1.414   1.737  16.450 -0.0615  1.9074 -0.7899
20236LIG     H682226   1.480   1.505  16.459  1.4372 -1.3255  0.0891
20236LIG     H782227   1.547   1.667  16.644  0.7127  1.4081  1.0342
20236LIG     H882228   1.796   1.715  16.477  0.1005 -0.6261 -0.7712
20236LIG     H982229   1.491   1.917  16.109  0.9862  1.3964 -0.3897
20236LIG    H1082230   1.614   1.955  15.978  1.8275  1.0973  1.5927
20236LIG    H1182231   1.945   2.212  16.389 -0.1444  0.8460 -0.0088
20236LIG    H1282232   1.763   2.236  16.382 -1.2411 -1.7622 -1.8437
20236LIG    H1382233   1.806   1.894  16.700  1.1646 -0.9487  2.5694
20236LIG    H1482234   1.678   1.796  16.746  0.2692 -2.7305  1.0365
20236LIG    H1582235   1.969   1.931  16.000  0.2128 -1.3431  0.9829
20236LIG    H1682236   2.082   1.994  16.146 -1.3077  0.4673 -0.2436
20236LIG    H1782237   1.484   1.665  16.190  0.7735  0.0679  0.6162
20236LIG    H1882238   1.606   1.424  16.347 -1.2487 -0.5887  0.1495
20236LIG    H1982239   1.749   1.561  16.694 -1.7106  1.1590  1.6831
20236LIG    H2082240   1.504   1.770  15.954 -1.0561 -0.1070  1.4636
20236LIG    H2182241   1.760   2.021  16.479  0.9084 -1.3641 -0.5697
20236LIG    H2282242   1.883   1.723  16.833 -0.3987 -1.3830  0.3741
   6.82013   6.82013  17.29240
